/*--------------------------------*- C++ -*----------------------------------*\
| =========                 |                                                 |
| \\      /  F ield         | OpenFOAM: The Open Source CFD Toolbox           |
|  \\    /   O peration     | Version:  5.x                                   |
|   \\  /    A nd           | Web:      www.OpenFOAM.org                      |
|    \\/     M anipulation  |                                                 |
\*---------------------------------------------------------------------------*/
FoamFile
{
    version     2.0;
    format      ascii;
    class       volScalarField;
    location    "0.9";
    object      p;
}
// * * * * * * * * * * * * * * * * * * * * * * * * * * * * * * * * * * * * * //

dimensions      [0 2 -2 0 0 0 0];

internalField   nonuniform List<scalar> 
10800
(
0.0346492
0.0305463
0.0245484
0.019047
0.0140067
0.00902149
0.00407573
-0.000255905
-0.00307412
-0.00399845
-0.0034671
-0.00228491
-0.00105029
-4.84554e-05
0.00064511
0.0010647
0.00128449
0.00137792
0.00140313
0.00140098
0.00139642
0.00140061
0.00141426
0.00143205
0.00144823
0.00146008
0.00146732
0.00146975
0.00146728
0.00146085
0.0014525
0.00144391
0.00143511
0.00142484
0.00141203
0.00139645
0.00137833
0.00135791
0.00133563
0.00131227
0.00128845
0.00126424
0.00123875
0.00121162
0.00118351
0.00115514
0.00112677
0.00109932
0.00107328
0.00104833
0.00102373
0.000999176
0.000974347
0.000949664
0.000925261
0.000901118
0.000876282
0.000850447
0.000823516
0.000796401
0.000769557
0.000743441
0.000717559
0.00069223
0.000667084
0.000642692
0.000618942
0.000595675
0.000571544
0.000546846
0.000521665
0.000496801
0.000471601
0.000446329
0.000421115
0.00039709
0.00037357
0.000350202
0.000326632
0.000303449
0.000280045
0.000256273
0.000232661
0.000209523
0.000187214
0.000165189
0.000144443
0.000123583
0.000104055
8.37544e-05
6.59456e-05
4.71251e-05
3.25746e-05
1.64461e-05
6.58384e-06
-6.55677e-06
-9.98754e-06
-1.9163e-05
-1.19163e-05
-1.52669e-05
0.0315347
0.0291939
0.0241025
0.0187812
0.013814
0.00898854
0.00425318
9.74353e-05
-0.00268797
-0.00369679
-0.00326185
-0.00214135
-0.000947142
2.56852e-05
0.000699615
0.00110717
0.00131974
0.00140862
0.00143062
0.00142582
0.00141892
0.001421
0.00143283
0.00144906
0.00146388
0.00147453
0.00148071
0.0014822
0.00147888
0.00147167
0.00146261
0.0014534
0.00144404
0.00143326
0.00141998
0.00140396
0.00138543
0.00136462
0.00134198
0.00131828
0.00129415
0.00126966
0.00124392
0.00121654
0.00118818
0.0011596
0.00113102
0.00110336
0.00107713
0.00105202
0.00102726
0.00100255
0.000977577
0.000952751
0.00092822
0.000903954
0.000879008
0.000853061
0.000826026
0.000798802
0.000771864
0.000745653
0.000719688
0.000694272
0.000669051
0.000644576
0.000620761
0.000597424
0.000573235
0.000548468
0.000523232
0.000498304
0.000473058
0.000447725
0.000422466
0.000398384
0.000374827
0.000351408
0.000327804
0.000304572
0.00028114
0.00025732
0.000233681
0.000210498
0.000188168
0.000166099
0.000145336
0.000124434
0.000104893
8.45502e-05
6.67325e-05
4.78698e-05
3.33145e-05
1.71448e-05
7.28295e-06
-5.89845e-06
-9.32409e-06
-1.85394e-05
-1.12846e-05
-1.46579e-05
0.0291386
0.0279181
0.0237077
0.0186209
0.0137115
0.00904973
0.00460972
0.000737383
-0.00196838
-0.00311996
-0.00289597
-0.00192664
-0.000818709
0.000103223
0.000749463
0.00114394
0.00135121
0.00143831
0.00145974
0.00145431
0.00144617
0.00144635
0.00145587
0.00146973
0.00148235
0.00149108
0.00149562
0.00149572
0.0014912
0.00148294
0.00147296
0.00146295
0.0014529
0.0014415
0.00142767
0.00141115
0.00139217
0.00137096
0.00134793
0.00132387
0.00129942
0.00127463
0.00124862
0.00122098
0.00119239
0.00116358
0.0011348
0.00110695
0.00108055
0.00105527
0.00103037
0.00100552
0.00098041
0.000955454
0.000930806
0.00090643
0.000881383
0.000855332
0.0008282
0.000800879
0.000773854
0.000747559
0.000721519
0.000696026
0.000670737
0.000646192
0.00062232
0.000598924
0.000574683
0.000549856
0.000524569
0.000499587
0.000474298
0.000448912
0.000423611
0.000399483
0.000375895
0.000352432
0.000328797
0.000305524
0.000282067
0.000258206
0.000234543
0.000211321
0.000188971
0.000166865
0.000146088
0.00012515
0.000105598
8.5218e-05
6.73919e-05
4.84921e-05
3.39323e-05
1.77264e-05
7.86458e-06
-5.35389e-06
-8.77605e-06
-1.80284e-05
-1.07781e-05
-1.41876e-05
0.0273114
0.026666
0.0232219
0.0184712
0.0136718
0.00917478
0.00502424
0.00144022
-0.00115259
-0.00241591
-0.00241543
-0.00163728
-0.000643551
0.000218473
0.00083259
0.00120891
0.00140546
0.00148621
0.00150397
0.00149613
0.00148557
0.0014827
0.0014886
0.00149874
0.001508
0.0015139
0.00151608
0.00151417
0.00150794
0.0014982
0.00148692
0.00147574
0.00146464
0.0014523
0.00143763
0.0014204
0.0014008
0.00137903
0.0013555
0.00133095
0.00130603
0.0012808
0.00125439
0.00122638
0.00119746
0.00116836
0.00113929
0.00111119
0.00108456
0.00105907
0.00103397
0.00100894
0.000983665
0.00095855
0.000933754
0.000909235
0.000884056
0.000857878
0.000830626
0.000803188
0.000776057
0.000749661
0.00072353
0.000697948
0.000672579
0.000647954
0.000624013
0.000600549
0.000576246
0.000551351
0.000526006
0.000500963
0.000475623
0.000450178
0.000424829
0.000400649
0.000377025
0.000353515
0.000329844
0.000306528
0.000283042
0.000259136
0.000235444
0.000212181
0.000189808
0.000167663
0.000146867
0.000125893
0.000106326
8.59076e-05
6.80684e-05
4.9131e-05
3.45613e-05
1.83199e-05
8.45131e-06
-4.80256e-06
-8.23214e-06
-1.75154e-05
-1.03043e-05
-1.37435e-05
0.0257971
0.0254209
0.0226009
0.0182695
0.0136598
0.00933589
0.00543666
0.00210664
-0.00036529
-0.0017023
-0.00190063
-0.00131706
-0.000447323
0.000351713
0.000934292
0.00129228
0.0014765
0.00154891
0.0015615
0.00155042
0.001537
0.00153057
0.00153213
0.00153769
0.00154275
0.00154504
0.00154412
0.00153954
0.00153101
0.00151927
0.00150621
0.00149336
0.00148073
0.001467
0.00145111
0.00143283
0.00141235
0.00138984
0.00136563
0.00134043
0.00131488
0.00128905
0.00126208
0.00123358
0.0012042
0.00117467
0.00114521
0.00111674
0.00108978
0.00106397
0.00103858
0.0010133
0.000987806
0.000962485
0.000937487
0.000912771
0.000887406
0.000861056
0.000833642
0.00080605
0.000778772
0.000752239
0.000725982
0.000700284
0.000674809
0.000650084
0.000626051
0.000602496
0.00057811
0.000553132
0.000527709
0.000502589
0.000477179
0.000451663
0.000426253
0.000402011
0.000378336
0.000354771
0.000331054
0.000307686
0.000284159
0.000260202
0.000236471
0.00021316
0.000190756
0.000168566
0.000147745
0.00012673
0.000107139
8.66791e-05
6.88186e-05
4.98404e-05
3.52517e-05
1.89733e-05
9.08635e-06
-4.20221e-06
-7.65753e-06
-1.69622e-05
-9.84523e-06
-1.32933e-05
0.0244739
0.0242095
0.0218767
0.0180103
0.0136657
0.00952851
0.00583977
0.00272153
0.000368342
-0.00100998
-0.00137496
-0.000977792
-0.000237826
0.000493534
0.00104419
0.00138476
0.00155685
0.00162028
0.00162684
0.00161192
0.0015954
0.00158533
0.00158244
0.00158325
0.00158392
0.00158239
0.00157815
0.00157062
0.00155954
0.00154555
0.00153042
0.00151561
0.00150111
0.00148566
0.00146823
0.00144861
0.00142701
0.00140356
0.00137852
0.00135254
0.0013262
0.0012996
0.00127196
0.00124285
0.00121291
0.00118285
0.0011529
0.00112396
0.00109653
0.00107028
0.00104449
0.00101887
0.000993082
0.000967499
0.000942237
0.000917262
0.000891653
0.000865088
0.000837472
0.000809682
0.000782202
0.000755481
0.00072905
0.000703196
0.000677582
0.00065273
0.000628572
0.000604897
0.0005804
0.000555319
0.000529794
0.000504572
0.000479066
0.000453462
0.000427971
0.000403652
0.000379907
0.000356273
0.000332495
0.000309063
0.00028548
0.000261459
0.000237677
0.000214309
0.000191861
0.00016962
0.000148761
0.000127698
0.000108073
8.75646e-05
6.96715e-05
5.06474e-05
3.60272e-05
1.97087e-05
9.78678e-06
-3.53556e-06
-7.04395e-06
-1.63553e-05
-9.40991e-06
-1.28281e-05
0.0232812
0.0230614
0.0211067
0.017704
0.0136791
0.00974667
0.00623692
0.00329051
0.00104709
-0.000346244
-0.000845044
-0.000620557
-1.39327e-05
0.000643517
0.00116007
0.00148376
0.00164439
0.00169862
0.00169828
0.00167855
0.00165824
0.00164419
0.00163667
0.00163264
0.00162886
0.00162343
0.00161579
0.00160527
0.00159155
0.00157522
0.00155793
0.00154103
0.00152454
0.00150723
0.00148811
0.001467
0.00144415
0.00141966
0.0013937
0.00136683
0.00133961
0.00131217
0.00128378
0.00125403
0.00122349
0.00119285
0.00116235
0.00113287
0.00110489
0.00107809
0.00105179
0.00102574
0.00099959
0.000973681
0.000948092
0.000922795
0.000896893
0.00087008
0.000842234
0.000814215
0.000786488
0.000759529
0.000732874
0.000706815
0.000681019
0.000656007
0.000631685
0.000607857
0.000583225
0.000558022
0.00053237
0.000507017
0.000481386
0.00045567
0.000430076
0.000405656
0.000381819
0.000358099
0.000334244
0.000310731
0.000287073
0.000262975
0.000239125
0.000215686
0.000193179
0.000170875
0.000149965
0.000128843
0.00010917
8.86046e-05
7.06647e-05
5.15872e-05
3.69193e-05
2.05558e-05
1.05769e-05
-2.77817e-06
-6.37728e-06
-1.56751e-05
-9.00102e-06
-1.23255e-05
0.0221865
0.0219916
0.0203349
0.0173624
0.0136851
0.00997664
0.00662905
0.00382272
0.00167535
0.000284666
-0.000317386
-0.000247742
0.00022522
0.000802367
0.00128137
0.00158824
0.00173836
0.00178354
0.00177553
0.00174984
0.00172478
0.00170616
0.00169374
0.00168472
0.00167637
0.00166697
0.00165584
0.00164223
0.00162581
0.00160705
0.00158752
0.00156848
0.00154996
0.00153073
0.00150985
0.00148717
0.00146302
0.00143741
0.00141047
0.00138266
0.00135451
0.00132618
0.00129702
0.00126662
0.00123549
0.00120427
0.00117322
0.00114319
0.00111462
0.00108722
0.00106035
0.0010338
0.00100723
0.000980942
0.000954969
0.000929293
0.000903063
0.000875981
0.000847899
0.000819639
0.000791644
0.000764417
0.000737503
0.000711195
0.000685177
0.000659967
0.000635441
0.000611421
0.000586631
0.000561293
0.000535498
0.000509992
0.000484209
0.000458358
0.000432638
0.000408088
0.000384133
0.00036031
0.000336363
0.000312752
0.000289002
0.00026481
0.000240877
0.000217347
0.000194766
0.000172382
0.000151409
0.000130214
0.00011048
8.98433e-05
7.18412e-05
5.2699e-05
3.79653e-05
2.15496e-05
1.14878e-05
-1.89936e-06
-5.63629e-06
-1.48965e-05
-8.60974e-06
-1.17541e-05
0.0211717
0.0210044
0.0195875
0.0169983
0.0136722
0.0102028
0.00701313
0.00432498
0.00225789
0.000879213
0.000200693
0.000136462
0.000479763
0.000971381
0.00140852
0.00169775
0.00183808
0.00187456
0.00185831
0.00182559
0.00179472
0.00177086
0.00175322
0.00173903
0.00172601
0.00171255
0.00169785
0.00168103
0.00166178
0.00164051
0.00161866
0.00159742
0.00157682
0.00155562
0.00153293
0.00150864
0.00148311
0.00145634
0.00142836
0.00139956
0.00137045
0.00134119
0.00131124
0.00128018
0.00124846
0.00121667
0.00118508
0.00115452
0.00112537
0.00109734
0.00106989
0.00104281
0.00101579
0.000989069
0.000962671
0.000936572
0.000909985
0.000882617
0.000854301
0.000825805
0.000797545
0.000770045
0.000742865
0.000716282
0.000690017
0.000664574
0.000639808
0.000615557
0.000590592
0.000565103
0.000539161
0.000513488
0.000487546
0.000461544
0.000435682
0.000410972
0.000386876
0.000362924
0.000338875
0.000315147
0.000291297
0.000266996
0.000242968
0.000219327
0.000196656
0.000174174
0.000153126
0.000131842
0.000112037
9.13142e-05
7.32361e-05
5.40143e-05
3.91968e-05
2.27192e-05
1.25471e-05
-8.71451e-07
-4.79941e-06
-1.39971e-05
-8.21943e-06
-1.10872e-05
0.0202256
0.0200958
0.0188793
0.0166242
0.0136353
0.0104124
0.00738319
0.00480108
0.00280037
0.00143703
0.000704024
0.000528029
0.000749542
0.00115209
0.00154233
0.00181191
0.00194265
0.00197084
0.00194617
0.00190566
0.00186807
0.00183826
0.00181501
0.00179549
0.00177767
0.00176006
0.00174169
0.00172155
0.00169936
0.00167545
0.00165119
0.00162768
0.00160494
0.00158172
0.00155715
0.00153117
0.00150421
0.00147622
0.00144715
0.00141731
0.00138719
0.00135698
0.00132621
0.00129448
0.00126216
0.00122978
0.00119766
0.00116656
0.00113683
0.00110819
0.00108014
0.00105251
0.00102502
0.000997847
0.000971
0.000944443
0.000917477
0.000889805
0.000861256
0.000832524
0.000804014
0.000776246
0.000748812
0.000721947
0.000695428
0.00066973
0.0006447
0.000620181
0.000595023
0.000569368
0.000543281
0.000517434
0.000491338
0.000465179
0.000439176
0.000414281
0.000390025
0.000365919
0.000341759
0.000317894
0.000293944
0.000269524
0.000245401
0.000221628
0.00019886
0.000176256
0.000155125
0.000133733
0.000113853
9.30293e-05
7.48666e-05
5.55488e-05
4.06309e-05
2.40797e-05
1.37707e-05
3.22121e-07
-3.85124e-06
-1.29636e-05
-7.81016e-06
-1.0315e-05
0.0193401
0.0192606
0.0182193
0.0162523
0.0135748
0.0105975
0.00773271
0.00525286
0.0033094
0.0019611
0.00118951
0.000922198
0.0010324
0.00134463
0.00168299
0.00193018
0.00205116
0.00207168
0.00203881
0.00199019
0.00194516
0.00190863
0.00187927
0.00185417
0.0018314
0.00180952
0.00178739
0.00176384
0.00173856
0.0017119
0.00168511
0.00165923
0.00163427
0.00160897
0.00158245
0.00155472
0.00152626
0.00149698
0.00146678
0.00143584
0.00140468
0.00137348
0.00134186
0.00130942
0.00127648
0.00124349
0.00121082
0.00117917
0.00114887
0.00111959
0.00109094
0.00106276
0.00103477
0.00100713
0.000979816
0.000952779
0.000925415
0.000897421
0.000868631
0.000839659
0.000810905
0.000782875
0.0007552
0.000728053
0.000701281
0.000675319
0.000650012
0.000625197
0.000599832
0.000573992
0.00054776
0.000521734
0.000495496
0.000469181
0.000443046
0.000417953
0.00039353
0.000369245
0.000344966
0.000320944
0.000296897
0.000272348
0.00024814
0.000224222
0.000201356
0.000178608
0.000157389
0.000135867
0.000115913
9.49756e-05
7.67268e-05
5.72987e-05
4.22665e-05
2.56295e-05
1.51585e-05
1.68212e-06
-2.78739e-06
-1.17954e-05
-7.36348e-06
-9.4499e-06
0.0185144
0.018498
0.0176142
0.0158929
0.0134943
0.0107544
0.00805679
0.00568081
0.00379046
0.00245485
0.00165437
0.00131319
0.00132445
0.00154815
0.00183074
0.0020524
0.00216305
0.00217647
0.00213582
0.00207904
0.00202608
0.00198213
0.00194603
0.00191501
0.00188714
0.00186088
0.00183491
0.00180786
0.00177937
0.0017498
0.00172037
0.00169203
0.00166478
0.00163733
0.00160881
0.00157925
0.00154923
0.00151862
0.00148722
0.00145514
0.00142289
0.00139066
0.00135816
0.00132498
0.00129138
0.00125776
0.00122451
0.00119231
0.00116141
0.0011315
0.00110222
0.00107346
0.00104497
0.00101685
0.000989049
0.000961514
0.000933737
0.000905403
0.00087636
0.000847137
0.000818139
0.000789846
0.000761936
0.000734504
0.00070748
0.000681247
0.000655659
0.000630531
0.000604947
0.000578903
0.000552524
0.00052631
0.000499939
0.000473468
0.000447215
0.000421918
0.000397327
0.000372844
0.000348441
0.00032424
0.000300098
0.000275412
0.000251133
0.000227062
0.000204105
0.000181194
0.000159882
0.000138212
0.000118184
9.71228e-05
7.87901e-05
5.92438e-05
4.40859e-05
2.73534e-05
1.66954e-05
3.19471e-06
-1.61601e-06
-1.05054e-05
-6.8666e-06
-8.52358e-06
0.0177557
0.0178115
0.0170697
0.0155561
0.013402
0.0108845
0.00835325
0.00608444
0.00424711
0.00292198
0.00209778
0.00169735
0.00162317
0.00176286
0.00198701
0.0021795
0.00227847
0.002285
0.00223688
0.00217197
0.00211083
0.00205885
0.00201533
0.00197797
0.00194481
0.00191407
0.00188416
0.00185355
0.00182173
0.00178912
0.00175693
0.00172605
0.00169643
0.00166679
0.00163619
0.00160474
0.0015731
0.00154111
0.00150845
0.00147519
0.00144179
0.0014085
0.0013751
0.00134115
0.00130685
0.00127257
0.00123872
0.00120593
0.00117442
0.00114386
0.00111395
0.0010846
0.00105559
0.00102697
0.000998667
0.000970621
0.000942414
0.000913726
0.000884416
0.00085493
0.000825678
0.000797117
0.000768971
0.000741249
0.00071397
0.000687461
0.000661587
0.000636133
0.000610321
0.00058406
0.000557527
0.000531117
0.000504615
0.000477986
0.000451622
0.000426118
0.00040136
0.000376669
0.000352135
0.00032774
0.000303501
0.000278671
0.000254327
0.000230102
0.000207059
0.000183977
0.000162568
0.000140733
0.000120628
9.94361e-05
8.10203e-05
6.13552e-05
4.60614e-05
2.92297e-05
1.83581e-05
4.83815e-06
-3.54221e-07
-9.11588e-06
-6.31417e-06
-7.57601e-06
0.0170697
0.0172021
0.0165895
0.01525
0.0133048
0.0109898
0.00861983
0.00646091
0.00468016
0.00336635
0.00252181
0.00207348
0.00192735
0.00198939
0.00215362
0.00231314
0.0023983
0.00239777
0.00234243
0.00226942
0.00219996
0.00213957
0.00208795
0.00204361
0.00200485
0.00196948
0.0019355
0.0019012
0.00186594
0.00183014
0.00179502
0.00176149
0.00172941
0.00169748
0.00166473
0.00163132
0.00159797
0.00156453
0.00153056
0.00149605
0.00146146
0.00142708
0.00139272
0.00135797
0.00132294
0.00128795
0.00125347
0.00122007
0.00118793
0.0011567
0.00112614
0.00109617
0.00106663
0.00103748
0.00100867
0.000980096
0.000951446
0.00092239
0.000892795
0.000863031
0.000833515
0.000804678
0.000776289
0.000748268
0.000720726
0.000693935
0.00066777
0.000641982
0.000615933
0.000589443
0.000562748
0.000536135
0.000509499
0.000482707
0.000456233
0.000430518
0.000405594
0.000380686
0.000356017
0.000331416
0.000307075
0.000282094
0.000257689
0.000233307
0.000210181
0.000186924
0.000165413
0.000143405
0.000123213
0.000101888
8.33838e-05
6.36053e-05
4.81633e-05
3.12358e-05
2.01226e-05
6.59054e-06
9.79054e-07
-7.65181e-06
-5.70696e-06
-6.64335e-06
0.0164362
0.0166607
0.0161704
0.0149755
0.0132024
0.011066
0.00884948
0.00680245
0.00508429
0.00378593
0.00292485
0.00243765
0.00223176
0.00222401
0.00232888
0.0024523
0.00252136
0.00251345
0.0024513
0.00237041
0.00229272
0.00222391
0.00216378
0.00211186
0.00206711
0.00202698
0.00198881
0.0019507
0.00191192
0.00187281
0.00183463
0.00179833
0.00176371
0.00172941
0.00169443
0.00165899
0.00162386
0.00158891
0.00155358
0.00151776
0.00148192
0.0014464
0.00141105
0.00137546
0.00133965
0.00130393
0.00126878
0.00123474
0.00120194
0.00117003
0.00113879
0.00110819
0.00107809
0.00104841
0.00101906
0.00098995
0.00096084
0.000931402
0.000901506
0.000871447
0.000841653
0.000812529
0.000783888
0.000755559
0.000727744
0.000700663
0.0006742
0.00064807
0.000621775
0.000595048
0.000568182
0.000541358
0.00051458
0.00048762
0.000461032
0.000435104
0.000410008
0.000384879
0.000360069
0.000335256
0.000310805
0.000285669
0.000261196
0.000236659
0.000213447
0.000190014
0.000168393
0.00014621
0.000125918
0.000104462
8.58567e-05
6.59742e-05
5.03673e-05
3.33537e-05
2.19696e-05
8.4343e-06
2.36924e-06
-6.13548e-06
-5.04859e-06
-5.75079e-06
0.0158684
0.0162008
0.0158212
0.0147396
0.0131005
0.0111158
0.00904152
0.00710614
0.00545639
0.00417959
0.00330632
0.00278735
0.00253233
0.00246326
0.00251105
0.00259615
0.00264664
0.00263073
0.00256216
0.00247365
0.00238793
0.00231096
0.00224227
0.00218224
0.00213099
0.00208595
0.00204358
0.00200157
0.00195921
0.00191678
0.00187545
0.00183629
0.00179909
0.00176238
0.00172511
0.00168759
0.00165064
0.00161413
0.00157739
0.00154022
0.0015031
0.00146641
0.00143004
0.00139357
0.00135696
0.00132047
0.00128461
0.00124992
0.00121645
0.00118383
0.0011519
0.00112065
0.00108998
0.00105974
0.00102984
0.00100018
0.000970597
0.000940763
0.00091055
0.000880181
0.000850096
0.000820674
0.00079177
0.000763123
0.000735024
0.000707646
0.000680878
0.000654399
0.000627848
0.000600876
0.00057383
0.000546788
0.000519859
0.000492724
0.000466015
0.000439869
0.000414597
0.000389243
0.000364283
0.000339255
0.000314685
0.000289392
0.000264842
0.00024015
0.000216843
0.000193238
0.000171495
0.000149139
0.000128731
0.00010715
8.84253e-05
6.84504e-05
5.26577e-05
3.55707e-05
2.38863e-05
1.03569e-05
3.80844e-06
-4.5836e-06
-4.3425e-06
-4.91176e-06
0.0154093
0.0158532
0.0155593
0.0145584
0.0130185
0.0111581
0.0092106
0.00738142
0.00580278
0.00455399
0.00367324
0.00312713
0.00283087
0.00270853
0.00270254
0.00274787
0.00277707
0.00275177
0.00267675
0.00258067
0.00248683
0.00240183
0.00232463
0.00225599
0.0021975
0.00214711
0.00210043
0.00205441
0.00200834
0.00196251
0.00191794
0.00187577
0.00183588
0.00179668
0.00175704
0.00171734
0.00167849
0.00164035
0.00160214
0.00156357
0.00152511
0.0014872
0.00144977
0.00141239
0.00137493
0.00133763
0.00130104
0.00126565
0.00123148
0.00119814
0.00116549
0.00113358
0.00110231
0.0010715
0.00104104
0.0010108
0.000980734
0.000950489
0.000919943
0.000889246
0.000858854
0.000829124
0.000799945
0.000770968
0.000742575
0.000714889
0.000687809
0.000660975
0.000634158
0.000606932
0.000579695
0.000552429
0.000525339
0.000498023
0.000471184
0.000444817
0.000419359
0.000393779
0.00036866
0.000343415
0.000318714
0.000293263
0.000268625
0.000243778
0.000220366
0.000196592
0.000174713
0.00015219
0.000131648
0.00010995
9.10839e-05
7.10287e-05
5.50262e-05
3.78793e-05
2.58666e-05
1.23497e-05
5.29451e-06
-3.00754e-06
-3.59071e-06
-4.1308e-06
0.015027
0.015595
0.0153714
0.0144272
0.012958
0.0111955
0.00935795
0.00762748
0.00612085
0.00490654
0.00402442
0.00345596
0.00312542
0.00295771
0.00290234
0.00290761
0.002913
0.00287657
0.00279487
0.00269142
0.00258935
0.00249629
0.00241076
0.00233332
0.00226691
0.00221063
0.00215949
0.00210942
0.00205946
0.0020101
0.00196223
0.0019169
0.00187417
0.00183241
0.00179032
0.00174833
0.00170751
0.00166767
0.00162791
0.00158787
0.00154802
0.00150884
0.00147031
0.00143196
0.0013936
0.00135546
0.00131809
0.00128197
0.00124708
0.00121299
0.0011796
0.00114699
0.00111511
0.00108371
0.00105266
0.00102184
0.000991271
0.000960598
0.0009297
0.000898656
0.000867943
0.000837893
0.000808425
0.000779107
0.000750407
0.000722403
0.000695003
0.000667806
0.000640713
0.000613225
0.000585787
0.00055829
0.000531027
0.000503524
0.000476544
0.000449953
0.0004243
0.00039849
0.000373203
0.00034774
0.000322895
0.000297287
0.000272546
0.000247548
0.000224014
0.000200077
0.000178046
0.000155363
0.000134667
0.000112861
9.38314e-05
7.37078e-05
5.74706e-05
4.02754e-05
2.7909e-05
1.44066e-05
6.82898e-06
-1.41479e-06
-2.79406e-06
-3.40704e-06
0.014664
0.0153657
0.0152164
0.0143243
0.0129119
0.0112266
0.0094814
0.00784078
0.0064055
0.00523128
0.00435502
0.00376995
0.0034114
0.00320571
0.00310628
0.00307267
0.00305266
0.00300333
0.00291457
0.00280411
0.00269384
0.00259269
0.00249923
0.00241334
0.00233871
0.00227595
0.00222012
0.00216601
0.00211211
0.00205908
0.00200786
0.00195936
0.00191369
0.0018693
0.00182472
0.00178038
0.00173751
0.00169593
0.00165458
0.00161301
0.00157172
0.00153124
0.00149157
0.00145222
0.00141294
0.0013739
0.00133572
0.00129885
0.00126322
0.00122836
0.00119421
0.00116089
0.00112837
0.00109637
0.00106472
0.0010333
0.00100221
0.000971092
0.000939826
0.000908415
0.000877366
0.000846984
0.000817214
0.000787544
0.000758525
0.000730194
0.000702465
0.000674899
0.000647519
0.000619762
0.000592111
0.000564377
0.000536929
0.000509233
0.0004821
0.000455281
0.000429422
0.000403382
0.000377915
0.000352234
0.000327233
0.000301468
0.000276609
0.000251462
0.000227792
0.000203696
0.000181496
0.000158662
0.000137791
0.000115887
9.66693e-05
7.64876e-05
5.99918e-05
4.27567e-05
3.00156e-05
1.65231e-05
8.41518e-06
1.89742e-07
-1.95311e-06
-2.73658e-06
0.0143071
0.0151469
0.0150802
0.0142433
0.012881
0.0112571
0.00958746
0.00802564
0.00665826
0.00552761
0.00466426
0.00406896
0.00368824
0.00345135
0.00331355
0.00324318
0.0031968
0.00313273
0.00303606
0.00291884
0.00280061
0.00269127
0.00259013
0.0024963
0.0024134
0.00234347
0.00228243
0.00222426
0.00216641
0.00210956
0.00205491
0.00200325
0.00195457
0.00190745
0.00186033
0.00181356
0.00176856
0.0017252
0.00168221
0.00163905
0.00159628
0.00155445
0.00151361
0.00147321
0.00143296
0.001393
0.00135397
0.00131631
0.00127992
0.00124427
0.00120934
0.00117528
0.00114212
0.00110948
0.00107722
0.00104518
0.00101356
0.000981985
0.000950332
0.000918536
0.000887135
0.000856409
0.000826322
0.000796289
0.000766939
0.000738271
0.000710204
0.000682264
0.000654584
0.00062655
0.000598675
0.000570697
0.000543052
0.000515157
0.000487858
0.000460809
0.000434733
0.000408462
0.000382803
0.000356903
0.000331732
0.000305811
0.000280818
0.000255525
0.000231702
0.000207454
0.000185067
0.000162088
0.000141022
0.000119028
9.96007e-05
7.93688e-05
6.25929e-05
4.53217e-05
3.219e-05
1.86953e-05
1.0057e-05
1.80304e-06
-1.06884e-06
-2.11402e-06
0.0139562
0.0149352
0.0149578
0.0141803
0.0128658
0.0112928
0.00968394
0.00818864
0.00688324
0.00579723
0.00495257
0.0043534
0.00395613
0.00369421
0.00352372
0.00341934
0.00334622
0.0032657
0.00315991
0.00303593
0.00291009
0.00279244
0.00268355
0.00258219
0.00249123
0.0024136
0.00234667
0.00228426
0.00222259
0.00216183
0.00210357
0.0020487
0.00199702
0.00194704
0.00189728
0.00184804
0.0018008
0.00175557
0.0017109
0.00166609
0.00162177
0.00157854
0.00153647
0.00149499
0.00145373
0.0014128
0.00137289
0.0013344
0.00129722
0.00126076
0.00122502
0.0011902
0.00115637
0.00112309
0.00109018
0.00105752
0.00102534
0.000993296
0.000961237
0.000929035
0.000897266
0.000866184
0.000835762
0.000805356
0.000775661
0.000746646
0.00071823
0.000689912
0.000661919
0.0006336
0.000605488
0.00057726
0.000549403
0.000521304
0.000493825
0.000466544
0.000440238
0.000413736
0.000387871
0.000361755
0.000336398
0.000310323
0.000285179
0.000259743
0.000235748
0.000211354
0.000188761
0.000165646
0.000144365
0.000122287
0.00010263
8.2352e-05
6.52782e-05
4.79688e-05
3.44368e-05
2.09201e-05
1.17579e-05
3.42357e-06
-1.43035e-07
-1.53323e-06
0.0136133
0.0147306
0.0148473
0.0141327
0.0128652
0.0113361
0.00977607
0.00833508
0.00708413
0.00604177
0.0052198
0.00462253
0.00421427
0.00393303
0.00373528
0.00360002
0.00350054
0.00340235
0.00328613
0.00315506
0.00302196
0.00289602
0.0027791
0.00267043
0.00257192
0.0024865
0.002413
0.00234598
0.0022806
0.00221595
0.00215384
0.00209564
0.00204097
0.00198806
0.00193555
0.00188376
0.00183423
0.00178702
0.00174061
0.00169411
0.00164819
0.00160352
0.00156018
0.00151756
0.00147525
0.00143331
0.00139247
0.00135313
0.00131513
0.00127783
0.00124127
0.00120566
0.00117114
0.00113719
0.00110363
0.00107031
0.00103757
0.00100504
0.00097255
0.000939921
0.000907768
0.000876319
0.000845544
0.000814756
0.000784701
0.000755328
0.000726552
0.000697851
0.000669531
0.000640921
0.000612558
0.000584074
0.00055599
0.000527681
0.000500008
0.000472493
0.000445943
0.00041921
0.000393126
0.000366794
0.000341237
0.000315008
0.000289695
0.000264119
0.000239937
0.000215399
0.000192585
0.000169337
0.000147824
0.000125666
0.000105761
8.54373e-05
6.80525e-05
5.06966e-05
3.67603e-05
2.31951e-05
1.35209e-05
5.05117e-06
8.21678e-07
-9.87886e-07
0.0132808
0.0145348
0.0147484
0.0140986
0.0128772
0.0113869
0.0098665
0.00846883
0.00726389
0.00626246
0.00546543
0.00487475
0.00446085
0.00416584
0.0039461
0.00378358
0.00365899
0.00354265
0.00341482
0.00327593
0.00313571
0.00300165
0.00287649
0.00276057
0.00265513
0.00256218
0.00248158
0.00240932
0.00234019
0.0022718
0.00220567
0.00214391
0.00208627
0.00203049
0.00197509
0.00192068
0.00186882
0.00181956
0.00177133
0.0017231
0.00167553
0.00162937
0.00158472
0.00154092
0.00149753
0.00145453
0.00141271
0.00137249
0.00133365
0.00129549
0.00125807
0.00122166
0.00118643
0.0011518
0.00111756
0.00108358
0.00105024
0.00101721
0.000984282
0.000951205
0.000918649
0.000886821
0.000855674
0.000824495
0.000794066
0.000764325
0.000735178
0.000706089
0.000677427
0.00064852
0.000619892
0.000591146
0.00056282
0.000534296
0.000506414
0.000478662
0.000451856
0.000424891
0.000398575
0.000372026
0.000346254
0.000319872
0.000294374
0.000268658
0.000244272
0.000219595
0.000196542
0.000173166
0.000151405
0.000129167
0.000109
8.86249e-05
7.09206e-05
5.35038e-05
3.9165e-05
2.55186e-05
1.53476e-05
6.68682e-06
1.82201e-06
-4.71807e-07
0.0129609
0.0143493
0.0146605
0.0140759
0.0128991
0.0114434
0.00995576
0.00859233
0.00742488
0.00646042
0.00568933
0.00510885
0.00469416
0.00439093
0.00415463
0.00396888
0.00382101
0.00368658
0.00354614
0.00339837
0.00325088
0.00310909
0.00297567
0.00285237
0.00274039
0.00264043
0.00255248
0.00247428
0.00240116
0.00232925
0.0022591
0.00219353
0.00213286
0.00207431
0.00201597
0.0019588
0.0019046
0.00185324
0.0018031
0.00175308
0.00170382
0.00165611
0.00161009
0.00156509
0.00152057
0.00147648
0.00143364
0.00139251
0.0013528
0.00131376
0.00127546
0.00123823
0.00120226
0.00116693
0.00113199
0.00109733
0.00106339
0.00102984
0.000996443
0.0009629
0.000929924
0.000897704
0.000866164
0.000834584
0.000803768
0.000773647
0.000744119
0.000714638
0.000685619
0.000656406
0.0006275
0.000598485
0.000569902
0.000541157
0.000513051
0.000485059
0.000457982
0.000430786
0.000404224
0.000377458
0.000351455
0.000324919
0.000299221
0.000273365
0.00024876
0.000223944
0.000200639
0.000177134
0.000155113
0.00013279
0.000112352
9.19148e-05
7.38875e-05
5.63895e-05
4.16543e-05
2.78897e-05
1.72388e-05
8.33244e-06
2.85425e-06
2.07894e-08
0.0126555
0.0141746
0.0145828
0.0140624
0.0129277
0.011503
0.010043
0.00870706
0.00756964
0.0066376
0.00589251
0.00532489
0.00491331
0.00460702
0.00435966
0.00415485
0.00398571
0.00383356
0.00367996
0.00352238
0.00336724
0.00321809
0.00307657
0.00294561
0.00282725
0.0027209
0.00262575
0.00254104
0.00246347
0.00238822
0.00231424
0.00224463
0.00218074
0.00211952
0.00205829
0.00199817
0.00194152
0.00188806
0.00183592
0.00178405
0.00173307
0.00168376
0.00163634
0.00159009
0.00154439
0.00149917
0.00145529
0.0014132
0.0013726
0.00133265
0.00129344
0.00125537
0.00121865
0.0011826
0.00114694
0.00111158
0.00107701
0.00104294
0.00100905
0.000975017
0.000941606
0.000908982
0.000877028
0.000845037
0.000813817
0.000783305
0.000753383
0.000723508
0.000694116
0.00066459
0.000635391
0.0006061
0.000577243
0.000548271
0.000519926
0.000491691
0.000464331
0.0004369
0.000410079
0.000383095
0.000356848
0.000330156
0.000304242
0.000278243
0.000253406
0.000228449
0.000204882
0.000181245
0.000158954
0.000136538
0.000115821
9.53074e-05
7.69576e-05
5.93534e-05
4.4231e-05
3.03086e-05
1.91939e-05
9.99073e-06
3.9146e-06
4.95101e-07
0.0123648
0.0140099
0.014513
0.0140554
0.0129607
0.0115637
0.0101273
0.00881436
0.00770115
0.00679662
0.00607654
0.00552354
0.00511784
0.00481273
0.00455962
0.00434004
0.00415179
0.00398274
0.00381611
0.00364813
0.00348473
0.00332837
0.00317905
0.00304022
0.0029154
0.00280326
0.00270139
0.00260981
0.0025272
0.00244857
0.00237107
0.0022973
0.00222986
0.00216597
0.002102
0.00203883
0.00197955
0.001924
0.00186985
0.00181604
0.00176332
0.00171236
0.00166346
0.00161594
0.00156903
0.00152262
0.00147765
0.00143458
0.00139306
0.00135218
0.00131204
0.0012731
0.0012356
0.00119881
0.00116242
0.00112634
0.00109113
0.00105651
0.00102211
0.000987569
0.000953702
0.000920661
0.000888274
0.000855865
0.000824227
0.000793308
0.000762981
0.000732706
0.000702926