/*--------------------------------*- C++ -*----------------------------------*\
| =========                 |                                                 |
| \\      /  F ield         | OpenFOAM: The Open Source CFD Toolbox           |
|  \\    /   O peration     | Version:  5.x                                   |
|   \\  /    A nd           | Web:      www.OpenFOAM.org                      |
|    \\/     M anipulation  |                                                 |
\*---------------------------------------------------------------------------*/
FoamFile
{
    version     2.0;
    format      ascii;
    class       surfaceScalarField;
    location    "0.9";
    object      phi;
}
// * * * * * * * * * * * * * * * * * * * * * * * * * * * * * * * * * * * * * //

dimensions      [0 3 -1 0 0 0 0];

internalField   nonuniform List<scalar> 
21390
(
7.41179e-08
6.87459e-09
-8.09925e-08
6.56854e-08
8.43252e-09
5.73944e-08
8.29097e-09
4.93636e-08
8.03076e-09
4.16166e-08
7.74703e-09
3.4457e-08
7.1596e-09
2.83582e-08
6.09877e-09
2.37111e-08
4.6471e-09
2.05751e-08
3.13606e-09
1.86078e-08
1.96725e-09
1.73544e-08
1.25342e-09
1.65007e-08
8.53729e-10
1.58666e-08
6.34022e-10
1.53432e-08
5.23465e-10
1.48665e-08
4.7667e-10
1.44085e-08
4.58048e-10
1.39611e-08
4.47323e-10
1.35262e-08
4.34929e-10
1.31089e-08
4.17353e-10
1.27142e-08
3.9467e-10
1.23454e-08
3.68834e-10
1.20029e-08
3.42455e-10
1.16851e-08
3.17799e-10
1.1389e-08
2.96126e-10
1.11115e-08
2.77472e-10
1.08503e-08
2.61182e-10
1.06036e-08
2.46757e-10
1.03696e-08
2.33942e-10
1.01471e-08
2.22501e-10
9.93511e-09
2.12011e-10
9.73289e-09
2.02214e-10
9.53988e-09
1.93015e-10
9.35524e-09
1.84637e-10
9.1782e-09
1.77042e-10
9.00802e-09
1.70182e-10
8.84424e-09
1.63779e-10
8.68639e-09
1.57848e-10
8.53418e-09
1.52208e-10
8.38727e-09
1.46913e-10
8.24552e-09
1.41753e-10
8.1086e-09
1.36916e-10
7.97628e-09
1.3232e-10
7.84801e-09
1.28266e-10
7.72361e-09
1.24399e-10
7.60283e-09
1.20785e-10
7.48561e-09
1.17218e-10
7.37166e-09
1.13952e-10
7.26108e-09
1.10578e-10
7.15362e-09
1.07463e-10
7.04923e-09
1.04383e-10
6.94754e-09
1.01689e-10
6.84857e-09
9.89753e-11
6.75197e-09
9.6595e-11
6.65794e-09
9.40334e-11
6.56619e-09
9.17543e-11
6.47684e-09
8.9342e-11
6.38944e-09
8.74018e-11
6.30411e-09
8.53305e-11
6.22048e-09
8.36297e-11
6.13887e-09
8.16077e-11
6.05896e-09
7.99156e-11
5.98101e-09
7.79442e-11
5.90456e-09
7.64538e-11
5.82994e-09
7.46177e-11
5.75667e-09
7.32777e-11
5.68517e-09
7.14972e-11
5.61499e-09
7.01825e-11
5.54649e-09
6.84912e-11
5.47901e-09
6.74857e-11
5.41305e-09
6.59626e-11
5.34805e-09
6.49963e-11
5.28463e-09
6.34208e-11
5.22204e-09
6.25876e-11
5.16089e-09
6.11491e-11
5.1005e-09
6.03924e-11
5.04167e-09
5.88316e-11
4.98352e-09
5.81503e-11
4.92677e-09
5.67495e-11
4.87054e-09
5.62273e-11
4.81577e-09
5.477e-11
4.7614e-09
5.43723e-11
4.70838e-09
5.30239e-11
4.65567e-09
5.27018e-11
4.6044e-09
5.12741e-11
4.55335e-09
5.10477e-11
4.50371e-09
4.96427e-11
4.45421e-09
4.95021e-11
4.40609e-09
4.81168e-11
4.35797e-09
4.81242e-11
4.31118e-09
4.67844e-11
4.26432e-09
4.68575e-11
4.21876e-09
4.55622e-11
4.17308e-09
4.56771e-11
4.12861e-09
4.44768e-11
4.08397e-09
4.46383e-11
4.04026e-09
4.3707e-11
3.99646e-09
4.37992e-11
3.95304e-09
4.34208e-11
3.90999e-09
4.30516e-11
4.52517e-11
8.54037e-08
6.41834e-09
-8.49474e-08
8.44668e-08
9.36944e-09
8.25656e-08
1.01921e-08
8.01312e-08
1.04652e-08
7.71788e-08
1.06994e-08
7.3739e-08
1.05994e-08
6.99577e-08
9.88001e-09
6.60906e-08
8.51418e-09
6.24444e-08
6.78234e-09
5.921e-08
5.20165e-09
5.63686e-08
4.09478e-09
5.38264e-08
3.39593e-09
5.15291e-08
2.93135e-09
4.94497e-08
2.60282e-09
4.75586e-08
2.36782e-09
4.58297e-08
2.18687e-09
4.42414e-08
2.0357e-09
4.27756e-08
1.90065e-09
4.14193e-08
1.77369e-09
4.01629e-08
1.65108e-09
3.89987e-08
1.53305e-09
3.79188e-08
1.42236e-09
3.69143e-08
1.32225e-09
3.59763e-08
1.23417e-09
3.50963e-08
1.15744e-09
3.42676e-08
1.08986e-09
3.34845e-08
1.02984e-09
3.27424e-08
9.76073e-10
3.20373e-08
9.27629e-10
3.13661e-08
8.83171e-10
3.07262e-08
8.42171e-10
3.0115e-08
8.04169e-10
2.95301e-08
7.69594e-10
2.89691e-08
7.37984e-10
2.84301e-08
7.09246e-10
2.79114e-08
6.82407e-10
2.74118e-08
6.57493e-10
2.69303e-08
6.33713e-10
2.64658e-08
6.11359e-10
2.60178e-08
5.89758e-10
2.55851e-08
5.69662e-10
2.51668e-08
5.50605e-10
2.47616e-08
5.33436e-10
2.43691e-08
5.16956e-10
2.39882e-08
5.01659e-10
2.36187e-08
4.86671e-10
2.32598e-08
4.72887e-10
2.29114e-08
4.59004e-10
2.25725e-08
4.46304e-10
2.22431e-08
4.33773e-10
2.19222e-08
4.22649e-10
2.16097e-08
4.11413e-10
2.1305e-08
4.0137e-10
2.10082e-08
3.90774e-10
2.07186e-08
3.81366e-10
2.04364e-08
3.71554e-10
2.01604e-08
3.63368e-10
1.98911e-08
3.54627e-10
1.96275e-08
3.47249e-10
1.93703e-08
3.3883e-10
1.91184e-08
3.31801e-10
1.88726e-08
3.23793e-10
1.86315e-08
3.17527e-10
1.83961e-08
3.10026e-10
1.8165e-08
3.04332e-10
1.79395e-08
2.97081e-10
1.77179e-08
2.91719e-10
1.75015e-08
2.84911e-10
1.72885e-08
2.80497e-10
1.70803e-08
2.74125e-10
1.68753e-08
2.69975e-10
1.66752e-08
2.6361e-10
1.64777e-08
2.60016e-10
1.62849e-08
2.54007e-10
1.60945e-08
2.50733e-10
1.59088e-08
2.44512e-10
1.57253e-08
2.41697e-10
1.55462e-08
2.35885e-10
1.53688e-08
2.33614e-10
1.51959e-08
2.27686e-10
1.50243e-08
2.2596e-10
1.48571e-08
2.20232e-10
1.46909e-08
2.1888e-10
1.45292e-08
2.12923e-10
1.43682e-08
2.12072e-10
1.42118e-08
2.06083e-10
1.40555e-08
2.05733e-10
1.3904e-08
1.99689e-10
1.37521e-08
2.00013e-10
1.3605e-08
1.93895e-10
1.34571e-08
1.94744e-10
1.33141e-08
1.8852e-10
1.31699e-08
1.89911e-10
1.30307e-08
1.83686e-10
1.28896e-08
1.85721e-10
1.27534e-08
1.79873e-10
1.26149e-08
1.8236e-10
1.24807e-08
1.77621e-10
1.23442e-08
1.79527e-10
1.82122e-10
8.92304e-08
6.02116e-09
-8.88332e-08
8.96375e-08
8.96231e-09
8.95732e-08
1.02565e-08
8.93183e-08
1.07201e-08
8.89382e-08
1.10796e-08
8.8303e-08
1.12346e-08
8.72979e-08
1.08851e-08
8.59192e-08
9.89285e-09
8.42847e-08
8.4169e-09
8.25747e-08
6.91162e-09
8.08869e-08
5.78256e-09
7.92144e-08
5.06847e-09
7.75388e-08
4.6069e-09
7.58657e-08
4.2759e-09
7.42071e-08
4.02645e-09
7.25696e-08
3.8244e-09
7.09572e-08
3.64811e-09
6.93733e-08
3.48453e-09
6.78219e-08
3.32509e-09
6.63082e-08
3.16479e-09
6.48376e-08
3.00362e-09
6.34148e-08
2.84513e-09
6.20424e-08
2.6947e-09
6.07211e-08
2.55547e-09
5.94504e-08
2.4281e-09
5.82295e-08
2.3108e-09
5.70565e-08
2.20286e-09
5.59294e-08
2.10316e-09
5.48458e-08
2.0112e-09
5.38038e-08
1.92518e-09
5.2801e-08
1.84497e-09
5.18353e-08
1.76986e-09
5.0904e-08
1.70087e-09
5.0005e-08
1.637e-09
4.91358e-08
1.57849e-09
4.82947e-08
1.52349e-09
4.74799e-08
1.47225e-09
4.66907e-08
1.42293e-09
4.59258e-08
1.37628e-09
4.51847e-08
1.3308e-09
4.44662e-08
1.28822e-09
4.37694e-08
1.24739e-09
4.30927e-08
1.2101e-09
4.24357e-08
1.17397e-09
4.1797e-08
1.14042e-09
4.11761e-08
1.10748e-09
4.05718e-08
1.07719e-09
3.9984e-08
1.04688e-09
3.9411e-08
1.01926e-09
3.88528e-08
9.9196e-10
3.83078e-08
9.67646e-10
3.77763e-08
9.42968e-10
3.72569e-08
9.20785e-10
3.67502e-08
8.97385e-10
3.6255e-08
8.76579e-10
3.57718e-08
8.54822e-10
3.52987e-08
8.36399e-10
3.48367e-08
8.16619e-10
3.43842e-08
7.99807e-10
3.39422e-08
7.80845e-10
3.35089e-08
7.65096e-10
3.30854e-08
7.47219e-10
3.26699e-08
7.33098e-10
3.22636e-08
7.16297e-10
3.18645e-08
7.03407e-10
3.14745e-08
6.87135e-10
3.10911e-08
6.75118e-10
3.07162e-08
6.59799e-10
3.03471e-08
6.4956e-10
2.99863e-08
6.34991e-10
2.96308e-08
6.25478e-10
2.92833e-08
6.11115e-10
2.89404e-08
6.02846e-10
2.86053e-08
5.89088e-10
2.82745e-08
5.81587e-10
2.79514e-08
5.67586e-10
2.76319e-08
5.61191e-10
2.732e-08
5.47827e-10
2.7011e-08
5.4259e-10
2.67096e-08
5.29053e-10
2.64105e-08
5.25069e-10
2.6119e-08
5.11748e-10
2.58292e-08
5.0872e-10
2.55472e-08
4.94935e-10
2.52661e-08
4.93141e-10
2.4993e-08
4.79127e-10
2.47202e-08
4.78626e-10
2.44555e-08
4.643e-10
2.41901e-08
4.65423e-10
2.39334e-08
4.50649e-10
2.36749e-08
4.5325e-10
2.34255e-08
4.37905e-10
2.31733e-08
4.42132e-10
2.29306e-08
4.26322e-10
2.26839e-08
4.3248e-10
2.2447e-08
4.16748e-10
2.22047e-08
4.24641e-10
2.1972e-08
4.10315e-10
2.17336e-08
4.17975e-10
4.16747e-10
9.30214e-08
5.86472e-09
-9.2865e-08
9.35314e-08
8.4523e-09
9.38001e-08
9.98786e-09
9.39677e-08
1.05525e-08
9.42008e-08
1.08464e-08
9.44345e-08
1.10009e-08
9.45225e-08
1.07971e-08
9.43617e-08
1.00536e-08
9.39388e-08
8.83975e-09
9.33487e-08
7.50181e-09
9.26958e-08
6.43538e-09
9.20058e-08
5.75854e-09
9.12628e-08
5.34986e-09
9.04639e-08
5.07484e-09
8.96187e-08
4.87165e-09
8.87338e-08
4.70925e-09
8.7812e-08
4.56996e-09
8.68545e-08
4.442e-09
8.5863e-08
4.31656e-09
8.48409e-08
4.18693e-09
8.37928e-08
4.05176e-09
8.27244e-08
3.91344e-09
8.16415e-08
3.77764e-09
8.05493e-08
3.64763e-09
7.94527e-08
3.52472e-09
7.83565e-08
3.40703e-09
7.72646e-08
3.29477e-09
7.61807e-08
3.18707e-09
7.51073e-08
3.0846e-09
7.40469e-08
2.98561e-09
7.30007e-08
2.89114e-09
7.197e-08
2.80054e-09
7.09548e-08
2.71606e-09
6.99555e-08
2.63632e-09
6.89714e-08
2.56255e-09
6.80028e-08
2.49212e-09
6.7049e-08
2.42604e-09
6.61107e-08
2.36122e-09
6.51878e-08
2.29918e-09
6.42814e-08
2.23721e-09
6.33914e-08
2.17823e-09
6.25187e-08
2.12006e-09
6.1663e-08
2.0659e-09
6.0825e-08
2.01192e-09
6.00042e-08
1.96123e-09
5.92012e-08
1.91052e-09
5.84147e-08
1.86368e-09
5.76452e-08
1.81634e-09
5.6891e-08
1.77341e-09
5.61525e-08
1.73056e-09
5.54275e-08
1.69264e-09
5.47167e-08
1.65376e-09
5.40185e-08
1.619e-09
5.3334e-08
1.5818e-09
5.26618e-08
1.5488e-09
5.2003e-08
1.5136e-09
5.13558e-08
1.48365e-09
5.07216e-08
1.45081e-09
5.00985e-08
1.42292e-09
4.94882e-08
1.39112e-09
4.88883e-08
1.36499e-09
4.83005e-08
1.33499e-09
4.77222e-08
1.31149e-09
4.71552e-08
1.28322e-09
4.65969e-08
1.26177e-09
4.60498e-08
1.23425e-09
4.55107e-08
1.21421e-09
4.49824e-08
1.18804e-09
4.44614e-08
1.17057e-09
4.39511e-08
1.14528e-09
4.34476e-08
1.12904e-09
4.29545e-08
1.10416e-09
4.24673e-08
1.09004e-09
4.19904e-08
1.06598e-09
4.15188e-08
1.05322e-09
4.10575e-08
1.02887e-09
4.06007e-08
1.01802e-09
4.01541e-08
9.94391e-10
3.97113e-08
9.85442e-10
3.92788e-08
9.61497e-10
3.88492e-08
9.5473e-10
3.843e-08
9.30886e-10
3.80128e-08
9.25915e-10
3.76065e-08
9.01247e-10
3.72011e-08
8.98513e-10
3.68071e-08
8.7321e-10
3.64128e-08
8.72878e-10
3.60303e-08
8.46778e-10
3.56464e-08
8.49397e-10
3.52748e-08
8.22202e-10
3.49004e-08
8.27701e-10
3.45391e-08
7.99134e-10
3.41734e-08
8.07852e-10
3.38217e-08
7.77979e-10
3.34637e-08
7.90491e-10
3.31205e-08
7.60033e-10
3.2769e-08
7.76129e-10
3.2432e-08
7.47255e-10
3.20863e-08
7.63703e-10
7.53961e-10
9.70458e-08
5.81777e-09
-9.69989e-08
9.75003e-08
7.99778e-09
9.78633e-08
9.62486e-09
9.81048e-08
1.0311e-08
9.84006e-08
1.05506e-08
9.87662e-08
1.06354e-08
9.91018e-08
1.04615e-08
9.92978e-08
9.85764e-09
9.93004e-08
8.83714e-09
9.91539e-08
7.64831e-09
9.89494e-08
6.63984e-09
9.87288e-08
5.97922e-09
9.84829e-08
5.5957e-09
9.82012e-08
5.35658e-09
9.78861e-08
5.18668e-09
9.75417e-08
5.05363e-09
9.7168e-08
4.94371e-09
9.67626e-08
4.84743e-09
9.63221e-08
4.75706e-09
9.58443e-08
4.66474e-09
9.53281e-08
4.56796e-09
9.47744e-08
4.46714e-09
9.41846e-08
4.36741e-09
9.35613e-08
4.27097e-09
9.29067e-08
4.17924e-09
9.22244e-08
4.08937e-09
9.15172e-08
4.00194e-09
9.07889e-08
3.91538e-09
9.00423e-08
3.83124e-09
8.92806e-08
3.74731e-09
8.85059e-08
3.66585e-09
8.77206e-08
3.58585e-09
8.69257e-08
3.51095e-09
8.61228e-08
3.43921e-09
8.5312e-08
3.37328e-09
8.44945e-08
3.30967e-09
8.36699e-08
3.25064e-09
8.28394e-08
3.19169e-09
8.20031e-08
3.13548e-09
8.11628e-08
3.07758e-09
8.03188e-08
3.02218e-09
7.94737e-08
2.9652e-09
7.86282e-08
2.91139e-09
7.77853e-08
2.85474e-09
7.69462e-08
2.8004e-09
7.61135e-08
2.74325e-09
7.52873e-08
2.68981e-09
7.44699e-08
2.63373e-09
7.36603e-08
2.58304e-09
7.28597e-08
2.53115e-09
7.20663e-08
2.48607e-09
7.12812e-08
2.43889e-09
7.05024e-08
2.39777e-09
6.97317e-08
2.35246e-09
6.89674e-08
2.31309e-09
6.82117e-08
2.26932e-09
6.74628e-08
2.23256e-09
6.67235e-08
2.19008e-09
6.59921e-08
2.15437e-09
6.52715e-08
2.11171e-09
6.45592e-08
2.0773e-09
6.38578e-08
2.03633e-09
6.31642e-08
2.00511e-09
6.24812e-08
1.96626e-09
6.1805e-08
1.93797e-09
6.11392e-08
1.90001e-09
6.04799e-08
1.87354e-09
5.9831e-08
1.83697e-09
5.91881e-08
1.81342e-09
5.85562e-08
1.77722e-09
5.79303e-08
1.75494e-09
5.73156e-08
1.71886e-09
5.67062e-08
1.69943e-09
5.6108e-08
1.6642e-09
5.55144e-08
1.64674e-09
5.49323e-08
1.61105e-09
5.43539e-08
1.59639e-09
5.37871e-08
1.5612e-09
5.32235e-08
1.54905e-09
5.26719e-08
1.51309e-09
5.21226e-08
1.50405e-09
5.15856e-08
1.4678e-09
5.105e-08
1.46153e-09
5.05274e-08
1.4239e-09
5.00048e-08
1.42104e-09
4.9496e-08
1.38209e-09
4.89859e-08
1.3829e-09
4.84904e-08
1.34235e-09
4.79921e-08
1.34766e-09
4.75093e-08
1.30505e-09
4.7022e-08
1.31497e-09
4.65513e-08
1.26984e-09
4.60742e-08
1.28492e-09
4.56149e-08
1.23729e-09
4.5147e-08
1.25838e-09
4.46978e-08
1.2092e-09
4.42379e-08
1.23605e-09
4.37966e-08
1.18854e-09
4.33438e-08
1.21656e-09
1.1937e-09
1.01249e-07
5.80685e-09
-1.01238e-07
1.01622e-07
7.62505e-09
1.02022e-07
9.22492e-09
1.0231e-07
1.00227e-08
1.02598e-07
1.02625e-08
1.02946e-07
1.0287e-08
1.03304e-07
1.01042e-08
1.03572e-07
9.58935e-09
1.03689e-07
8.72036e-09
1.03671e-07
7.66602e-09
1.03598e-07
6.71241e-09
1.03524e-07
6.054e-09
1.03449e-07
5.67003e-09
1.03363e-07
5.44281e-09
1.03263e-07
5.2869e-09
1.03152e-07
5.16451e-09
1.03031e-07
5.06442e-09
1.02899e-07
4.97987e-09
1.0275e-07
4.90555e-09
1.02582e-07
4.83324e-09
1.0239e-07
4.76013e-09
1.02172e-07
4.68472e-09
1.01928e-07
4.61172e-09
1.01657e-07
4.54194e-09
1.01359e-07
4.47714e-09
1.01035e-07
4.41321e-09
1.00686e-07
4.3512e-09
1.00313e-07
4.28832e-09
9.99172e-08
4.22697e-09
9.95006e-08
4.16394e-09
9.90637e-08
4.10271e-09
9.86083e-08
4.04129e-09
9.81345e-08
3.98479e-09
9.76435e-08
3.93021e-09
9.71348e-08
3.88198e-09
9.6609e-08
3.83544e-09
9.6065e-08
3.79467e-09
9.55031e-08
3.75355e-09
9.49221e-08
3.71652e-09
9.43225e-08
3.67713e-09
9.37035e-08
3.64121e-09
9.30666e-08
3.60211e-09
9.24118e-08
3.56621e-09
9.17421e-08
3.52437e-09
9.10588e-08
3.48372e-09
9.03658e-08
3.43625e-09
8.96643e-08
3.39134e-09
8.89581e-08
3.33994e-09
8.82472e-08
3.29388e-09
8.75345e-08
3.24387e-09
8.68185e-08
3.2021e-09
8.6101e-08
3.15633e-09
8.53798e-08
3.11895e-09
8.46568e-08
3.07552e-09
8.39294e-08
3.04052e-09
8.32e-08
2.99863e-09
8.24668e-08
2.96585e-09
8.17333e-08
2.9235e-09
8.09983e-08
2.88943e-09
8.02663e-08
2.84371e-09
7.95353e-08
2.80827e-09
7.88097e-08
2.76196e-09
7.80862e-08
2.72859e-09
7.73688e-08
2.68367e-09
7.6653e-08
2.65373e-09
7.59431e-08
2.60987e-09
7.52343e-08
2.58237e-09
7.45314e-08
2.53987e-09
7.38295e-08
2.51537e-09
7.31348e-08
2.47193e-09
7.2442e-08
2.44775e-09
7.17579e-08
2.40292e-09
7.1076e-08
2.38135e-09
7.04035e-08
2.33665e-09
6.97328e-08
2.31744e-09
6.9072e-08
2.27192e-09
6.84119e-08
2.25644e-09
6.77621e-08
2.21098e-09
6.71128e-08
2.19838e-09
6.64748e-08
2.15108e-09
6.58367e-08
2.1421e-09
6.5211e-08
2.09351e-09
6.45845e-08
2.08807e-09
6.39711e-08
2.03726e-09
6.33557e-08
2.03646e-09
6.27545e-08
1.98335e-09
6.21499e-08
1.98747e-09
6.15607e-08
1.93151e-09
6.09668e-08
1.9416e-09
6.03897e-08
1.88221e-09
5.98059e-08
1.89869e-09
5.92404e-08
1.83536e-09
5.86663e-08
1.85905e-09
5.81119e-08
1.79168e-09
5.75466e-08
1.82367e-09
5.70023e-08
1.75351e-09
5.64449e-08
1.79348e-09
5.59084e-08
1.72497e-09
5.53579e-08
1.7671e-09
1.7278e-09
1.05592e-07
5.79676e-09
-1.05582e-07
1.05888e-07
7.32929e-09
1.06289e-07
8.8237e-09
1.06619e-07
9.69317e-09
1.06909e-07
9.97213e-09
1.07231e-07
9.9651e-09
1.07571e-07
9.76479e-09
1.07849e-07
9.31092e-09
1.08002e-07
8.56759e-09
1.08027e-07
7.64101e-09
1.07989e-07
6.75055e-09
1.07947e-07
6.09596e-09
1.07916e-07
5.70118e-09
1.07885e-07
5.47332e-09
1.07849e-07
5.3225e-09
1.07811e-07
5.20263e-09
1.07773e-07
5.10267e-09
1.07735e-07
5.01802e-09
1.07694e-07
4.94666e-09
1.07647e-07
4.88051e-09
1.07589e-07
4.81727e-09
1.07521e-07
4.75356e-09
1.07438e-07
4.69412e-09
1.07342e-07
4.63814e-09
1.07231e-07
4.58819e-09
1.07105e-07
4.53881e-09
1.06965e-07
4.49198e-09
1.06809e-07
4.44347e-09
1.06639e-07
4.39689e-09
1.06456e-07
4.34768e-09
1.06258e-07
4.30084e-09
1.06046e-07
4.25283e-09
1.0582e-07
4.21047e-09
1.05581e-07
4.16915e-09
1.05328e-07
4.13536e-09
1.05061e-07
4.10287e-09
1.04777e-07
4.07807e-09
1.04478e-07
4.05301e-09
1.0416e-07
4.03457e-09
1.03823e-07
4.01413e-09
1.03464e-07
3.99988e-09
1.03084e-07
3.98229e-09
1.0268e-07
3.96995e-09
1.02254e-07
3.95003e-09
1.01806e-07
3.93181e-09
1.01339e-07
3.90332e-09
1.00854e-07
3.87683e-09
1.00354e-07
3.83953e-09
9.98408e-08
3.80734e-09
9.93172e-08
3.76744e-09
9.87824e-08
3.73693e-09
9.8239e-08
3.69977e-09
9.76843e-08
3.67358e-09
9.71204e-08
3.63943e-09
9.65436e-08
3.61732e-09
9.59559e-08
3.58639e-09
9.53535e-08
3.56817e-09
9.47402e-08
3.53689e-09
9.41134e-08
3.51614e-09
9.34789e-08
3.47827e-09
9.28349e-08
3.45229e-09
9.21874e-08
3.40946e-09
9.15338e-08
3.38215e-09
9.08796e-08
3.33784e-09
9.02203e-08
3.31309e-09
8.95606e-08
3.26955e-09
8.88947e-08
3.24827e-09
8.82277e-08
3.20688e-09
8.75535e-08
3.18957e-09
8.68791e-08
3.14627e-09
8.61989e-08
3.12796e-09
8.55214e-08
3.08049e-09
8.48398e-08
3.06291e-09
8.41632e-08
3.01322e-09
8.34834e-08
2.99729e-09
8.28094e-08
2.94589e-09
8.21311e-08
2.93475e-09
8.14589e-08
2.88321e-09
8.07818e-08
2.87548e-09
8.01122e-08
2.82067e-09
7.94379e-08
2.81641e-09
7.87731e-08
2.75826e-09
7.81037e-08
2.7575e-09
7.74453e-08
2.6957e-09
7.67811e-08
2.70066e-09
7.6129e-08
2.63546e-09
7.54699e-08
2.64657e-09
7.48244e-08
2.57693e-09
7.4171e-08
2.59504e-09
7.35332e-08
2.52003e-09
7.28859e-08
2.54596e-09
7.2256e-08
2.4653e-09
7.16147e-08
2.50035e-09
7.09923e-08
2.41401e-09
7.03567e-08
2.45933e-09
6.97415e-08
2.36874e-09
6.91111e-08
2.42385e-09
6.85012e-08
2.33484e-09
6.78753e-08
2.393e-09
2.33681e-09
1.10058e-07
5.77493e-09
-1.10037e-07
1.10292e-07
7.09545e-09
1.10673e-07
8.44333e-09
1.1103e-07
9.33608e-09
1.11333e-07
9.6685e-09
1.1164e-07
9.65876e-09
1.11957e-07
9.44779e-09
1.12232e-07
9.03598e-09
1.12403e-07
8.39577e-09
1.12456e-07
7.58864e-09
1.12435e-07
6.7717e-09
1.12401e-07
6.12982e-09
1.12379e-07
5.72315e-09
1.12363e-07
5.4887e-09
1.12346e-07
5.33985e-09
1.12327e-07
5.22132e-09
1.1231e-07
5.11974e-09
1.12297e-07
5.03135e-09
1.12286e-07
4.95785e-09
1.12275e-07
4.89154e-09
1.12261e-07
4.83132e-09
1.12242e-07
4.77192e-09
1.12218e-07
4.71846e-09
1.12188e-07
4.66825e-09
1.12151e-07
4.62501e-09
1.12108e-07
4.58174e-09
1.12058e-07
4.54184e-09
1.12002e-07
4.49936e-09
1.1194e-07
4.45964e-09
1.11871e-07
4.41646e-09
1.11795e-07
4.3767e-09
1.11713e-07
4.33489e-09
1.11624e-07
4.29982e-09
1.11528e-07
4.26481e-09
1.11425e-07
4.23868e-09
1.11314e-07
4.21314e-09
1.11195e-07
4.19725e-09
1.11067e-07
4.18085e-09
1.10928e-07
4.17383e-09
1.10777e-07
4.16516e-09
1.10611e-07
4.16615e-09
1.10429e-07
4.16415e-09
1.10228e-07
4.17082e-09
1.10009e-07
4.16941e-09
1.09769e-07
4.17199e-09
1.0951e-07
4.16193e-09
1.09232e-07
4.15471e-09
1.08939e-07
4.13286e-09
1.0863e-07
4.11651e-09
1.08308e-07
4.08851e-09
1.07974e-07
4.07119e-09
1.0763e-07
4.04404e-09
1.07273e-07
4.03059e-09
1.06905e-07
4.00691e-09
1.06523e-07
3.99952e-09
1.06128e-07
3.98187e-09
1.05714e-07
3.98213e-09
1.05284e-07
3.96714e-09
1.04833e-07
3.96678e-09
1.04367e-07
3.94453e-09
1.03882e-07
3.93648e-09
1.03387e-07
3.90492e-09
1.02878e-07
3.89112e-09
1.02362e-07
3.85354e-09
1.01836e-07
3.83961e-09
1.01304e-07
3.80119e-09
1.00761e-07
3.79142e-09
1.00211e-07
3.75676e-09
9.9647e-08
3.75371e-09
9.90751e-08
3.71825e-09
9.84886e-08
3.71444e-09
9.78966e-08
3.67246e-09
9.72929e-08
3.66666e-09
9.66877e-08
3.61839e-09
9.60733e-08
3.6117e-09
9.54598e-08
3.5594e-09
9.48365e-08
3.55803e-09
9.42138e-08
3.50593e-09
9.35797e-08
3.50955e-09
9.29468e-08
3.45356e-09
9.23027e-08
3.46054e-09
9.16625e-08
3.39845e-09
9.10124e-08
3.40756e-09
9.0369e-08
3.33917e-09
8.97153e-08
3.35434e-09
8.90692e-08
3.2815e-09
8.84115e-08
3.30427e-09
8.77628e-08
3.2257e-09
8.71017e-08
3.25614e-09
8.6452e-08
3.1697e-09
8.57896e-08
3.20839e-09
8.51406e-08
3.11424e-09
8.44775e-08
3.1635e-09
8.38292e-08
3.06229e-09
8.31652e-08
3.12331e-09
8.25175e-08
3.01647e-09
8.18532e-08
3.08814e-09
8.12052e-08
2.98287e-09
8.05403e-08
3.05786e-09
2.98842e-09
1.14647e-07
5.74228e-09
-1.14614e-07
1.14837e-07
6.90524e-09
1.15185e-07
8.09582e-09
1.15553e-07
8.96801e-09
1.15873e-07
9.34806e-09
1.16174e-07
9.35815e-09
1.16471e-07
9.15058e-09
1.16737e-07
8.77035e-09
1.1692e-07
8.21237e-09
1.16997e-07
7.51219e-09
1.16993e-07
6.77573e-09
1.16965e-07
6.15728e-09
1.16946e-07
5.7424e-09
1.16936e-07
5.49821e-09
1.16927e-07
5.34927e-09
1.16916e-07
5.23263e-09
1.16905e-07
5.13064e-09
1.16897e-07
5.03854e-09
1.16894e-07
4.96173e-09
1.16892e-07
4.89295e-09
1.1689e-07
4.83305e-09
1.16888e-07
4.7748e-09
1.16882e-07
4.72416e-09
1.16874e-07
4.67616e-09
1.16863e-07
4.63601e-09
1.1685e-07
4.59487e-09
1.16834e-07
4.55793e-09
1.16816e-07
4.51726e-09
1.16795e-07
4.48032e-09
1.16773e-07
4.43886e-09
1.16747e-07
4.40207e-09
1.1672e-07
4.36213e-09
1.1669e-07
4.33016e-09
1.16658e-07
4.29691e-09
1.16623e-07
4.2739e-09
1.16585e-07
4.25021e-09
1.16545e-07
4.23791e-09
1.16501e-07
4.22414e-09
1.16453e-07
4.22218e-09
1.164e-07
4.21819e-09
1.16339e-07
4.22713e-09
1.1627e-07
4.23301e-09
1.1619e-07
4.25121e-09
1.16098e-07
4.26101e-09
1.15992e-07
4.27798e-09
1.15874e-07
4.28062e-09
1.1574e-07
4.28803e-09
1.15596e-07
4.27762e-09
1.15438e-07
4.27396e-09
1.15272e-07
4.25491e-09
1.15095e-07
4.24823e-09
1.1491e-07
4.22835e-09
1.14716e-07
4.22489e-09
1.14514e-07
4.20847e-09
1.14302e-07
4.21247e-09
1.14079e-07
4.20457e-09
1.13841e-07
4.22041e-09
1.13588e-07
4.21978e-09
1.13315e-07
4.23954e-09
1.13026e-07
4.23408e-09
1.12716e-07
4.24646e-09
1.12391e-07
4.22925e-09
1.1205e-07
4.23237e-09
1.11699e-07
4.20458e-09
1.11335e-07
4.20395e-09
1.10963e-07
4.17237e-09
1.10579e-07
4.17539e-09
1.10187e-07
4.1489e-09
1.09779e-07
4.16245e-09
1.09358e-07
4.13865e-09
1.08918e-07
4.15451e-09
1.08466e-07
4.12435e-09
1.07996e-07
4.13678e-09
1.07518e-07
4.09616e-09
1.07026e-07
4.10372e-09
1.06531e-07
4.05496e-09
1.06022e-07
4.06683e-09
1.05509e-07
4.01842e-09
1.04981e-07
4.03793e-09
1.04448e-07
3.98705e-09
1.03897e-07
4.01141e-09
1.03343e-07
3.9525e-09
1.02773e-07
3.97689e-09
1.02205e-07
3.90772e-09
1.01622e-07
3.93683e-09
1.01042e-07
3.86175e-09
1.00446e-07
3.90009e-09
9.98527e-08
3.81927e-09
9.92424e-08
3.86638e-09
9.86367e-08
3.77546e-09
9.8015e-08
3.83001e-09
9.74005e-08
3.72873e-09
9.67699e-08
3.79414e-09
9.6147e-08
3.68514e-09
9.55069e-08
3.76344e-09
9.48751e-08
3.64824e-09
9.42265e-08
3.73681e-09
9.3586e-08
3.62331e-09
9.29297e-08
3.71422e-09
3.63942e-09
1.19371e-07
5.70542e-09
-1.19334e-07
1.19533e-07
6.74312e-09
1.19845e-07
7.78438e-09
1.20209e-07
8.60351e-09
1.20544e-07
9.01333e-09
1.20845e-07
9.05724e-09
1.21127e-07
8.86823e-09
1.2138e-07
8.51697e-09
1.21569e-07
8.02399e-09
1.21665e-07
7.41549e-09
1.2168e-07
6.76106e-09
1.21661e-07
6.17626e-09
1.21644e-07
5.75928e-09
1.21638e-07
5.50424e-09
1.21635e-07
5.35288e-09
1.21629e-07
5.23819e-09
1.21622e-07
5.13755e-09
1.21618e-07
5.04293e-09
1.21616e-07
4.96306e-09
1.21618e-07
4.89108e-09
1.21621e-07
4.83033e-09
1.21624e-07
4.77175e-09
1.21626e-07
4.72254e-09
1.21627e-07
4.67526e-09
1.21626e-07
4.6368e-09
1.21624e-07
4.59623e-09
1.21622e-07
4.56082e-09
1.21618e-07
4.52042e-09
1.21614e-07
4.48485e-09
1.21609e-07
4.44361e-09
1.21603e-07
4.40838e-09
1.21596e-07
4.3687e-09
1.21588e-07
4.33829e-09
1.2158e-07
4.30505e-09
1.21571e-07
4.28336e-09
1.21561e-07
4.2594e-09
1.21551e-07
4.24839e-09
1.21541e-07
4.23437e-09
1.21529e-07
4.23419e-09
1.21516e-07
4.23083e-09
1.215e-07
4.24312e-09
1.21481e-07
4.25151e-09
1.21457e-07
4.27546e-09
1.21428e-07
4.29029e-09
1.2139e-07
4.31556e-09
1.21346e-07
4.32493e-09
1.21293e-07
4.34153e-09
1.21233e-07
4.33758e-09
1.21164e-07
4.34222e-09
1.21091e-07
4.32808e-09
1.21011e-07
4.32835e-09
1.20927e-07
4.3121e-09
1.20837e-07
4.31492e-09
1.20744e-07
4.3017e-09
1.20644e-07
4.3125e-09
1.20539e-07
4.30914e-09
1.20425e-07
4.33489e-09
1.20302e-07
4.34306e-09
1.20163e-07
4.37785e-09
1.20012e-07
4.38528e-09
1.19843e-07
4.41514e-09
1.19662e-07
4.41055e-09
1.19465e-07
4.42937e-09
1.19259e-07
4.4109e-09
1.1904e-07
4.42276e-09
1.18815e-07
4.39713e-09
1.1858e-07
4.41085e-09
1.18338e-07
4.39045e-09
1.18083e-07
4.41808e-09
1.17816e-07
4.40491e-09
1.17531e-07
4.43999e-09
1.17232e-07
4.42348e-09
1.16912e-07
4.45627e-09
1.16581e-07
4.42701e-09
1.16234e-07
4.45118e-09
1.1588e-07
4.40876e-09
1.15513e-07
4.43432e-09
1.1514e-07
4.39126e-09
1.14751e-07
4.42703e-09
1.14353e-07
4.38472e-09
1.13935e-07
4.42919e-09
1.13508e-07
4.37956e-09
1.13062e-07
4.42289e-09
1.12611e-07
4.35885e-09
1.12144e-07
4.40363e-09
1.11675e-07
4.3311e-09
1.11189e-07
4.38606e-09
1.10699e-07
4.30932e-09
1.1019e-07
4.37554e-09
1.09677e-07
4.28832e-09
1.09146e-07
4.36058e-09
1.08615e-07
4.25999e-09
1.08068e-07
4.34142e-09
1.0752e-07
4.23299e-09
1.06955e-07
4.32822e-09
1.06389e-07
4.21484e-09
1.05806e-07
4.31928e-09
1.05221e-07
4.20817e-09
1.04623e-07
4.31213e-09
4.24249e-09
1.24249e-07
5.6693e-09
-1.24213e-07
1.24394e-07
6.59832e-09
1.24673e-07
7.50611e-09
1.25024e-07
8.25223e-09
1.25366e-07
8.67117e-09
1.2567e-07
8.75299e-09
1.25943e-07
8.59565e-09
1.26184e-07
8.27613e-09
1.26371e-07
7.83616e-09
1.26483e-07
7.30378e-09
1.26517e-07
6.7274e-09
1.26508e-07
6.18462e-09
1.26495e-07
5.77274e-09
1.26491e-07
5.50783e-09
1.26493e-07
5.35171e-09
1.26493e-07
5.23823e-09
1.2649e-07
5.14032e-09
1.26488e-07
5.04468e-09
1.26489e-07
4.96255e-09
1.26492e-07
4.88733e-09
1.26497e-07
4.82515e-09
1.26504e-07
4.76534e-09
1.2651e-07
4.71672e-09
1.26516e-07
4.66942e-09
1.2652e-07
4.632e-09
1.26525e-07
4.59138e-09
1.26529e-07
4.557e-09
1.26533e-07
4.51645e-09
1.26536e-07
4.48192e-09
1.26539e-07
4.44061e-09
1.26541e-07
4.40669e-09
1.26542e-07
4.36703e-09
1.26543e-07
4.3379e-09
1.26543e-07
4.30438e-09
1.26543e-07
4.28368e-09
1.26543e-07
4.25904e-09
1.26543e-07
4.24877e-09
1.26544e-07
4.23379e-09
1.26543e-07
4.23432e-09
1.26544e-07
4.23009e-09
1.26544e-07
4.24366e-09
1.26543e-07
4.25195e-09
1.2654e-07
4.27837e-09
1.26536e-07
4.29453e-09
1.26528e-07
4.324e-09
1.26517e-07
4.33604e-09
1.265e-07
4.35782e-09
1.26481e-07
4.35675e-09
1.26457e-07
4.36631e-09
1.26431e-07
4.35421e-09
1.26401e-07
4.3586e-09
1.26369e-07
4.34351e-09
1.26334e-07
4.34993e-09
1.26299e-07
4.33729e-09
1.2626e-07
4.35153e-09
1.2622e-07
4.34898e-09
1.26175e-07
4.3797e-09
1.26127e-07
4.39143e-09
1.26069e-07
4.43526e-09
1.26004e-07
4.45022e-09
1.25927e-07
4.4922e-09
1.25841e-07
4.49618e-09
1.25744e-07
4.52674e-09
1.2564e-07
4.51506e-09
1.25526e-07
4.53658e-09
1.25408e-07
4.51499e-09
1.25283e-07
4.53604e-09
1.25155e-07
4.51857e-09
1.25018e-07
4.55544e-09
1.24873e-07
4.54916e-09
1.24715e-07
4.59881e-09
1.24544e-07
4.59376e-09
1.24356e-07
4.64429e-09
1.24157e-07
4.62671e-09
1.23941e-07
4.66643e-09
1.23719e-07
4.63126e-09
1.23485e-07
4.66842e-09
1.23246e-07
4.63029e-09
1.22994e-07
4.67888e-09
1.22733e-07
4.64513e-09
1.22455e-07
4.70768e-09
1.22164e-07
4.67031e-09
1.21854e-07
4.73273e-09
1.21535e-07
4.67837e-09
1.212e-07
4.73803e-09
1.2086e-07
4.67141e-09
1.20506e-07
4.74046e-09
1.20143e-07
4.67177e-09
1.19763e-07
4.75587e-09
1.19372e-07
4.67939e-09
1.18963e-07
4.76895e-09
1.18547e-07
4.67676e-09
1.18117e-07
4.77159e-09
1.17678e-07
4.67118e-09
1.17226e-07
4.78025e-09
1.16763e-07
4.67841e-09
1.16286e-07
4.79612e-09
1.15796e-07
4.6984e-09
1.15297e-07
4.8109e-09
4.75664e-09
1.29301e-07
5.64641e-09
-1.29278e-07
1.29433e-07
6.46548e-09
1.29684e-07
7.25542e-09
1.30018e-07
7.91876e-09
1.30359e-07
8.32941e-09
1.30667e-07
8.44521e-09
1.30934e-07
8.32846e-09
1.31165e-07
8.04599e-09
1.31348e-07
7.65227e-09
1.3147e-07
7.1823e-09
1.31521e-07
6.6759e-09
1.31526e-07
6.18048e-09
1.31517e-07
5.78135e-09
1.31515e-07
5.50933e-09
1.3152e-07
5.34675e-09
1.31525e-07
5.23311e-09
1.31527e-07
5.13861e-09
1.31528e-07
5.04344e-09
1.31531e-07
4.96007e-09
1.31536e-07
4.88201e-09
1.31543e-07
4.81819e-09
1.31552e-07
4.75667e-09
1.31561e-07
4.70797e-09
1.3157e-07
4.66021e-09
1.31578e-07
4.62347e-09
1.31587e-07
4.58257e-09
1.31595e-07
4.54896e-09
1.31603e-07
4.50822e-09
1.31611e-07
4.47466e-09
1.31618e-07
4.43337e-09
1.31624e-07
4.40077e-09
1.3163e-07
4.36131e-09
1.31634e-07
4.33351e-09
1.31638e-07
4.29991e-09
1.31642e-07
4.28025e-09
1.31646e-07
4.25516e-09
1.31649e-07
4.24568e-09
1.31653e-07
4.2299e-09
1.31656e-07
4.23094e-09
1.31661e-07
4.22566e-09
1.31664e-07
4.23973e-09
1.31669e-07
4.24701e-09
1.31674e-07
4.27425e-09
1.31678e-07
4.28996e-09
1.31681e-07
4.32124e-09
1.31683e-07
4.33379e-09
1.31683e-07
4.35824e-09
1.31681e-07
4.35816e-09
1.31677e-07
4.37058e-09
1.31672e-07
4.35918e-09
1.31665e-07
4.36608e-09
1.31657e-07
4.35121e-09
1.31647e-07
4.3598e-09
1.31637e-07
4.34687e-09
1.31626e-07
4.36284e-09
1.31615e-07
4.35957e-09
1.31603e-07
4.39229e-09
1.3159e-07
4.40449e-09
1.31572e-07
4.4527e-09
1.31552e-07
4.471e-09
1.31524e-07
4.51993e-09
1.31491e-07
4.52863e-09
1.31452e-07
4.56648e-09
1.31408e-07
4.55891e-09
1.31358e-07
4.58677e-09
1.31305e-07
4.56762e-09
1.31248e-07
4.59295e-09
1.3119e-07
4.57623e-09
1.31128e-07
4.61775e-09
1.31063e-07
4.61477e-09
1.30988e-07
4.67311e-09
1.30906e-07
4.67568e-09
1.30812e-07
4.73856e-09
1.30708e-07
4.73056e-09
1.30592e-07
4.78215e-09
1.3047e-07
4.75378e-09
1.30339e-07
4.79903e-09
1.30205e-07
4.76474e-09
1.30063e-07
4.82104e-09
1.29914e-07
4.79386e-09
1.29753e-07
4.869e-09
1.29579e-07
4.8436e-09
1.29391e-07
4.92155e-09
1.2919e-07
4.87909e-09
1.28977e-07
4.95056e-09
1.28757e-07
4.89174e-09
1.28528e-07
4.96994e-09
1.28289e-07
4.91054e-09
1.28037e-07
5.00766e-09
1.2777e-07
4.94588e-09
1.2749e-07
5.04961e-09
1.27195e-07
4.9718e-09
1.26891e-07
5.07564e-09
1.26574e-07
4.98822e-09
1.26248e-07
5.10563e-09
1.25905e-07
5.02185e-09
1.25552e-07
5.1487e-09
1.25178e-07
5.07317e-09
1.24799e-07
5.18924e-09
5.15716e-09
1.34541e-07
5.61099e-09
-1.34506e-07
1.34667e-07
6.34002e-09
1.34894e-07
7.02751e-09
1.3521e-07
7.60372e-09
1.35545e-07
7.99401e-09
1.35853e-07
8.13672e-09
1.36118e-07
8.06378e-09
1.36341e-07
7.82349e-09
1.3652e-07
7.4733e-09
1.36647e-07
7.05528e-09
1.36713e-07
6.60943e-09
1.36731e-07
6.16267e-09
1.36729e-07
5.78365e-09
1.36729e-07
5.50851e-09
1.36737e-07
5.33885e-09
1.36747e-07
5.22358e-09
1.36753e-07
5.13232e-09
1.36758e-07
5.03891e-09
1.36762e-07
4.95543e-09
1.36769e-07
4.87526e-09
1.36777e-07
4.80992e-09
1.36787e-07
4.74656e-09
1.36798e-07
4.69724e-09
1.3681e-07
4.64875e-09