/*--------------------------------*- C++ -*----------------------------------*\
| =========                 |                                                 |
| \\      /  F ield         | OpenFOAM: The Open Source CFD Toolbox           |
|  \\    /   O peration     | Version:  5.x                                   |
|   \\  /    A nd           | Web:      www.OpenFOAM.org                      |
|    \\/     M anipulation  |                                                 |
\*---------------------------------------------------------------------------*/
FoamFile
{
    version     2.0;
    format      ascii;
    class       volVectorField;
    location    "0.9";
    object      U;
}
// * * * * * * * * * * * * * * * * * * * * * * * * * * * * * * * * * * * * * //

dimensions      [0 1 -1 0 0 0 0];

internalField   nonuniform List<vector> 
10800
(
(0.913618 0.0111754 0)
(0.818756 0.014475 0)
(0.724673 0.0141766 0)
(0.630046 0.0130104 0)
(0.536092 0.0118188 0)
(0.445996 0.0102043 0)
(0.365463 0.00789529 0)
(0.301364 0.00474167 0)
(0.257334 0.00172721 0)
(0.229636 -5.42239e-06 0)
(0.211715 -0.000533251 0)
(0.199507 -0.000562847 0)
(0.190784 -0.000447382 0)
(0.184 -0.000284023 0)
(0.178135 -0.000120877 0)
(0.172648 6.91928e-06 0)
(0.167332 9.0371e-05 0)
(0.162139 0.000135426 0)
(0.157123 0.000152978 0)
(0.152336 0.000153892 0)
(0.147841 0.000146365 0)
(0.143648 0.000135698 0)
(0.139763 0.00012482 0)
(0.136143 0.000115049 0)
(0.132768 0.000106557 0)
(0.12959 9.90772e-05 0)
(0.126601 9.24383e-05 0)
(0.123763 8.66055e-05 0)
(0.121078 8.14034e-05 0)
(0.118511 7.65463e-05 0)
(0.116074 7.18744e-05 0)
(0.113738 6.74342e-05 0)
(0.111517 6.34127e-05 0)
(0.109378 5.98245e-05 0)
(0.107337 5.66142e-05 0)
(0.105359 5.36517e-05 0)
(0.10347 5.09324e-05 0)
(0.101632 4.83746e-05 0)
(0.0998767 4.59619e-05 0)
(0.0981643 4.35953e-05 0)
(0.0965307 4.13584e-05 0)
(0.0949316 3.92621e-05 0)
(0.0934056 3.74537e-05 0)
(0.0919027 3.57552e-05 0)
(0.0904689 3.4154e-05 0)
(0.0890509 3.25972e-05 0)
(0.0877013 3.11691e-05 0)
(0.0863611 2.96914e-05 0)
(0.0850909 2.8314e-05 0)
(0.0838236 2.69859e-05 0)
(0.082626 2.58277e-05 0)
(0.0814223 2.47001e-05 0)
(0.0802888 2.37089e-05 0)
(0.0791419 2.26632e-05 0)
(0.078069 2.17105e-05 0)
(0.0769756 2.07359e-05 0)
(0.0759588 1.99482e-05 0)
(0.0749115 1.9153e-05 0)
(0.0739439 1.84823e-05 0)
(0.0729373 1.77177e-05 0)
(0.0720175 1.70431e-05 0)
(0.0710504 1.63074e-05 0)
(0.0701768 1.5724e-05 0)
(0.0692453 1.50608e-05 0)
(0.0684148 1.45445e-05 0)
(0.0675153 1.39197e-05 0)
(0.0667272 1.34073e-05 0)
(0.0658578 1.28276e-05 0)
(0.0651094 1.24438e-05 0)
(0.0642641 1.19517e-05 0)
(0.0635525 1.15813e-05 0)
(0.0627293 1.10805e-05 0)
(0.0620551 1.07564e-05 0)
(0.0612507 1.03269e-05 0)
(0.0606122 1.00298e-05 0)
(0.0598245 9.56907e-06 0)
(0.0592238 9.28844e-06 0)
(0.0584499 8.90286e-06 0)
(0.0578852 8.67276e-06 0)
(0.0571211 8.28498e-06 0)
(0.0565934 8.08587e-06 0)
(0.0558349 7.75661e-06 0)
(0.0553441 7.57292e-06 0)
(0.0545878 7.23829e-06 0)
(0.0541367 7.0699e-06 0)
(0.0533785 6.76476e-06 0)
(0.0529692 6.60525e-06 0)
(0.0522042 6.3286e-06 0)
(0.0518391 6.1932e-06 0)
(0.0510606 5.95573e-06 0)
(0.050743 5.81611e-06 0)
(0.049944 5.61681e-06 0)
(0.0496792 5.46135e-06 0)
(0.0488515 5.31128e-06 0)
(0.0486453 5.13588e-06 0)
(0.0477777 5.07598e-06 0)
(0.0476368 4.84709e-06 0)
(0.0467145 4.93442e-06 0)
(0.0466476 4.56599e-06 0)
(0.0456492 5.12088e-06 0)
(0.968356 0.019151 0)
(0.960735 0.0265796 0)
(0.947048 0.0279148 0)
(0.925412 0.0274612 0)
(0.8953 0.0268368 0)
(0.857575 0.0256011 0)
(0.814803 0.023225 0)
(0.770543 0.019251 0)
(0.728622 0.0143526 0)
(0.69082 0.00995944 0)
(0.656654 0.00690092 0)
(0.625635 0.00495586 0)
(0.597679 0.00370989 0)
(0.572598 0.00293995 0)
(0.550018 0.00247967 0)
(0.529517 0.0021954 0)
(0.510791 0.00200001 0)
(0.493542 0.00184338 0)
(0.477608 0.00169893 0)
(0.462824 0.00155686 0)
(0.449135 0.00141829 0)
(0.43642 0.00128894 0)
(0.424627 0.00117393 0)
(0.413612 0.00107492 0)
(0.403325 0.000990061 0)
(0.39363 0.000916064 0)
(0.38451 0.000850659 0)
(0.375849 0.000792436 0)
(0.367659 0.000740332 0)
(0.359839 0.000692894 0)
(0.352423 0.000649305 0)
(0.345309 0.000609079 0)
(0.338546 0.000572594 0)
(0.332026 0.000539446 0)
(0.325809 0.000509352 0)
(0.319785 0.000481424 0)
(0.314033 0.000455642 0)
(0.30844 0.000431433 0)
(0.303101 0.00040893 0)
(0.297894 0.000387548 0)
(0.29293 0.000367736 0)
(0.288067 0.000349157 0)
(0.283431 0.00033241 0)
(0.278867 0.000316563 0)
(0.274518 0.000301828 0)
(0.270218 0.000287648 0)
(0.26613 0.000274574 0)
(0.262068 0.000261695 0)
(0.258219 0.000249828 0)
(0.254373 0.000238385 0)
(0.250739 0.000228091 0)
(0.247084 0.000218033 0)
(0.243645 0.000208945 0)
(0.240163 0.000199768 0)
(0.236908 0.000191458 0)
(0.233586 0.000183141 0)
(0.230499 0.000175948 0)
(0.227318 0.000168679 0)
(0.224385 0.000162298 0)
(0.221332 0.000155524 0)
(0.218545 0.000149568 0)
(0.215611 0.000143294 0)
(0.212963 0.000138023 0)
(0.210136 0.000132311 0)
(0.207619 0.000127584 0)
(0.204888 0.00012227 0)
(0.202498 0.000117891 0)
(0.199855 0.000113028 0)
(0.197584 0.000109343 0)
(0.195016 0.000104949 0)
(0.19286 0.000101538 0)
(0.19036 9.73257e-05 0)
(0.188316 9.43109e-05 0)
(0.185873 9.04828e-05 0)
(0.18394 8.77403e-05 0)
(0.181548 8.39725e-05 0)
(0.179727 8.15201e-05 0)
(0.177375 7.81309e-05 0)
(0.175664 7.6012e-05 0)
(0.173342 7.27302e-05 0)
(0.171743 7.09038e-05 0)
(0.169439 6.78886e-05 0)
(0.167954 6.62653e-05 0)
(0.165657 6.33099e-05 0)
(0.164292 6.19131e-05 0)
(0.16199 5.91114e-05 0)
(0.160752 5.79161e-05 0)
(0.158429 5.5256e-05 0)
(0.157325 5.43088e-05 0)
(0.154962 5.17931e-05 0)
(0.154004 5.1004e-05 0)
(0.151581 4.86208e-05 0)
(0.150784 4.79649e-05 0)
(0.148276 4.57496e-05 0)
(0.147657 4.52316e-05 0)
(0.145031 4.33118e-05 0)
(0.144612 4.28343e-05 0)
(0.141828 4.14124e-05 0)
(0.141634 4.0686e-05 0)
(0.138641 4.14364e-05 0)
(0.972339 0.0182092 0)
(0.972966 0.0257868 0)
(0.975278 0.0285937 0)
(0.976357 0.029239 0)
(0.974365 0.0294824 0)
(0.968498 0.0292321 0)
(0.958715 0.0278096 0)
(0.945411 0.0246904 0)
(0.929557 0.0203704 0)
(0.912219 0.0161149 0)
(0.893946 0.0129202 0)
(0.875106 0.0108086 0)
(0.856192 0.00937844 0)
(0.837498 0.00835081 0)
(0.819152 0.00756303 0)
(0.801105 0.00691776 0)
(0.783399 0.00635977 0)
(0.765971 0.00585761 0)
(0.7489 0.00539091 0)
(0.732165 0.00494793 0)
(0.715895 0.00452746 0)
(0.700078 0.00413579 0)
(0.684835 0.00378125 0)
(0.670104 0.00346753 0)
(0.655977 0.00319248 0)
(0.642353 0.00294997 0)
(0.629314 0.0027352 0)
(0.616735 0.0025437 0)
(0.604702 0.00237209 0)
(0.593073 0.00221629 0)
(0.58195 0.00207455 0)
(0.571175 0.001945 0)
(0.560862 0.00182779 0)
(0.550837 0.00172107 0)
(0.54123 0.00162417 0)
(0.531853 0.00153447 0)
(0.522863 0.00145168 0)
(0.51406 0.00137379 0)
(0.50563 0.00130136 0)
(0.497356 0.00123284 0)
(0.489448 0.00116963 0)
(0.481663 0.00111042 0)
(0.474232 0.00105656 0)
(0.466885 0.00100558 0)
(0.459886 0.000958412 0)
(0.452935 0.000913217 0)
(0.446329 0.000871539 0)
(0.439738 0.000830994 0)
(0.433493 0.000793754 0)
(0.427223 0.000757849 0)
(0.421304 0.00072529 0)
(0.41532 0.000693422 0)
(0.409697 0.000664381 0)
(0.403976 0.000635337 0)
(0.398635 0.000609042 0)
(0.393159 0.000582882 0)
(0.388082 0.000559851 0)
(0.382826 0.000536592 0)
(0.377995 0.000515972 0)
(0.372942 0.000494485 0)
(0.368344 0.000475607 0)
(0.363477 0.000455902 0)
(0.359099 0.000439086 0)
(0.354398 0.000421093 0)
(0.350229 0.00040595 0)
(0.34568 0.000389246 0)
(0.341715 0.000375435 0)
(0.337303 0.000360177 0)
(0.333531 0.000348199 0)
(0.329239 0.000334194 0)
(0.325655 0.00032323 0)
(0.321471 0.000310014 0)
(0.31807 0.000300293 0)
(0.313978 0.000288097 0)
(0.310759 0.000279281 0)
(0.306746 0.000267542 0)
(0.30371 0.000259741 0)
(0.29976 0.000248957 0)
(0.296906 0.000242134 0)
(0.293003 0.000231792 0)
(0.290335 0.000225909 0)
(0.28646 0.000216212 0)
(0.283981 0.000211046 0)
(0.280116 0.000201618 0)
(0.277837 0.000197245 0)
(0.273961 0.000188209 0)
(0.271893 0.000184581 0)
(0.26798 0.000175887 0)
(0.266137 0.000173085 0)
(0.262157 0.000164676 0)
(0.260559 0.00016255 0)
(0.256479 0.000154376 0)
(0.25515 0.000152912 0)
(0.250928 0.000145021 0)
(0.249899 0.000144264 0)
(0.245484 0.000136865 0)
(0.244789 0.000136666 0)
(0.240118 0.000130175 0)
(0.239795 0.000129878 0)
(0.234803 0.00012836 0)
(0.976678 0.0171409 0)
(0.976955 0.0237441 0)
(0.980046 0.0271882 0)
(0.984258 0.0283328 0)
(0.988072 0.0287243 0)
(0.990769 0.0286483 0)
(0.992058 0.0276105 0)
(0.99157 0.0251598 0)
(0.989099 0.0215999 0)
(0.984627 0.0178785 0)
(0.978491 0.0149411 0)
(0.971081 0.0130081 0)
(0.96297 0.0117723 0)
(0.954407 0.0109021 0)
(0.945594 0.0102154 0)
(0.936437 0.00962892 0)
(0.927001 0.00910496 0)
(0.917149 0.00862118 0)
(0.906981 0.00815911 0)
(0.896396 0.0077042 0)
(0.88556 0.00725297 0)
(0.874403 0.00681118 0)
(0.863128 0.0063902 0)
(0.851652 0.00599706 0)
(0.840184 0.00563353 0)
(0.828614 0.00529583 0)
(0.817157 0.00498273 0)
(0.805676 0.00469192 0)
(0.79439 0.00442268 0)
(0.78313 0.00417121 0)
(0.77212 0.00393729 0)
(0.761156 0.00371917 0)
(0.750473 0.00351853 0)
(0.739831 0.00333279 0)
(0.729484 0.00316214 0)
(0.719161 0.00300251 0)
(0.709141 0.00285405 0)
(0.699127 0.00271281 0)
(0.689436 0.00257999 0)
(0.679743 0.00245261 0)
(0.670401 0.00233366 0)
(0.661048 0.00222079 0)
(0.652072 0.00211693 0)
(0.643072 0.00201782 0)
(0.634475 0.00192593 0)
(0.625831 0.00183769 0)
(0.617611 0.0017563 0)
(0.609311 0.00167728 0)
(0.601453 0.0016048 0)
(0.593469 0.00153477 0)
(0.585941 0.00147113 0)
(0.578239 0.00140861 0)
(0.571015 0.0013514 0)
(0.563573 0.00129401 0)
(0.556643 0.00124188 0)
(0.549451 0.00118982 0)
(0.542809 0.00114364 0)
(0.535853 0.00109685 0)
(0.529492 0.00105525 0)
(0.522763 0.00101209 0)
(0.516679 0.000974234 0)
(0.510159 0.000934752 0)
(0.504338 0.000900902 0)
(0.498007 0.00086475 0)
(0.492435 0.000834164 0)
(0.486275 0.000800506 0)
(0.48095 0.000772639 0)
(0.474946 0.000741776 0)
(0.46986 0.000717253 0)
(0.463996 0.000688712 0)
(0.45915 0.00066635 0)
(0.453413 0.000639545 0)
(0.448802 0.000619669 0)
(0.443171 0.000594761 0)
(0.438795 0.000576755 0)
(0.433256 0.000552937 0)
(0.429117 0.000536998 0)
(0.423648 0.000514874 0)
(0.419751 0.000500869 0)
(0.414333 0.000479704 0)
(0.410683 0.000467603 0)
(0.405292 0.000447588 0)
(0.401898 0.00043703 0)
(0.39651 0.000417601 0)
(0.393385 0.000408703 0)
(0.387972 0.000389967 0)
(0.385134 0.000382672 0)
(0.379663 0.000364522 0)
(0.377132 0.000358953 0)
(0.371563 0.000341233 0)
(0.369367 0.000337197 0)
(0.363655 0.000319786 0)
(0.361828 0.000317296 0)
(0.355919 0.000300227 0)
(0.354503 0.00029939 0)
(0.34833 0.000282948 0)
(0.347372 0.000283554 0)
(0.340855 0.000268483 0)
(0.340403 0.000269267 0)
(0.333468 0.0002623 0)
(0.980664 0.0166731 0)
(0.980738 0.0222934 0)
(0.983296 0.0260435 0)
(0.987379 0.027541 0)
(0.991753 0.0279051 0)
(0.995698 0.0276661 0)
(0.999091 0.0266379 0)
(1.00162 0.0245228 0)
(1.00308 0.02148 0)
(1.00311 0.0181904 0)
(1.00183 0.0154628 0)
(0.999475 0.0136274 0)
(0.996625 0.0124916 0)
(0.993457 0.0117322 0)
(0.990245 0.0111471 0)
(0.986811 0.0106483 0)
(0.983261 0.0102053 0)
(0.979338 0.00980108 0)
(0.975169 0.00941913 0)
(0.970514 0.00904212 0)
(0.965565 0.00866343 0)
(0.960107 0.00828486 0)
(0.954386 0.00791696 0)
(0.948187 0.00756525 0)
(0.941789 0.00723205 0)
(0.934958 0.00691282 0)
(0.928002 0.00660794 0)
(0.920667 0.00631526 0)
(0.913288 0.00603647 0)
(0.905581 0.00576803 0)
(0.897904 0.00551234 0)
(0.88993 0.00526798 0)
(0.88204 0.00503932 0)
(0.873868 0.0048234 0)
(0.865821 0.00462258 0)
(0.857488 0.00443179 0)
(0.849308 0.00425278 0)
(0.840827 0.00407963 0)
(0.832533 0.00391485 0)
(0.823932 0.0037533 0)
(0.81556 0.00359972 0)
(0.80688 0.00345005 0)
(0.798488 0.00330944 0)
(0.789798 0.00317159 0)
(0.781466 0.00304169 0)
(0.772843 0.00291449 0)
(0.764648 0.0027961 0)
(0.756154 0.00267989 0)
(0.74814 0.00257313 0)
(0.739795 0.00246918 0)
(0.731971 0.00237492 0)
(0.723764 0.00228171 0)
(0.716115 0.00219652 0)
(0.708029 0.00211014 0)
(0.700552 0.0020314 0)
(0.692586 0.00195161 0)
(0.68529 0.00188034 0)
(0.677453 0.0018071 0)
(0.670362 0.0017418 0)
(0.662673 0.00167346 0)
(0.655812 0.00161371 0)
(0.648279 0.00155102 0)
(0.641651 0.0014974 0)
(0.634262 0.00143983 0)
(0.62786 0.00139128 0)
(0.620596 0.00133738 0)
(0.61442 0.00129287 0)
(0.607269 0.001243 0)
(0.60132 0.00120329 0)
(0.594274 0.00115668 0)
(0.588565 0.00112032 0)
(0.581621 0.00107648 0)
(0.576159 0.00104408 0)
(0.569299 0.00100312 0)
(0.564089 0.000973734 0)
(0.557297 0.000934579 0)
(0.552343 0.000908494 0)
(0.545597 0.000871758 0)
(0.540911 0.000848693 0)
(0.534194 0.000813483 0)
(0.529789 0.0007935 0)
(0.523076 0.000759985 0)
(0.518968 0.000742598 0)
(0.512231 0.00071003 0)
(0.508438 0.000695388 0)
(0.501646 0.000663807 0)
(0.498192 0.000651855 0)
(0.491307 0.000621091 0)
(0.488221 0.000612019 0)
(0.481198 0.000581807 0)
(0.478516 0.0005754 0)
(0.471302 0.000545519 0)
(0.469067 0.000541822 0)
(0.461599 0.000512283 0)
(0.459863 0.000511468 0)
(0.452064 0.000482656 0)
(0.450884 0.000484405 0)
(0.442665 0.000457531 0)
(0.442096 0.000459801 0)
(0.433375 0.000444219 0)
(0.984102 0.0164905 0)
(0.984142 0.021278 0)
(0.986288 0.0250573 0)
(0.989945 0.0268273 0)
(0.994169 0.0272126 0)
(0.9981 0.0268245 0)
(1.00165 0.0257454 0)
(1.00452 0.0238428 0)
(1.00669 0.0211831 0)
(1.00775 0.0182339 0)
(1.00788 0.0156597 0)
(1.00707 0.0138465 0)
(1.00597 0.0127153 0)
(1.00465 0.011983 0)
(1.00353 0.011436 0)
(1.00235 0.0109729 0)
(1.00132 0.0105637 0)
(1.00008 0.010195 0)
(0.998852 0.00985539 0)
(0.997271 0.0095274 0)
(0.99563 0.00920337 0)
(0.993558 0.00888091 0)
(0.991411 0.00856905 0)
(0.988806 0.00827046 0)
(0.986143 0.0079875 0)
(0.983011 0.00771351 0)
(0.97985 0.00744958 0)
(0.976219 0.0071917 0)
(0.972604 0.00694297 0)
(0.968527 0.00669872 0)
(0.964512 0.00646356 0)
(0.960037 0.00623507 0)
(0.955665 0.00602006 0)
(0.950825 0.00581441 0)
(0.946126 0.00562309 0)
(0.940938 0.00543961 0)
(0.935913 0.00526813 0)
(0.930364 0.00510054 0)
(0.925 0.00494143 0)
(0.919072 0.00478296 0)
(0.913354 0.00463179 0)
(0.90704 0.00448075 0)
(0.900981 0.00433711 0)
(0.894313 0.00419112 0)
(0.887975 0.00405075 0)
(0.881032 0.00390814 0)
(0.874515 0.00377319 0)
(0.867399 0.00363674 0)
(0.860799 0.00351055 0)
(0.853583 0.00338524 0)
(0.846957 0.00327205 0)
(0.839667 0.00315874 0)
(0.833024 0.00305626 0)
(0.825651 0.00295092 0)
(0.818982 0.00285558 0)
(0.811512 0.00275677 0)
(0.804819 0.0026685 0)
(0.797259 0.002575 0)
(0.790577 0.00249136 0)
(0.782971 0.00240136 0)
(0.776364 0.00232277 0)
(0.768762 0.00223863 0)
(0.762275 0.00216726 0)
(0.754698 0.00208946 0)
(0.748347 0.00202486 0)
(0.740783 0.00195181 0)
(0.734567 0.00189231 0)
(0.727001 0.00182398 0)
(0.720923 0.00177002 0)
(0.713352 0.001705 0)
(0.70744 0.00165481 0)
(0.699879 0.00159291 0)
(0.694165 0.00154782 0)
(0.686615 0.00148958 0)
(0.681118 0.00144862 0)
(0.673569 0.00139282 0)
(0.668298 0.00135637 0)
(0.660725 0.00130347 0)
(0.655697 0.00127093 0)
(0.648087 0.00121983 0)
(0.643327 0.00119146 0)
(0.635665 0.00114242 0)
(0.631201 0.00111774 0)
(0.623462 0.00106995 0)
(0.619319 0.00104918 0)
(0.611469 0.00100254 0)
(0.607679 0.000985601 0)
(0.59968 0.000939871 0)
(0.596281 0.000927049 0)
(0.58809 0.000881895 0)
(0.585125 0.000873012 0)
(0.576687 0.000828129 0)
(0.574209 0.000823256 0)
(0.565456 0.000778628 0)
(0.563524 0.00077799 0)
(0.554378 0.000734154 0)
(0.553058 0.000737294 0)
(0.543426 0.000696033 0)
(0.542778 0.000700108 0)
(0.532574 0.000673133 0)
(0.986935 0.0163964 0)
(0.986987 0.0205176 0)
(0.988843 0.0240888 0)
(0.992069 0.0260074 0)
(0.996053 0.0264641 0)
(0.999822 0.0260105 0)
(1.0033 0.02491 0)
(1.00607 0.0231694 0)
(1.00829 0.02083 0)
(1.00953 0.0181888 0)
(1.01004 0.0157705 0)
(1.00966 0.0139709 0)
(1.00908 0.0128138 0)
(1.00823 0.0120732 0)
(1.00771 0.0115352 0)
(1.00713 0.011082 0)
(1.00689 0.0106786 0)
(1.00648 0.0103139 0)
(1.00629 0.00998304 0)
(1.0058 0.00967046 0)
(1.00547 0.00936986 0)
(1.00475 0.00907494 0)
(1.00419 0.00879377 0)
(1.0032 0.00852589 0)
(1.00239 0.00827456 0)
(1.00112 0.00803075 0)
(1.00004 0.00779684 0)
(0.998486 0.00756643 0)
(0.997147 0.00734435 0)
(0.995306 0.00712397 0)
(0.993718 0.0069122 0)
(0.9916 0.00670446 0)
(0.989767 0.00651001 0)
(0.987377 0.0063226 0)
(0.985305 0.00615021 0)
(0.982637 0.00598425 0)
(0.980312 0.00583202 0)
(0.977336 0.00568288 0)
(0.97472 0.00554448 0)
(0.971388 0.00540599 0)
(0.968428 0.00527677 0)
(0.96468 0.0051457 0)
(0.961327 0.00502255 0)
(0.957129 0.00489286 0)
(0.953378 0.00476728 0)
(0.948749 0.00463355 0)
(0.944656 0.00450536 0)
(0.939671 0.00436979 0)
(0.935327 0.0042436 0)
(0.93007 0.00411397 0)
(0.92555 0.00399769 0)
(0.920069 0.00387856 0)
(0.915402 0.003773 0)
(0.909698 0.00366251 0)
(0.904874 0.00356527 0)
(0.898912 0.00346201 0)
(0.893898 0.00337188 0)
(0.887647 0.00327228 0)
(0.882446 0.00318393 0)
(0.875928 0.00308382 0)
(0.8706 0.00299671 0)
(0.863883 0.00289923 0)
(0.858512 0.00281744 0)
(0.85166 0.00272529 0)
(0.846301 0.00265082 0)
(0.839328 0.00256417 0)
(0.833989 0.00249593 0)
(0.826871 0.00241465 0)
(0.82154 0.00235235 0)
(0.814259 0.00227349 0)
(0.808958 0.00221401 0)
(0.801532 0.00213695 0)
(0.796316 0.00208223 0)
(0.788779 0.00200852 0)
(0.783696 0.00195849 0)
(0.776055 0.00188754 0)
(0.771126 0.00184319 0)
(0.763356 0.00177543 0)
(0.758593 0.00173549 0)
(0.750677 0.00166917 0)
(0.746112 0.00163387 0)
(0.738046 0.00156934 0)
(0.733727 0.00153847 0)
(0.725502 0.00147522 0)
(0.721464 0.00144935 0)
(0.713049 0.00138724 0)
(0.709327 0.00136618 0)
(0.700684 0.00130475 0)
(0.697322 0.00128882 0)
(0.688416 0.00122773 0)
(0.68547 0.00121693 0)
(0.676251 0.00115591 0)
(0.673779 0.00115037 0)
(0.664183 0.0010894 0)
(0.662247 0.00108934 0)
(0.652201 0.00102913 0)
(0.65087 0.00103396 0)
(0.640289 0.000976968 0)
(0.639629 0.000983138 0)
(0.628428 0.000943034 0)
(0.989159 0.0163133 0)
(0.989219 0.0198963 0)
(0.990865 0.0231412 0)
(0.993683 0.0250889 0)
(0.997402 0.0256319 0)
(1.00097 0.0251924 0)
(1.00437 0.0241088 0)
(1.00702 0.0224945 0)
(1.00923 0.0204184 0)
(1.01046 0.0180641 0)
(1.01116 0.0158225 0)
(1.01095 0.0140599 0)
(1.0106 0.0128792 0)
(1.00987 0.0121206 0)
(1.00953 0.0115824 0)
(1.00905 0.0111315 0)
(1.00903 0.0107259 0)
(1.00878 0.010354 0)
(1.00891 0.0100181 0)
(1.00868 0.00970487 0)
(1.00877 0.00941109 0)
(1.00844 0.0091267 0)
(1.00846 0.00885943 0)
(1.008 0.00860514 0)
(1.00792 0.00836888 0)
(1.00733 0.00813888 0)
(1.00715 0.00791969 0)
(1.00643 0.00770231 0)
(1.00615 0.00749419 0)
(1.00529 0.00728608 0)
(1.00492 0.00708776 0)
(1.00393 0.00689171 0)
(1.00345 0.00671004 0)
(1.00231 0.00653359 0)
(1.00173 0.00637377 0)
(1.00045 0.00621915 0)
(0.999756 0.00608079 0)
(0.998301 0.00594506 0)
(0.997465 0.00582363 0)
(0.995792 0.00570232 0)
(0.994758 0.0055943 0)
(0.992796 0.00548413 0)
(0.991494 0.00538506 0)
(0.989177 0.00527747 0)
(0.987559 0.00517515 0)
(0.984852 0.00506022 0)
(0.982919 0.00495021 0)
(0.97985 0.00482699 0)
(0.977655 0.0047125 0)
(0.974284 0.00458932 0)
(0.971894 0.00448032 0)
(0.968267 0.00436466 0)
(0.965716 0.00426521 0)
(0.961841 0.00415829 0)
(0.959123 0.00406873 0)
(0.954961 0.00397116 0)
(0.952025 0.00389104 0)
(0.94751 0.00379804 0)
(0.944305 0.00371889 0)
(0.939399 0.00362219 0)
(0.935939 0.00353973 0)
(0.930683 0.00344029 0)
(0.927049 0.00335843 0)
(0.921522 0.00326037 0)
(0.917796 0.00318393 0)
(0.912045 0.00309072 0)
(0.90826 0.00302141 0)
(0.902266 0.00293481 0)
(0.898396 0.0028728 0)
(0.892109 0.00278834 0)
(0.888137 0.00272799 0)
(0.881549 0.00264278 0)
(0.877521 0.00258489 0)
(0.870676 0.00250061 0)
(0.866672 0.00244633 0)
(0.85961 0.00236419 0)
(0.855674 0.00231648 0)
(0.848381 0.00223798 0)
(0.844515 0.00219533 0)
(0.836954 0.0021176 0)
(0.833176 0.0020793 0)
(0.825343 0.00200201 0)
(0.821712 0.00196781 0)
(0.81362 0.0018911 0)
(0.810194 0.00186265 0)
(0.801826 0.00178693 0)
(0.798637 0.00176414 0)
(0.789951 0.00168862 0)
(0.787039 0.00167146 0)
(0.778007 0.00159551 0)
(0.775435 0.00158417 0)
(0.766027 0.00150788 0)
(0.763859 0.00150281 0)
(0.754018 0.00142628 0)
(0.752311 0.00142759 0)
(0.741975 0.00135165 0)
(0.740797 0.00135855 0)
(0.729897 0.00128643 0)
(0.729313 0.00129485 0)
(0.71778 0.00124179 0)
(0.990855 0.0162089 0)
(0.990897 0.0193486 0)
(0.992385 0.022238 0)
(0.994825 0.024126 0)
(0.998269 0.0247419 0)
(1.0016 0.0243713 0)
(1.00492 0.0233449 0)
(1.00745 0.0218427 0)
(1.00965 0.0199821 0)
(1.01086 0.0178891 0)
(1.0117 0.015837 0)
(1.01159 0.0141352 0)
(1.01144 0.0129379 0)
(1.01076 0.012154 0)
(1.01052 0.0116077 0)
(1.01003 0.0111556 0)
(1.01011 0.0107477 0)
(1.00985 0.0103685 0)
(1.0101 0.0100261 0)
(1.00988 0.00970818 0)
(1.01014 0.00941574 0)
(1.00987 0.0091353 0)
(1.01011 0.00887517 0)
(1.00977 0.00862681 0)
(1.00997 0.00839774 0)
(1.00957 0.00817305 0)
(1.00975 0.00796018 0)
(1.00928 0.00774711 0)
(1.00945 0.00754472 0)
(1.00892 0.00734057 0)
(1.00907 0.00714791 0)
(1.00847 0.00695571 0)
(1.0086 0.00677959 0)
(1.00794 0.00660666 0)
(1.00805 0.00645226 0)
(1.00732 0.00630134 0)
(1.00742 0.00616924 0)
(1.00661 0.00603865 0)
(1.00668 0.00592591 0)
(1.00577 0.00581302 0)
(1.00577 0.00571787 0)
(1.0047 0.00562047 0)
(1.00459 0.00553861 0)
(1.0033 0.00544736 0)
(1.00302 0.00536458 0)
(1.00146 0.00526616 0)
(1.00098 0.00517396 0)
(0.999147 0.00506372 0)
(0.998486 0.00496274 0)
(0.996413 0.00484798 0)
(0.99562 0.00474871 0)
(0.993341 0.00463858 0)
(0.992447 0.00454737 0)
(0.98997 0.00444559 0)
(0.988976 0.00436551 0)
(0.986275 0.00427554 0)
(0.98514 0.00420866 0)
(0.982142 0.00412684 0)
(0.980788 0.0040635 0)
(0.977412 0.00397803 0)
(0.975799 0.00390911 0)
(0.972037 0.00381641 0)
(0.97021 0.003743 0)
(0.966121 0.00364639 0)
(0.964161 0.0035745 0)
(0.959805 0.00348017 0)
(0.957765 0.00341513 0)
(0.953148 0.00332868 0)
(0.951009 0.00327351 0)
(0.946061 0.00319088 0)
(0.943766 0.00313801 0)
(0.93843 0.00305298 0)
(0.935981 0.00299986 0)
(0.930278 0.00291184 0)
(0.927752 0.00285919 0)
(0.921746 0.00277083 0)
(0.919218 0.00272452 0)
(0.912919 0.00264026 0)
(0.910395 0.00260037 0)
(0.903752 0.00251704 0)
(0.901212 0.00248137 0)
(0.894191 0.00239657 0)
(0.89168 0.0023634 0)
(0.884306 0.00227717 0)
(0.881902 0.00224943 0)
(0.874188 0.00216383 0)
(0.871929 0.00214263 0)
(0.863832 0.00205696 0)
(0.861734 0.00204157 0)
(0.853218 0.00195422 0)
(0.851339 0.00194439 0)
(0.842395 0.00185581 0)
(0.840806 0.00185275 0)
(0.831402 0.00176376 0)
(0.830146 0.00176758 0)
(0.820224 0.00167898 0)
(0.819355 0.00168833 0)
(0.808873 0.00160403 0)
(0.808447 0.0016146 0)
(0.797364 0.00155117 0)
(0.99216 0.0160804 0)
(0.992156 0.0188546 0)
(0.993516 0.0213999 0)
(0.995609 0.0231661 0)
(0.998783 0.02383 0)
(1.00185 0.0235527 0)
(1.00508 0.022619 0)
(1.00749 0.0212313 0)
(1.00969 0.0195478 0)
(1.01086 0.0176807 0)
(1.01181 0.0158139 0)
(1.01178 0.0141899 0)
(1.01181 0.0129876 0)
(1.01117 0.0121773 0)
(1.01104 0.0116198 0)
(1.01052 0.0111671 0)
(1.01066 0.0107606 0)
(1.01037 0.0103777 0)
(1.0107 0.0100307 0)
(1.01045 0.00970706 0)
(1.01081 0.00941307 0)
(1.01052 0.00913265 0)
(1.01087 0.00887621 0)
(1.01054 0.00863014 0)
(1.01089 0.00840487 0)
(1.01051 0.00818191 0)
(1.01087 0.00797213 0)
(1.01045 0.00775977 0)
(1.01083 0.0075598 0)
(1.01037 0.00735607 0)
(1.01076 0.00716582 0)
(1.01026 0.00697401 0)
(1.01066 0.00680027 0)
(1.01011 0.00662738 0)
(1.01053 0.00647501 0)
(1.00994 0.00632384 0)
(1.01039 0.00619387 0)
(1.00976 0.00606343 0)
(1.01023 0.00595393 0)
(1.00955 0.00584298 0)
(1.01003 0.00575375 0)
(1.00927 0.00566142 0)
(1.00973 0.00558906 0)
(1.00886 0.00550637 0)
(1.00926 0.0054361 0)
(1.00822 0.00534781 0)
(1.00853 0.00526824 0)
(1.00732 0.00516668 0)
(1.00755 0.00507599 0)
(1.00617 0.004967 0)
(1.00635 0.00487542 0)
(1.00482 0.00476887 0)
(1.00497 0.00468405 0)
(1.00331 0.00458516 0)
(1.00343 0.00451199 0)
(1.00163 0.00442659 0)
(1.00171 0.00437001 0)
(0.999712 0.00429709 0)
(0.99968 0.00424856 0)
(0.997395 0.00417483 0)
(0.997185 0.00412133 0)
(0.994571 0.00403831 0)
(0.99419 0.00397679 0)
(0.991276 0.00388528 0)
(0.990781 0.00382114 0)
(0.987618 0.00372833 0)
(0.987068 0.00366933 0)
(0.98368 0.00358474 0)
(0.983076 0.00353835 0)
(0.979405 0.00346079 0)
(0.978676 0.00341963 0)
(0.974633 0.00334047 0)
(0.97373 0.00329799 0)
(0.969293 0.00321243 0)
(0.968262 0.00316641 0)
(0.963486 0.00307645 0)
(0.962413 0.00303477 0)
(0.957343 0.00294856 0)
(0.956253 0.00291496 0)
(0.950837 0.00283126 0)
(0.949682 0.00280316 0)
(0.94385 0.00271706 0)
(0.942628 0.00268951 0)
(0.93639 0.00259888 0)
(0.935178 0.00257485 0)
(0.928579 0.0024837 0)
(0.927433 0.00246687 0)
(0.920442 0.00237618 0)
(0.919351 0.00236574 0)
(0.911911 0.00227235 0)
(0.9109 0.0022663 0)
(0.903013 0.00217011 0)
(0.902155 0.00217029 0)
(0.893824 0.00207373 0)
(0.893151 0.00208106 0)
(0.884325 0.00198508 0)
(0.883856 0.00199714 0)
(0.874507 0.00190577 0)
(0.874288 0.00191791 0)
(0.864416 0.00184893 0)
(0.993218 0.0159465 0)
(0.993141 0.0184047 0)
(0.994387 0.0206253 0)
(0.996168 0.0222302 0)
(0.999084 0.0229149 0)
(1.00188 0.0227333 0)
(1.005 0.021915 0)
(1.00728 0.0206479 0)
(1.00948 0.0191118 0)
(1.0106 0.0174308 0)
(1.01165 0.0157375 0)
(1.01167 0.0142081 0)
(1.01186 0.0130217 0)
(1.01127 0.0121936 0)
(1.01124 0.0116265 0)
(1.01069 0.0111746 0)
(1.0109 0.0107727 0)
(1.01057 0.0103884 0)
(1.01096 0.0100383 0)
(1.01068 0.00970841 0)
(1.01111 0.00941075 0)
(1.01079 0.00912729 0)
(1.01123 0.00887201 0)
(1.01087 0.00862617 0)
(1.01133 0.00840304 0)
(1.01094 0.00818027 0)
(1.01141 0.00797249 0)
(1.01099 0.00775972 0)
(1.01148 0.00756125 0)
(1.01102 0.00735713 0)
(1.01154 0.00716875 0)
(1.01104 0.00697665 0)
(1.01158 0.00680472 0)
(1.01104 0.00663111 0)
(1.0116 0.00647999 0)
(1.01102 0.00632753 0)
(1.01162 0.00619846 0)
(1.011 0.00606644 0)
(1.01164 0.00595796 0)
(1.01099 0.00584597 0)
(1.01166 0.00575901 0)
(1.01097 0.00566728 0)
(1.01167 0.00559932 0)
(1.01091 0.00551962 0)
(1.01161 0.00545619 0)
(1.01076 0.00537255 0)
(1.01145 0.00530059 0)
(1.01048 0.00520336 0)
(1.01116 0.00511923 0)
(1.01008 0.00501291 0)
(1.01076 0.00492632 0)
(1.00958 0.00482101 0)
(1.01027 0.00474018 0)
(1.00901 0.00464175 0)
(1.00972 0.00457239 0)
(1.00837 0.004488 0)
(1.0091 0.0044373 0)
(1.00763 0.00436877 0)
(1.00834 0.00433047 0)
(1.00669 0.00426492 0)
(1.00733 0.00422391 0)
(1.00544 0.00414902 0)
(1.00598 0.00409833 0)
(1.00386 0.00401208 0)
(1.00433 0.00395567 0)
(1.00202 0.00386479 0)
(1.00247 0.00381104 0)
(0.999992 0.00372756 0)
(1.00045 0.00368827 0)
(0.99777 0.00361522 0)
(0.998172 0.00358516 0)
(0.995202 0.00351334 0)
(0.995478 0.00348308 0)
(0.992166 0.00340344 0)
(0.992316 0.00336646 0)
(0.988693 0.00327815 0)
(0.988792 0.00324218 0)
(0.984915 0.00315603 0)
(0.985008 0.00312916 0)
(0.980851 0.00304787 0)
(0.980884 0.00302928 0)
(0.976357 0.00294672 0)
(0.976279 0.00292785 0)
(0.971358 0.0028379 0)
(0.971219 0.00281937 0)
(0.965962 0.00272659 0)
(0.965833 0.002715 0)
(0.960239 0.00262382 0)
(0.960099 0.00262013 0)
(0.954094 0.00252658 0)
(0.953916 0.002526 0)
(0.947492 0.00242773 0)
(0.947334 0.00243141 0)
(0.940528 0.00233267 0)
(0.940424 0.00234361 0)
(0.933198 0.00224657 0)
(0.933128 0.0022613 0)
(0.92545 0.00216917 0)
(0.92543 0.00218181 0)
(0.917341 0.00211311 0)
(0.994111 0.0158244 0)
(0.993945 0.0179861 0)
(0.99508 0.0198996 0)
(0.996592 0.0213224 0)
(0.999268 0.0219985 0)
(1.0018 0.0219004 0)
(1.00479 0.0212022 0)
(1.00694 0.0200587 0)
(1.00913 0.0186521 0)
(1.01021 0.0171248 0)
(1.01132 0.0155931 0)
(1.01138 0.0141717 0)
(1.01171 0.013021 0)
(1.01118 0.0121838 0)
(1.01125 0.0116064 0)
(1.01069 0.0111539 0)
(1.01095 0.0107579 0)
(1.01059 0.0103752 0)
(1.01103 0.010025 0)
(1.01072 0.00969174 0)
(1.01121 0.00939201 0)
(1.01087 0.00910576 0)
(1.01136 0.00885157 0)
(1.01099 0.00860631 0)
(1.01151 0.00838573 0)
(1.01111 0.00816349 0)
(1.01165 0.00795816 0)
(1.01122 0.00774568 0)
(1.01179 0.00754935 0)
(1.01132 0.00734565 0)
(1.01191 0.00715999 0)
(1.0114 0.00696842 0)
(1.01201 0.00679894 0)
(1.01145 0.00662532 0)
(1.01209 0.00647599 0)
(1.0115 0.0063228 0)
(1.01216 0.00619497 0)
(1.01153 0.00606168 0)
(1.01223 0.00595405 0)
(1.01157 0.00584061 0)
(1.01231 0.00575473 0)
(1.01162 0.00566198 0)
(1.0124 0.00559589 0)
(1.01167 0.00551632 0)
(1.01249 0.00545627 0)
(1.01169 0.00537408 0)
(1.01254 0.00530641 0)
(1.01167 0.0052109 0)
(1.01253 0.00513081 0)
(1.01159 0.00502544 0)
(1.01247 0.00494204 0)
(1.01146 0.00483684 0)
(1.01237 0.00475854 0)
(1.01129 0.00465952 0)
(1.01224 0.00459214 0)
(1.0111 0.00450689 0)
(1.01209 0.00445881 0)
(1.01088 0.00439127 0)
(1.01191 0.00435857 0)
(1.0106 0.00429722 0)
(1.01161 0.00426428 0)
(1.01015 0.00419451 0)
(1.01113 0.0041515 0)
(1.00952 0.00406901 0)
(1.01048 0.00401852 0)
(1.00872 0.00392913 0)
(1.0097 0.00387893 0)
(1.00782 0.00379541 0)
(1.00884 0.00376026 0)
(1.00684 0.00368972 0)
(1.00785 0.00366738 0)
(1.00567 0.00360147 0)
(1.00662 0.00358132 0)
(1.00419 0.00350814 0)
(1.00505 0.00347968 0)
(1.00238 0.00339458 0)
(1.0032 0.00336361 0)
(1.00034 0.00327831 0)
(1.00117 0.00325629 0)
(0.998118 0.00317791 0)
(0.998918 0.00316744 0)
(0.995599 0.00309068 0)
(0.996294 0.00308076 0)
(0.992653 0.00299522 0)
(0.993251 0.00298234 0)
(0.989339 0.00289097 0)
(0.989913 0.0028835 0)
(0.985759 0.00279467 0)
(0.986296 0.00279716 0)
(0.981829 0.00270807 0)
(0.982261 0.00271329 0)
(0.977447 0.00261817 0)
(0.977798 0.00262452 0)
(0.972694 0.00252818 0)
(0.973008 0.0025415 0)
(0.967599 0.00244892 0)
(0.967829 0.00246571 0)
(0.962067 0.00237896 0)
(0.962188 0.00239073 0)
(0.956136 0.00232747 0)
(0.994907 0.0158316 0)
(0.994648 0.0177059 0)
(0.995672 0.019328 0)
(0.996963 0.0205541 0)
(0.999417 0.0211882 0)
(1.00171 0.0211494 0)
(1.00456 0.0205602 0)
(1.00657 0.0195391 0)
(1.00874 0.0182532 0)
(1.00979 0.0168533 0)
(1.01095 0.0154607 0)
(1.01105 0.0141446 0)
(1.01148 0.0130357 0)
(1.01102 0.0121904 0)
(1.01116 0.0115962 0)
(1.01062 0.0111358 0)
(1.0109 0.0107416 0)
(1.01054 0.010359 0)
(1.011 0.0100079 0)
(1.01069 0.00967123 0)
(1.01119 0.00936896 0)
(1.01085 0.0090787 0)
(1.01138 0.00882358 0)
(1.01101 0.00857781 0)
(1.01155 0.00835907 0)
(1.01115 0.00813709 0)
(1.01172 0.00793385 0)
(1.0113 0.00772201 0)
(1.01189 0.00752799 0)
(1.01144 0.00732511 0)
(1.01205 0.00714232 0)
(1.01155 0.00695189 0)