# vtk DataFile Version 2.0
topWall
ASCII
DATASET POLYDATA
POINTS 1092 float
-0.333333 1 0 -0.333333 1 0.1 -0.323977 1 0.1 -0.323977 1
0 -0.314868 1 0.1 -0.314868 1 0 -0.305998 1 0.1
-0.305998 1 0 -0.297363 1 0.1 -0.297363 1 0 -0.288955
1 0.1 -0.288955 1 0 -0.280769 1 0.1 -0.280769 1
0 -0.272799 1 0.1 -0.272799 1 0 -0.265039 1 0.1
-0.265039 1 0 -0.257483 1 0.1 -0.257483 1 0 -0.250127
1 0.1 -0.250127 1 0 -0.242965 1 0.1 -0.242965 1
0 -0.235991 1 0.1 -0.235991 1 0 -0.229201 1 0.1
-0.229201 1 0 -0.222591 1 0.1 -0.222591 1 0 -0.216154
1 0.1 -0.216154 1 0 -0.209888 1 0.1 -0.209888 1
0 -0.203786 1 0.1 -0.203786 1 0 -0.197846 1 0.1
-0.197846 1 0 -0.192062 1 0.1 -0.192062 1 0 -0.186431
1 0.1 -0.186431 1 0 -0.180948 1 0.1 -0.180948 1
0 -0.175609 1 0.1 -0.175609 1 0 -0.170412 1 0.1
-0.170412 1 0 -0.165351 1 0.1 -0.165351 1 0 -0.160424
1 0.1 -0.160424 1 0 -0.155627 1 0.1 -0.155627 1
0 -0.150956 1 0.1 -0.150956 1 0 -0.146409 1 0.1
-0.146409 1 0 -0.141981 1 0.1 -0.141981 1 0 -0.13767
1 0.1 -0.13767 1 0 -0.133473 1 0.1 -0.133473 1
0 -0.129386 1 0.1 -0.129386 1 0 -0.125407 1 0.1
-0.125407 1 0 -0.121533 1 0.1 -0.121533 1 0 -0.117761
1 0.1 -0.117761 1 0 -0.114089 1 0.1 -0.114089 1
0 -0.110514 1 0.1 -0.110514 1 0 -0.107032 1 0.1
-0.107032 1 0 -0.103643 1 0.1 -0.103643 1 0 -0.100343
1 0.1 -0.100343 1 0 -0.0971296 1 0.1 -0.0971296 1
0 -0.0940012 1 0.1 -0.0940012 1 0 -0.0909553 1 0.1
-0.0909553 1 0 -0.0879897 1 0.1 -0.0879897 1 0 -0.0851023
1 0.1 -0.0851023 1 0 -0.082291 1 0.1 -0.082291 1
0 -0.0795539 1 0.1 -0.0795539 1 0 -0.0768889 1 0.1
-0.0768889 1 0 -0.0742942 1 0.1 -0.0742942 1 0 -0.0717679
1 0.1 -0.0717679 1 0 -0.0693082 1 0.1 -0.0693082 1
0 -0.0669134 1 0.1 -0.0669134 1 0 -0.0645817 1 0.1
-0.0645817 1 0 -0.0623114 1 0.1 -0.0623114 1 0 -0.0601011
1 0.1 -0.0601011 1 0 -0.057949 1 0.1 -0.057949 1
0 -0.0558536 1 0.1 -0.0558536 1 0 -0.0538136 1 0.1
-0.0538136 1 0 -0.0518272 1 0.1 -0.0518272 1 0 -0.0498933
1 0.1 -0.0498933 1 0 -0.0480104 1 0.1 -0.0480104 1
0 -0.0461771 1 0.1 -0.0461771 1 0 -0.0443921 1 0.1
-0.0443921 1 0 -0.0426542 1 0.1 -0.0426542 1 0 -0.0409621
1 0.1 -0.0409621 1 0 -0.0393147 1 0.1 -0.0393147 1
0 -0.0377106 1 0.1 -0.0377106 1 0 -0.0361489 1 0.1
-0.0361489 1 0 -0.0346284 1 0.1 -0.0346284 1 0 -0.0331479
1 0.1 -0.0331479 1 0 -0.0317065 1 0.1 -0.0317065 1
0 -0.030303 1 0.1 -0.030303 1 0 -0.0289728 1 0.1
-0.0289728 1 0 -0.0276486 1 0.1 -0.0276486 1 0 -0.0263305
1 0.1 -0.0263305 1 0 -0.0250184 1 0.1 -0.0250184 1
0 -0.0237123 1 0.1 -0.0237123 1 0 -0.0224121 1 0.1
-0.0224121 1 0 -0.0211179 1 0.1 -0.0211179 1 0 -0.0198297
1 0.1 -0.0198297 1 0 -0.0185473 1 0.1 -0.0185473 1
0 -0.0172708 1 0.1 -0.0172708 1 0 -0.0160001 1 0.1
-0.0160001 1 0 -0.0147352 1 0.1 -0.0147352 1 0 -0.0134761
1 0.1 -0.0134761 1 0 -0.0122227 1 0.1 -0.0122227 1
0 -0.0109751 1 0.1 -0.0109751 1 0 -0.00973318 1 0.1
-0.00973318 1 0 -0.00849694 1 0.1 -0.00849694 1 0 -0.00726634
1 0.1 -0.00726634 1 0 -0.00604137 1 0.1 -0.00604137 1
0 -0.004822 1 0.1 -0.004822 1 0 -0.00360821 1 0.1
-0.00360821 1 0 -0.00239996 1 0.1 -0.00239996 1 0 -0.00119723
1 0.1 -0.00119723 1 0 0 1 0.1 0 1
0 0.000971417 1 0.1 0.000971417 1 0 0.00194513 1 0.1
0.00194513 1 0 0.00292113 1 0.1 0.00292113 1 0 0.00389944
1 0.1 0.00389944 1 0 0.00488006 1 0.1 0.00488006 1
0 0.005863 1 0.1 0.005863 1 0 0.00684825 1 0.1
0.00684825 1 0 0.00783583 1 0.1 0.00783583 1 0 0.00882574
1 0.1 0.00882574 1 0 0.00981799 1 0.1 0.00981799 1
0 0.0108126 1 0.1 0.0108126 1 0 0.0118095 1 0.1
0.0118095 1 0 0.0128088 1 0.1 0.0128088 1 0 0.0138104
1 0.1 0.0138104 1 0 0.0148145 1 0.1 0.0148145 1
0 0.0158208 1 0.1 0.0158208 1 0 0.0168296 1 0.1
0.0168296 1 0 0.0178407 1 0.1 0.0178407 1 0 0.0188543
1 0.1 0.0188543 1 0 0.0198702 1 0.1 0.0198702 1
0 0.0208885 1 0.1 0.0208885 1 0 0.0219092 1 0.1
0.0219092 1 0 0.0229323 1 0.1 0.0229323 1 0 0.0239579
1 0.1 0.0239579 1 0 0.0249858 1 0.1 0.0249858 1
0 0.0260162 1 0.1 0.0260162 1 0 0.027049 1 0.1
0.027049 1 0 0.0280843 1 0.1 0.0280843 1 0 0.029122
1 0.1 0.029122 1 0 0.0301621 1 0.1 0.0301621 1
0 0.0312047 1 0.1 0.0312047 1 0 0.0322498 1 0.1
0.0322498 1 0 0.0332973 1 0.1 0.0332973 1 0 0.0343473
1 0.1 0.0343473 1 0 0.0353998 1 0.1 0.0353998 1
0 0.0364548 1 0.1 0.0364548 1 0 0.0375122 1 0.1
0.0375122 1 0 0.0385722 1 0.1 0.0385722 1 0 0.0396346
1 0.1 0.0396346 1 0 0.0406996 1 0.1 0.0406996 1
0 0.0417671 1 0.1 0.0417671 1 0 0.0428371 1 0.1
0.0428371 1 0 0.0439096 1 0.1 0.0439096 1 0 0.0449846
1 0.1 0.0449846 1 0 0.0460622 1 0.1 0.0460622 1
0 0.0471424 1 0.1 0.0471424 1 0 0.048225 1 0.1
0.048225 1 0 0.0493103 1 0.1 0.0493103 1 0 0.0503981
1 0.1 0.0503981 1 0 0.0514884 1 0.1 0.0514884 1
0 0.0525814 1 0.1 0.0525814 1 0 0.0536769 1 0.1
0.0536769 1 0 0.054775 1 0.1 0.054775 1 0 0.0558757
1 0.1 0.0558757 1 0 0.056979 1 0.1 0.056979 1
0 0.0580849 1 0.1 0.0580849 1 0 0.0591934 1 0.1
0.0591934 1 0 0.0603045 1 0.1 0.0603045 1 0 0.0614182
1 0.1 0.0614182 1 0 0.0625346 1 0.1 0.0625346 1
0 0.0636536 1 0.1 0.0636536 1 0 0.0647753 1 0.1
0.0647753 1 0 0.0658996 1 0.1 0.0658996 1 0 0.0670265
1 0.1 0.0670265 1 0 0.0681561 1 0.1 0.0681561 1
0 0.0692884 1 0.1 0.0692884 1 0 0.0704233 1 0.1
0.0704233 1 0 0.0715609 1 0.1 0.0715609 1 0 0.0727013
1 0.1 0.0727013 1 0 0.0738443 1 0.1 0.0738443 1
0 0.07499 1 0.1 0.07499 1 0 0.0761384 1 0.1
0.0761384 1 0 0.0772895 1 0.1 0.0772895 1 0 0.0784433
1 0.1 0.0784433 1 0 0.0795999 1 0.1 0.0795999 1
0 0.0807591 1 0.1 0.0807591 1 0 0.0819212 1 0.1
0.0819212 1 0 0.0830859 1 0.1 0.0830859 1 0 0.0842534
1 0.1 0.0842534 1 0 0.0854237 1 0.1 0.0854237 1
0 0.0865967 1 0.1 0.0865967 1 0 0.0877725 1 0.1
0.0877725 1 0 0.0889511 1 0.1 0.0889511 1 0 0.0901325
1 0.1 0.0901325 1 0 0.0913166 1 0.1 0.0913166 1
0 0.0925035 1 0.1 0.0925035 1 0 0.0936933 1 0.1
0.0936933 1 0 0.0948858 1 0.1 0.0948858 1 0 0.0960812
1 0.1 0.0960812 1 0 0.0972794 1 0.1 0.0972794 1
0 0.0984804 1 0.1 0.0984804 1 0 0.0996842 1 0.1
0.0996842 1 0 0.100891 1 0.1 0.100891 1 0 0.1021
1 0.1 0.1021 1 0 0.103313 1 0.1 0.103313 1
0 0.104528 1 0.1 0.104528 1 0 0.105746 1 0.1
0.105746 1 0 0.106967 1 0.1 0.106967 1 0 0.108191
1 0.1 0.108191 1 0 0.109418 1 0.1 0.109418 1
0 0.110647 1 0.1 0.110647 1 0 0.11188 1 0.1
0.11188 1 0 0.113115 1 0.1 0.113115 1 0 0.114354
1 0.1 0.114354 1 0 0.115595 1 0.1 0.115595 1
0 0.116839 1 0.1 0.116839 1 0 0.118087 1 0.1
0.118087 1 0 0.119337 1 0.1 0.119337 1 0 0.12059
1 0.1 0.12059 1 0 0.121846 1 0.1 0.121846 1
0 0.123105 1 0.1 0.123105 1 0 0.124367 1 0.1
0.124367 1 0 0.125632 1 0.1 0.125632 1 0 0.1269
1 0.1 0.1269 1 0 0.128171 1 0.1 0.128171 1
0 0.129444 1 0.1 0.129444 1 0 0.130721 1 0.1
0.130721 1 0 0.132001 1 0.1 0.132001 1 0 0.133284
1 0.1 0.133284 1 0 0.13457 1 0.1 0.13457 1
0 0.135859 1 0.1 0.135859 1 0 0.137151 1 0.1
0.137151 1 0 0.138446 1 0.1 0.138446 1 0 0.139745
1 0.1 0.139745 1 0 0.141046 1 0.1 0.141046 1
0 0.14235 1 0.1 0.14235 1 0 0.143658 1 0.1
0.143658 1 0 0.144968 1 0.1 0.144968 1 0 0.146282
1 0.1 0.146282 1 0 0.147598 1 0.1 0.147598 1
0 0.148918 1 0.1 0.148918 1 0 0.150241 1 0.1
0.150241 1 0 0.151567 1 0.1 0.151567 1 0 0.152896
1 0.1 0.152896 1 0 0.154228 1 0.1 0.154228 1
0 0.155564 1 0.1 0.155564 1 0 0.156902 1 0.1
0.156902 1 0 0.158244 1 0.1 0.158244 1 0 0.159589
1 0.1 0.159589 1 0 0.160937 1 0.1 0.160937 1
0 0.162288 1 0.1 0.162288 1 0 0.163643 1 0.1
0.163643 1 0 0.165 1 0.1 0.165 1 0 0.166361
1 0.1 0.166361 1 0 0.167725 1 0.1 0.167725 1
0 0.169092 1 0.1 0.169092 1 0 0.170463 1 0.1
0.170463 1 0 0.171837 1 0.1 0.171837 1 0 0.173214
1 0.1 0.173214 1 0 0.174594 1 0.1 0.174594 1
0 0.175977 1 0.1 0.175977 1 0 0.177364 1 0.1
0.177364 1 0 0.178754 1 0.1 0.178754 1 0 0.180147
1 0.1 0.180147 1 0 0.181544 1 0.1 0.181544 1
0 0.182944 1 0.1 0.182944 1 0 0.184347 1 0.1
0.184347 1 0 0.185754 1 0.1 0.185754 1 0 0.187163
1 0.1 0.187163 1 0 0.188577 1 0.1 0.188577 1
0 0.189993 1 0.1 0.189993 1 0 0.191413 1 0.1
0.191413 1 0 0.192836 1 0.1 0.192836 1 0 0.194263
1 0.1 0.194263 1 0 0.195692 1 0.1 0.195692 1
0 0.197126 1 0.1 0.197126 1 0 0.198562 1 0.1
0.198562 1 0 0.200002 1 0.1 0.200002 1 0 0.201446
1 0.1 0.201446 1 0 0.202893 1 0.1 0.202893 1
0 0.204343 1 0.1 0.204343 1 0 0.205797 1 0.1
0.205797 1 0 0.207254 1 0.1 0.207254 1 0 0.208552
1 0.1 0.208552 1 0 0.209863 1 0.1 0.209863 1
0 0.211189 1 0.1 0.211189 1 0 0.21253 1 0.1
0.21253 1 0 0.213885 1 0.1 0.213885 1 0 0.215254
1 0.1 0.215254 1 0 0.216639 1 0.1 0.216639 1
0 0.218038 1 0.1 0.218038 1 0 0.219453 1 0.1
0.219453 1 0 0.220884 1 0.1 0.220884 1 0 0.222329
1 0.1 0.222329 1 0 0.223791 1 0.1 0.223791 1
0 0.225268 1 0.1 0.225268 1 0 0.226762 1 0.1
0.226762 1 0 0.228271 1 0.1 0.228271 1 0 0.229797
1 0.1 0.229797 1 0 0.23134 1 0.1 0.23134 1
0 0.232899 1 0.1 0.232899 1 0 0.234476 1 0.1
0.234476 1 0 0.236069 1 0.1 0.236069 1 0 0.23768
1 0.1 0.23768 1 0 0.239308 1 0.1 0.239308 1
0 0.240954 1 0.1 0.240954 1 0 0.242618 1 0.1
0.242618 1 0 0.2443 1 0.1 0.2443 1 0 0.246001
1 0.1 0.246001 1 0 0.247719 1 0.1 0.247719 1
0 0.249457 1 0.1 0.249457 1 0 0.251213 1 0.1
0.251213 1 0 0.252988 1 0.1 0.252988 1 0 0.254783
1 0.1 0.254783 1 0 0.256597 1 0.1 0.256597 1
0 0.258431 1 0.1 0.258431 1 0 0.260285 1 0.1
0.260285 1 0 0.262159 1 0.1 0.262159 1 0 0.264054
1 0.1 0.264054 1 0 0.265969 1 0.1 0.265969 1
0 0.267904 1 0.1 0.267904 1 0 0.269861 1 0.1
0.269861 1 0 0.271839 1 0.1 0.271839 1 0 0.273839
1 0.1 0.273839 1 0 0.27586 1 0.1 0.27586 1
0 0.277904 1 0.1 0.277904 1 0 0.279969 1 0.1
0.279969 1 0 0.282057 1 0.1 0.282057 1 0 0.284168
1 0.1 0.284168 1 0 0.286302 1 0.1 0.286302 1
0 0.288458 1 0.1 0.288458 1 0 0.290639 1 0.1
0.290639 1 0 0.292843 1 0.1 0.292843 1 0 0.29507
1 0.1 0.29507 1 0 0.297323 1 0.1 0.297323 1
0 0.299599 1 0.1 0.299599 1 0 0.301901 1 0.1
0.301901 1 0 0.304227 1 0.1 0.304227 1 0 0.306578
1 0.1 0.306578 1 0 0.308956 1 0.1 0.308956 1
0 0.311359 1 0.1 0.311359 1 0 0.313788 1 0.1
0.313788 1 0 0.316243 1 0.1 0.316243 1 0 0.318726
1 0.1 0.318726 1 0 0.321235 1 0.1 0.321235 1
0 0.323771 1 0.1 0.323771 1 0 0.326336 1 0.1
0.326336 1 0 0.328927 1 0.1 0.328927 1 0 0.331548
1 0.1 0.331548 1 0 0.334196 1 0.1 0.334196 1
0 0.336874 1 0.1 0.336874 1 0 0.33958 1 0.1
[...]
CELL_DATA 545
FIELD attributes 12
patchID 1 545 float
2 2 2 2 2 2 2 2 2 2 2
2 2 2 2 2 2 2 2 2 2
2 2 2 2 2 2 2 2 2 2
2 2 2 2 2 2 2 2 2 2
2 2 2 2 2 2 2 2 2 2
2 2 2 2 2 2 2 2 2 2
2 2 2 2 2 2 2 2 2 2
2 2 2 2 2 2 2 2 2 2
2 2 2 2 2 2 2 2 2 2
2 2 2 2 2 2 2 2 2 2
2 2 2 2 2 2 2 2 2 2
2 2 2 2 2 2 2 2 2 2
2 2 2 2 2 2 2 2 2 2
2 2 2 2 2 2 2 2 2 2
2 2 2 2 2 2 2 2 2 2
2 2 2 2 2 2 2 2 2 2
2 2 2 2 2 2 2 2 2 2
2 2 2 2 2 2 2 2 2 2
2 2 2 2 2 2 2 2 2 2
2 2 2 2 2 2 2 2 2 2
2 2 2 2 2 2 2 2 2 2
2 2 2 2 2 2 2 2 2 2
2 2 2 2 2 2 2 2 2 2
2 2 2 2 2 2 2 2 2 2
2 2 2 2 2 2 2 2 2 2
2 2 2 2 2 2 2 2 2 2
2 2 2 2 2 2 2 2 2 2
2 2 2 2 2 2 2 2 2 2
2 2 2 2 2 2 2 2 2 2
2 2 2 2 2 2 2 2 2 2
2 2 2 2 2 2 2 2 2 2
2 2 2 2 2 2 2 2 2 2
2 2 2 2 2 2 2 2 2 2
2 2 2 2 2 2 2 2 2 2
2 2 2 2 2 2 2 2 2 2
2 2 2 2 2 2 2 2 2 2
2 2 2 2 2 2 2 2 2 2
2 2 2 2 2 2 2 2 2 2
2 2 2 2 2 2 2 2 2 2
2 2 2 2 2 2 2 2 2 2
2 2 2 2 2 2 2 2 2 2
2 2 2 2 2 2 2 2 2 2
2 2 2 2 2 2 2 2 2 2
2 2 2 2 2 2 2 2 2 2
2 2 2 2 2 2 2 2 2 2
2 2 2 2 2 2 2 2 2 2
2 2 2 2 2 2 2 2 2 2
2 2 2 2 2 2 2 2 2 2
2 2 2 2 2 2 2 2 2 2
2 2 2 2 2 2 2 2 2 2
2 2 2 2 2 2 2 2 2 2
2 2 2 2 2 2 2 2 2 2
2 2 2 2 2 2 2 2 2 2
2 2 2 2 2 2 2 2 2 2
2 2 2 2 
Cy 1 545 float
1 1 1 1 1 1 1 1 1 1 1
1 1 1 1 1 1 1 1 1 1
1 1 1 1 1 1 1 1 1 1
1 1 1 1 1 1 1 1 1 1
1 1 1 1 1 1 1 1 1 1
1 1 1 1 1 1 1 1 1 1
1 1 1 1 1 1 1 1 1 1
1 1 1 1 1 1 1 1 1 1
1 1 1 1 1 1 1 1 1 1
1 1 1 1 1 1 1 1 1 1
1 1 1 1 1 1 1 1 1 1
1 1 1 1 1 1 1 1 1 1
1 1 1 1 1 1 1 1 1 1
1 1 1 1 1 1 1 1 1 1
1 1 1 1 1 1 1 1 1 1
1 1 1 1 1 1 1 1 1 1
1 1 1 1 1 1 1 1 1 1
1 1 1 1 1 1 1 1 1 1
1 1 1 1 1 1 1 1 1 1
1 1 1 1 1 1 1 1 1 1
1 1 1 1 1 1 1 1 1 1
1 1 1 1 1 1 1 1 1 1
1 1 1 1 1 1 1 1 1 1
1 1 1 1 1 1 1 1 1 1
1 1 1 1 1 1 1 1 1 1
1 1 1 1 1 1 1 1 1 1
1 1 1 1 1 1 1 1 1 1
1 1 1 1 1 1 1 1 1 1
1 1 1 1 1 1 1 1 1 1
1 1 1 1 1 1 1 1 1 1
1 1 1 1 1 1 1 1 1 1
1 1 1 1 1 1 1 1 1 1
1 1 1 1 1 1 1 1 1 1
1 1 1 1 1 1 1 1 1 1
1 1 1 1 1 1 1 1 1 1
1 1 1 1 1 1 1 1 1 1
1 1 1 1 1 1 1 1 1 1
1 1 1 1 1 1 1 1 1 1
1 1 1 1 1 1 1 1 1 1
1 1 1 1 1 1 1 1 1 1
1 1 1 1 1 1 1 1 1 1
1 1 1 1 1 1 1 1 1 1
1 1 1 1 1 1 1 1 1 1
1 1 1 1 1 1 1 1 1 1
1 1 1 1 1 1 1 1 1 1
1 1 1 1 1 1 1 1 1 1
1 1 1 1 1 1 1 1 1 1
1 1 1 1 1 1 1 1 1 1
1 1 1 1 1 1 1 1 1 1
1 1 1 1 1 1 1 1 1 1
1 1 1 1 1 1 1 1 1 1
1 1 1 1 1 1 1 1 1 1
1 1 1 1 1 1 1 1 1 1
1 1 1 1 1 1 1 1 1 1
1 1 1 1 
nut 1 545 float
1.23957e-07 1.23036e-07 1.22213e-07 1.21473e-07 1.20801e-07 1.20189e-07 1.19627e-07 1.1911e-07 1.18632e-07 1.18188e-07 1.17775e-07
1.17389e-07 1.17028e-07 1.16689e-07 1.16371e-07 1.16071e-07 1.15788e-07 1.1552e-07 1.15267e-07 1.15027e-07 1.14799e-07
1.14582e-07 1.14376e-07 1.14179e-07 1.13992e-07 1.13813e-07 1.13643e-07 1.1348e-07 1.13324e-07 1.13174e-07 1.13031e-07
1.12893e-07 1.12762e-07 1.12635e-07 1.12514e-07 1.12397e-07 1.12285e-07 1.12177e-07 1.12074e-07 1.11974e-07 1.11878e-07
1.11785e-07 1.11696e-07 1.11609e-07 1.11526e-07 1.11446e-07 1.11369e-07 1.11294e-07 1.11222e-07 1.11152e-07 1.11085e-07
1.1102e-07 1.10957e-07 1.10896e-07 1.10838e-07 1.10781e-07 1.10726e-07 1.10672e-07 1.10621e-07 1.10571e-07 1.10523e-07
1.10476e-07 1.10431e-07 1.10387e-07 1.10344e-07 1.10303e-07 1.10263e-07 1.10224e-07 1.10187e-07 1.1015e-07 1.10115e-07
1.10081e-07 1.10048e-07 1.10016e-07 1.09985e-07 1.09954e-07 1.09923e-07 1.09892e-07 1.09862e-07 1.09832e-07 1.09802e-07
1.09772e-07 1.09743e-07 1.09713e-07 1.09684e-07 1.09655e-07 1.09627e-07 1.09599e-07 1.0957e-07 1.09542e-07 1.09515e-07
1.09487e-07 1.0946e-07 1.09433e-07 1.09406e-07 1.0938e-07 1.09356e-07 1.09334e-07 1.09313e-07 1.09291e-07 1.0927e-07
1.09248e-07 1.09227e-07 1.09205e-07 1.09184e-07 1.09162e-07 1.09141e-07 1.09119e-07 1.09098e-07 1.09077e-07 1.09055e-07
1.09034e-07 1.09012e-07 1.08991e-07 1.08969e-07 1.08948e-07 1.08927e-07 1.08905e-07 1.08884e-07 1.08862e-07 1.08841e-07
1.08819e-07 1.08798e-07 1.08777e-07 1.08755e-07 1.08734e-07 1.08712e-07 1.08691e-07 1.0867e-07 1.08648e-07 1.08627e-07
1.08605e-07 1.08584e-07 1.08562e-07 1.08541e-07 1.0852e-07 1.08498e-07 1.08477e-07 1.08456e-07 1.08434e-07 1.08413e-07
1.08391e-07 1.0837e-07 1.08349e-07 1.08327e-07 1.08306e-07 1.08285e-07 1.08263e-07 1.08242e-07 1.0822e-07 1.08199e-07
1.08178e-07 1.08157e-07 1.08135e-07 1.08114e-07 1.08092e-07 1.08071e-07 1.0805e-07 1.08028e-07 1.08007e-07 1.07986e-07
1.07964e-07 1.07943e-07 1.07922e-07 1.07901e-07 1.07879e-07 1.07858e-07 1.07836e-07 1.07815e-07 1.07794e-07 1.07773e-07
1.07751e-07 1.0773e-07 1.07709e-07 1.07687e-07 1.07666e-07 1.07645e-07 1.07623e-07 1.07602e-07 1.07581e-07 1.0756e-07
1.07538e-07 1.07517e-07 1.07496e-07 1.07475e-07 1.07453e-07 1.07432e-07 1.07411e-07 1.0739e-07 1.07368e-07 1.07347e-07
1.07326e-07 1.07305e-07 1.07283e-07 1.07262e-07 1.07241e-07 1.0722e-07 1.07198e-07 1.07177e-07 1.07156e-07 1.07135e-07
1.07113e-07 1.07092e-07 1.07071e-07 1.0705e-07 1.07028e-07 1.07007e-07 1.06986e-07 1.06965e-07 1.06943e-07 1.06922e-07
1.06901e-07 1.0688e-07 1.06859e-07 1.06838e-07 1.06816e-07 1.06795e-07 1.06774e-07 1.06753e-07 1.06731e-07 1.06711e-07
1.06689e-07 1.06668e-07 1.06647e-07 1.06626e-07 1.06604e-07 1.06583e-07 1.06562e-07 1.06541e-07 1.0652e-07 1.06499e-07
1.06477e-07 1.06457e-07 1.06435e-07 1.06414e-07 1.06393e-07 1.06372e-07 1.06351e-07 1.0633e-07 1.06308e-07 1.06287e-07
1.06266e-07 1.06245e-07 1.06224e-07 1.06203e-07 1.06182e-07 1.06161e-07 1.06139e-07 1.06119e-07 1.06097e-07 1.06076e-07
1.06055e-07 1.06034e-07 1.06013e-07 1.05992e-07 1.05971e-07 1.0595e-07 1.05928e-07 1.05908e-07 1.05886e-07 1.05866e-07
1.05844e-07 1.05823e-07 1.05802e-07 1.05781e-07 1.0576e-07 1.05739e-07 1.05718e-07 1.05697e-07 1.05677e-07 1.05658e-07
1.05639e-07 1.0562e-07 1.05601e-07 1.05582e-07 1.05562e-07 1.05542e-07 1.05522e-07 1.05502e-07 1.05482e-07 1.05462e-07
1.05441e-07 1.0542e-07 1.05399e-07 1.05378e-07 1.05356e-07 1.05335e-07 1.05313e-07 1.05292e-07 1.05269e-07 1.05247e-07
1.05225e-07 1.05203e-07 1.05179e-07 1.05157e-07 1.05133e-07 1.0511e-07 1.05086e-07 1.05063e-07 1.05039e-07 1.05015e-07
1.0499e-07 1.04967e-07 1.04941e-07 1.04917e-07 1.04891e-07 1.04867e-07 1.04841e-07 1.04816e-07 1.04789e-07 1.04764e-07
1.04737e-07 1.04711e-07 1.04684e-07 1.04658e-07 1.0463e-07 1.04603e-07 1.04575e-07 1.04548e-07 1.0452e-07 1.04492e-07
1.04463e-07 1.04436e-07 1.04406e-07 1.04378e-07 1.04348e-07 1.04319e-07 1.04289e-07 1.0426e-07 1.04229e-07 1.042e-07
1.04169e-07 1.04139e-07 1.04107e-07 1.04077e-07 1.04045e-07 1.04014e-07 1.03981e-07 1.0395e-07 1.03917e-07 1.03886e-07
1.03852e-07 1.0382e-07 1.03786e-07 1.03754e-07 1.03719e-07 1.03686e-07 1.03651e-07 1.03618e-07 1.03583e-07 1.03549e-07
1.03513e-07 1.03479e-07 1.03443e-07 1.03408e-07 1.03371e-07 1.03336e-07 1.03299e-07 1.03263e-07 1.03225e-07 1.0319e-07
1.03151e-07 1.03115e-07 1.03076e-07 1.03039e-07 1.03e-07 1.02963e-07 1.02922e-07 1.02885e-07 1.02844e-07 1.02807e-07
1.02765e-07 1.02727e-07 1.02685e-07 1.02647e-07 1.02605e-07 1.02565e-07 1.02523e-07 1.02483e-07 1.0244e-07 1.024e-07
1.02356e-07 1.02316e-07 1.02271e-07 1.02231e-07 1.02186e-07 1.02145e-07 1.02099e-07 1.02057e-07 1.02011e-07 1.01969e-07
1.01923e-07 1.01881e-07 1.01833e-07 1.01791e-07 1.01743e-07 1.017e-07 1.01651e-07 1.01608e-07 1.01559e-07 1.01515e-07
1.01466e-07 1.01421e-07 1.01371e-07 1.01327e-07 1.01276e-07 1.01231e-07 1.0118e-07 1.01135e-07 1.01083e-07 1.01037e-07
1.00985e-07 1.00939e-07 1.00886e-07 1.0084e-07 1.00786e-07 1.00739e-07 1.00685e-07 1.00638e-07 1.00583e-07 1.00536e-07
1.00481e-07 1.00433e-07 1.00377e-07 1.00329e-07 1.00273e-07 1.00225e-07 1.00167e-07 1.00119e-07 1.00061e-07 1.00012e-07
9.99537e-08 9.99049e-08 9.98456e-08 9.97966e-08 9.97367e-08 9.96874e-08 9.96268e-08 9.95774e-08 9.95161e-08 9.94665e-08
9.94045e-08 9.93547e-08 9.92921e-08 9.92421e-08 9.91788e-08 9.91286e-08 9.90647e-08 9.90144e-08 9.89497e-08 9.88936e-08
9.88141e-08 9.87535e-08 9.86751e-08 9.86159e-08 9.85385e-08 9.84806e-08 9.84041e-08 9.83476e-08 9.8272e-08 9.82168e-08
9.81421e-08 9.80881e-08 9.80142e-08 9.79614e-08 9.78884e-08 9.78368e-08 9.77646e-08 9.7714e-08 9.76426e-08 9.75932e-08
9.75225e-08 9.74741e-08 9.74042e-08 9.73569e-08 9.72876e-08 9.72413e-08 9.71727e-08 9.71274e-08 9.70595e-08 9.70151e-08
9.69478e-08 9.69044e-08 9.68377e-08 9.67952e-08 9.67292e-08 9.66875e-08 9.66221e-08 9.65813e-08 9.65164e-08 9.64764e-08
9.64121e-08 9.63729e-08 9.63092e-08 9.62708e-08 9.62075e-08 9.61699e-08 9.61072e-08 9.60703e-08 9.60081e-08 9.5972e-08
9.59103e-08 9.58748e-08 9.58136e-08 9.57789e-08 9.57181e-08 9.5684e-08 9.56238e-08 9.55903e-08 9.55305e-08 9.54976e-08
9.54384e-08 9.54061e-08 9.53473e-08 9.53155e-08 9.52572e-08 9.5226e-08 9.51681e-08 9.51374e-08 9.508e-08 9.50499e-08
9.49929e-08 9.49632e-08 9.49067e-08 9.48775e-08 9.48214e-08 9.47927e-08 9.4737e-08 9.47088e-08 9.46535e-08 9.46257e-08
9.45709e-08 9.45434e-08 9.44891e-08 9.4462e-08 9.44081e-08 9.43814e-08 9.43279e-08 9.43015e-08 9.42486e-08 9.4222e-08
9.41717e-08 9.41372e-08 9.41168e-08 9.3988e-08 
Cz 1 545 float
0.05 0.05 0.05 0.05 0.05 0.05 0.05 0.05 0.05 0.05 0.05
0.05 0.05 0.05 0.05 0.05 0.05 0.05 0.05 0.05 0.05
0.05 0.05 0.05 0.05 0.05 0.05 0.05 0.05 0.05 0.05
0.05 0.05 0.05 0.05 0.05 0.05 0.05 0.05 0.05 0.05
0.05 0.05 0.05 0.05 0.05 0.05 0.05 0.05 0.05 0.05
0.05 0.05 0.05 0.05 0.05 0.05 0.05 0.05 0.05 0.05
0.05 0.05 0.05 0.05 0.05 0.05 0.05 0.05 0.05 0.05
0.05 0.05 0.05 0.05 0.05 0.05 0.05 0.05 0.05 0.05
0.05 0.05 0.05 0.05 0.05 0.05 0.05 0.05 0.05 0.05
0.05 0.05 0.05 0.05 0.05 0.05 0.05 0.05 0.05 0.05
0.05 0.05 0.05 0.05 0.05 0.05 0.05 0.05 0.05 0.05
0.05 0.05 0.05 0.05 0.05 0.05 0.05 0.05 0.05 0.05
0.05 0.05 0.05 0.05 0.05 0.05 0.05 0.05 0.05 0.05
0.05 0.05 0.05 0.05 0.05 0.05 0.05 0.05 0.05 0.05
0.05 0.05 0.05 0.05 0.05 0.05 0.05 0.05 0.05 0.05
0.05 0.05 0.05 0.05 0.05 0.05 0.05 0.05 0.05 0.05
0.05 0.05 0.05 0.05 0.05 0.05 0.05 0.05 0.05 0.05
0.05 0.05 0.05 0.05 0.05 0.05 0.05 0.05 0.05 0.05
0.05 0.05 0.05 0.05 0.05 0.05 0.05 0.05 0.05 0.05
0.05 0.05 0.05 0.05 0.05 0.05 0.05 0.05 0.05 0.05
0.05 0.05 0.05 0.05 0.05 0.05 0.05 0.05 0.05 0.05
0.05 0.05 0.05 0.05 0.05 0.05 0.05 0.05 0.05 0.05
0.05 0.05 0.05 0.05 0.05 0.05 0.05 0.05 0.05 0.05
0.05 0.05 0.05 0.05 0.05 0.05 0.05 0.05 0.05 0.05
0.05 0.05 0.05 0.05 0.05 0.05 0.05 0.05 0.05 0.05
0.05 0.05 0.05 0.05 0.05 0.05 0.05 0.05 0.05 0.05
0.05 0.05 0.05 0.05 0.05 0.05 0.05 0.05 0.05 0.05
0.05 0.05 0.05 0.05 0.05 0.05 0.05 0.05 0.05 0.05
0.05 0.05 0.05 0.05 0.05 0.05 0.05 0.05 0.05 0.05
0.05 0.05 0.05 0.05 0.05 0.05 0.05 0.05 0.05 0.05
0.05 0.05 0.05 0.05 0.05 0.05 0.05 0.05 0.05 0.05
0.05 0.05 0.05 0.05 0.05 0.05 0.05 0.05 0.05 0.05
0.05 0.05 0.05 0.05 0.05 0.05 0.05 0.05 0.05 0.05
0.05 0.05 0.05 0.05 0.05 0.05 0.05 0.05 0.05 0.05
0.05 0.05 0.05 0.05 0.05 0.05 0.05 0.05 0.05 0.05
0.05 0.05 0.05 0.05 0.05 0.05 0.05 0.05 0.05 0.05
0.05 0.05 0.05 0.05 0.05 0.05 0.05 0.05 0.05 0.05
0.05 0.05 0.05 0.05 0.05 0.05 0.05 0.05 0.05 0.05
0.05 0.05 0.05 0.05 0.05 0.05 0.05 0.05 0.05 0.05
0.05 0.05 0.05 0.05 0.05 0.05 0.05 0.05 0.05 0.05
0.05 0.05 0.05 0.05 0.05 0.05 0.05 0.05 0.05 0.05
0.05 0.05 0.05 0.05 0.05 0.05 0.05 0.05 0.05 0.05
0.05 0.05 0.05 0.05 0.05 0.05 0.05 0.05 0.05 0.05
0.05 0.05 0.05 0.05 0.05 0.05 0.05 0.05 0.05 0.05
0.05 0.05 0.05 0.05 0.05 0.05 0.05 0.05 0.05 0.05
0.05 0.05 0.05 0.05 0.05 0.05 0.05 0.05 0.05 0.05
0.05 0.05 0.05 0.05 0.05 0.05 0.05 0.05 0.05 0.05
0.05 0.05 0.05 0.05 0.05 0.05 0.05 0.05 0.05 0.05
0.05 0.05 0.05 0.05 0.05 0.05 0.05 0.05 0.05 0.05
0.05 0.05 0.05 0.05 0.05 0.05 0.05 0.05 0.05 0.05
0.05 0.05 0.05 0.05 0.05 0.05 0.05 0.05 0.05 0.05
0.05 0.05 0.05 0.05 0.05 0.05 0.05 0.05 0.05 0.05
0.05 0.05 0.05 0.05 0.05 0.05 0.05 0.05 0.05 0.05
0.05 0.05 0.05 0.05 0.05 0.05 0.05 0.05 0.05 0.05
0.05 0.05 0.05 0.05 
p 1 545 float
15.5925 15.5916 15.5895 15.5863 15.5823 15.5774 15.5718 15.5656 15.5587 15.5513 15.5434
15.535 15.5263 15.5172 15.5077 15.498 15.4881 15.4779 15.4676 15.4571 15.4465
15.4358 15.425 15.4142 15.4033 15.3924 15.3816 15.3707 15.3599 15.3491 15.3384
15.3278 15.3172 15.3067 15.2963 15.286 15.2759 15.2658 15.2559 15.246 15.2364
15.2268 15.2174 15.2081 15.199 15.19 15.1811 15.1724 15.1639 15.1554 15.1472
15.1391 15.1311 15.1233 15.1156 15.1081 15.1007 15.0935 15.0864 15.0794 15.0726
15.0659 15.0594 15.053 15.0468 15.0406 15.0346 15.0288 15.023 15.0174 15.0119
15.0065 15.0014 14.9963 14.9913 14.9862 14.9812 14.9761 14.9711 14.9661 14.9611
14.956 14.951 14.946 14.941 14.936 14.931 14.926 14.921 14.9161 14.9111
14.9061 14.9012 14.8962 14.8913 14.8863 14.8819 14.8778 14.8738 14.8697 14.8656
14.8615 14.8574 14.8533 14.8491 14.8449 14.8407 14.8365 14.8322 14.828 14.8237
14.8194 14.815 14.8107 14.8063 14.8019 14.7975 14.7931 14.7886 14.7841 14.7796
14.7751 14.7706 14.766 14.7614 14.7568 14.7522 14.7475 14.7428 14.7381 14.7334
14.7287 14.7239 14.7191 14.7143 14.7094 14.7046 14.6997 14.6948 14.6899 14.6849
14.6799 14.6749 14.6699 14.6648 14.6598 14.6547 14.6495 14.6444 14.6392 14.634
14.6288 14.6236 14.6183 14.613 14.6077 14.6023 14.597 14.5916 14.5862 14.5807
14.5752 14.5697 14.5642 14.5587 14.5531 14.5475 14.5419 14.5362 14.5305 14.5248
14.5191 14.5133 14.5076 14.5017 14.4959 14.49 14.4841 14.4782 14.4723 14.4663
14.4603 14.4543 14.4482 14.4421 14.436 14.4299 14.4237 14.4175 14.4113 14.405
14.3987 14.3924 14.3861 14.3797 14.3733 14.3669 14.3604 14.3539 14.3474 14.3409
14.3343 14.3277 14.321 14.3144 14.3077 14.3009 14.2942 14.2874 14.2806 14.2737
14.2669 14.26 14.253 14.246 14.239 14.232 14.2249 14.2178 14.2107 14.2036
14.1964 14.1891 14.1819 14.1746 14.1673 14.1599 14.1525 14.1451 14.1377 14.1302
14.1227 14.1151 14.1075 14.0999 14.0923 14.0846 14.0769 14.0691 14.0614 14.0535
14.0457 14.0378 14.0299 14.0219 14.0139 14.0059 13.9979 13.9898 13.9816 13.9735
13.9653 13.9571 13.9488 13.9405 13.9322 13.9238 13.9154 13.9069 13.8984 13.8899
13.8814 13.8728 13.8642 13.8555 13.8468 13.8381 13.8293 13.8205 13.8121 13.8042
13.7962 13.7881 13.7798 13.7715 13.7631 13.7545 13.7459 13.7371 13.7282 13.7193
13.7102 13.701 13.6916 13.6822 13.6726 13.6629 13.6531 13.6432 13.6332 13.623
13.6126 13.6022 13.5916 13.5809 13.5701 13.5591 13.5479 13.5367 13.5252 13.5137
13.502 13.4901 13.4781 13.4659 13.4536 13.4411 13.4285 13.4157 13.4027 13.3895
13.3762 13.3628 13.3491 13.3353 13.3213 13.3071 13.2927 13.2781 13.2634 13.2484
13.2333 13.218 13.2024 13.1867 13.1708 13.1546 13.1383 13.1217 13.1049 13.0879
13.0707 13.0533 13.0356 13.0177 12.9996 12.9812 12.9626 12.9437 12.9246 12.9053
12.8857 12.8658 12.8457 12.8253 12.8047 12.7838 12.7626 12.7412 12.7194 12.6974
12.6751 12.6525 12.6296 12.6064 12.5829 12.5592 12.5351 12.5106 12.4859 12.4609
12.4355 12.4098 12.3837 12.3574 12.3306 12.3036 12.2762 12.2484 12.2203 12.1918
12.1629 12.1337 12.1041 12.0741 12.0438 12.013 11.9819 11.9503 11.9184 11.886
11.8533 11.8201 11.7865 11.7525 11.718 11.6831 11.6478 11.612 11.5757 11.539
11.5019 11.4643 11.4262 11.3876 11.3486 11.309 11.269 11.2285 11.1875 11.1459
11.1039 11.0613 11.0183 10.9746 10.9305 10.8858 10.8406 10.7948 10.7485 10.7016
10.6542 10.6061 10.5575 10.5084 10.4586 10.4082 10.3573 10.3057 10.2536 10.2008
10.1474 10.0933 10.0387 9.9834 9.92746 9.87088 9.81365 9.75576 9.6972 9.63798
9.57808 9.5175 9.45623 9.39428 9.33162 9.26827 9.2042 9.13942 9.07393 9.0077
8.94075 8.87306 8.80463 8.73545 8.66552 8.59483 8.52337 8.45115 8.37814 8.29607
8.20531 8.11459 8.02389 7.93323 7.84261 7.75202 7.66148 7.57099 7.48055 7.39016
7.29982 7.20954 7.11932 7.02917 6.93908 6.84905 6.75909 6.6692 6.57938 6.48963
6.39995 6.31035 6.22082 6.13137 6.04199 5.95269 5.86347 5.77432 5.68525 5.59627
5.50736 5.41852 5.32977 5.2411 5.1525 5.06399 4.97555 4.88719 4.7989 4.7107
4.62257 4.53452 4.44654 4.35864 4.27081 4.18305 4.09537 4.00775 3.92021 3.83274
3.74534 3.658 3.57073 3.48353 3.39639 3.30932 3.2223 3.13535 3.04845 2.96162
2.87484 2.78811 2.70144 2.61482 2.52825 2.44173 2.35526 2.26884 2.18246 2.09612
2.00982 1.92357 1.83735 1.75117 1.66502 1.5789 1.49282 1.40677 1.32074 1.23474
1.14876 1.0628 0.97687 0.890953 0.805053 0.719169 0.633294 0.547441 0.461562 0.375812
0.289685 0.204988 0.116538 0.0466458 
k 1 545 float
0.00102386 0.00093215 0.000856781 0.000793812 0.000740467 0.000694734 0.000655122 0.000620502 0.000590007 0.000562954 0.000538807
0.00051713 0.000497575 0.000479851 0.000463722 0.000448986 0.000435477 0.000423053 0.000411594 0.000400995 0.000391167
0.000382032 0.000373523 0.00036558 0.000358153 0.000351194 0.000344664 0.000338526 0.000332749 0.000327302 0.000322162
0.000317303 0.000312706 0.000308351 0.000304222 0.000300302 0.000296577 0.000293035 0.000289664 0.000286452 0.00028339
0.000280468 0.000277679 0.000275014 0.000272465 0.000270027 0.000267694 0.000265459 0.000263317 0.000261262 0.000259292
0.000257401 0.000255585 0.00025384 0.000252163 0.00025055 0.000248999 0.000247507 0.00024607 0.000244686 0.000243354
0.000242069 0.000240831 0.000239637 0.000238486 0.000237375 0.000236303 0.000235268 0.000234269 0.000233303 0.000232371
0.00023147 0.00023061 0.000229782 0.000228962 0.000228152 0.000227351 0.000226559 0.000225777 0.000225002 0.000224237
0.000223479 0.00022273 0.00022199 0.000221257 0.000220532 0.000219815 0.000219106 0.000218405 0.00021771 0.000217024
0.000216344 0.000215672 0.000215007 0.000214348 0.000213697 0.000213111 0.000212589 0.000212068 0.000211548 0.000211029
0.000210511 0.000209995 0.00020948 0.000208966 0.000208453 0.000207942 0.000207431 0.000206922 0.000206414 0.000205907
0.000205402 0.000204898 0.000204394 0.000203893 0.000203392 0.000202892 0.000202394 0.000201897 0.000201401 0.000200906
0.000200412 0.000199919 0.000199428 0.000198938 0.000198449 0.000197961 0.000197474 0.000196989 0.000196504 0.000196021
0.000195539 0.000195058 0.000194578 0.000194099 0.000193622 0.000193145 0.00019267 0.000192196 0.000191723 0.000191251
0.00019078 0.00019031 0.000189841 0.000189374 0.000188908 0.000188442 0.000187978 0.000187515 0.000187053 0.000186592
0.000186133 0.000185674 0.000185216 0.00018476 0.000184304 0.00018385 0.000183397 0.000182945 0.000182494 0.000182044
0.000181595 0.000181147 0.0001807 0.000180254 0.00017981 0.000179366 0.000178923 0.000178482 0.000178042 0.000177602
0.000177164 0.000176726 0.00017629 0.000175855 0.000175421 0.000174988 0.000174556 0.000174125 0.000173694 0.000173265
0.000172837 0.00017241 0.000171984 0.00017156 0.000171136 0.000170713 0.000170291 0.00016987 0.00016945 0.000169031
0.000168613 0.000168196 0.000167781 0.000167366 0.000166952 0.000166539 0.000166127 0.000165716 0.000165306 0.000164897
0.000164489 0.000164082 0.000163676 0.000163271 0.000162867 0.000162464 0.000162062 0.000161661 0.000161261 0.000160861
0.000160463 0.000160066 0.000159669 0.000159274 0.000158879 0.000158486 0.000158093 0.000157702 0.000157311 0.000156921
0.000156532 0.000156145 0.000155758 0.000155372 0.000154987 0.000154602 0.000154219 0.000153837 0.000153455 0.000153075
0.000152695 0.000152317 0.000151939 0.000151562 0.000151186 0.000150811 0.000150437 0.000150064 0.000149692 0.00014932
0.00014895 0.00014858 0.000148211 0.000147843 0.000147477 0.00014711 0.000146745 0.000146381 0.000146018 0.000145655
0.000145293 0.000144933 0.000144573 0.000144214 0.000143855 0.000143498 0.000143142 0.000142786 0.000142431 0.000142077
0.000141724 0.000141372 0.000141021 0.00014067 0.000140321 0.000139972 0.000139624 0.000139277 0.00013895 0.000138642
0.000138331 0.000138019 0.000137705 0.000137388 0.00013707 0.000136749 0.000136427 0.000136102 0.000135776 0.000135447
0.000135117 0.000134784 0.000134449 0.000134113 0.000133774 0.000133433 0.000133091 0.000132746 0.000132399 0.00013205
0.0001317 0.000131347 0.000130992 0.000130636 0.000130277 0.000129916 0.000129554 0.000129189 0.000128822 0.000128454
0.000128083 0.000127711 0.000127337 0.00012696 0.000126582 0.000126202 0.00012582 0.000125436 0.00012505 0.000124662
0.000124273 0.000123881 0.000123488 0.000123092 0.000122696 0.000122297 0.000121896 0.000121494 0.000121089 0.000120683
0.000120276 0.000119866 0.000119455 0.000119042 0.000118627 0.000118211 0.000117793 0.000117373 0.000116952 0.000116528
0.000116104 0.000115677 0.00011525 0.00011482 0.00011439 0.000113957 0.000113523 0.000113087 0.00011265 0.000112212
0.000111772 0.00011133 0.000110888 0.000110443 0.000109998 0.000109551 0.000109103 0.000108653 0.000108203 0.000107751