/*--------------------------------*- C++ -*----------------------------------*\
| =========                 |                                                 |
| \\      /  F ield         | OpenFOAM: The Open Source CFD Toolbox           |
|  \\    /   O peration     | Version:  5.x                                   |
|   \\  /    A nd           | Web:      www.OpenFOAM.org                      |
|    \\/     M anipulation  |                                                 |
\*---------------------------------------------------------------------------*/
FoamFile
{
    version     2.0;
    format      ascii;
    class       volScalarField;
    location    "5000";
    object      k;
}
// * * * * * * * * * * * * * * * * * * * * * * * * * * * * * * * * * * * * * //

dimensions      [0 2 -2 0 0 0 0];

internalField   nonuniform List<scalar> 
209825
(
0.0010238306
0.00093218152
0.00085674937
0.0007938477
0.0007404291
0.00069477302
0.00065507834
0.00062054417
0.000589957
0.00056299751
0.00053875146
0.00051717484
0.00049751487
0.00047989601
0.00046365674
0.00044903004
0.00043540817
0.00042309675
0.00041152108
0.00040103661
0.00039109019
0.00038207172
0.00037344326
0.00036561826
0.00035807077
0.00035122973
0.00034457967
0.00033855891
0.00033266193
0.00032733176
0.00032207283
0.00031732919
0.00031261549
0.00030837396
0.00030412972
0.00030032121
0.00029648389
0.00029305137
0.00028956884
0.00028646485
0.00028329335
0.00028047802
0.00027758061
0.00027502016
0.00027236548
0.00027003104
0.00026759231
0.00026545912
0.00026321327
0.00026126004
0.00025918701
0.00025739541
0.0002554776
0.00025383182
0.00025205373
0.00025054002
0.00024888801
0.00024749428
0.00024595636
0.00024467189
0.00024323748
0.00024205283
0.00024071245
0.00023961933
0.0002383644
0.00023735555
0.00023617828
0.00023524731
0.00023414071
0.00023328179
0.00023223969
0.00023144748
0.00023047727
0.00022975806
0.00022882328
0.00022813066
0.00022720585
0.00022654042
0.00022562368
0.00022498629
0.00022407561
0.00022346719
0.00022256058
0.00022198209
0.00022107768
0.00022052997
0.00021962625
0.00021910983
0.00021820631
0.00021772015
0.00021682386
0.00021633951
0.00021546413
0.00021678019
0.00022563138
0.0002405104
0.0010238309
0.00093218121
0.00085674968
0.00079384737
0.00074042942
0.00069477268
0.00065507864
0.00062054386
0.00058995727
0.00056299725
0.00053875168
0.00051717464
0.00049751502
0.00047989588
0.00046365681
0.00044903
0.00043540816
0.00042309679
0.00041152097
0.00040103675
0.00039108999
0.00038207195
0.00037344297
0.00036561858
0.00035807039
0.00035123015
0.0003445792
0.0003385594
0.0003326614
0.00032733231
0.00032207226
0.00031732977
0.0003126149
0.00030837454
0.00030412916
0.00030032173
0.0002964834
0.00029305178
0.0002895685
0.00028646509
0.0002832932
0.00028047805
0.00027758071
0.00027501991
0.00027236588
0.00027003046
0.00026759308
0.00026545812
0.00026321451
0.00026125852
0.00025918881
0.00025739328
0.00025548007
0.00025382897
0.00025205698
0.00025053634
0.00024889214
0.00024748966
0.00024596148
0.00024466623
0.00024324371
0.00024204599
0.00024071992
0.00023961117
0.00023837325
0.00023734594
0.00023618865
0.00023523613
0.0002341527
0.00023326895
0.00023225339
0.00023143289
0.00023049235
0.00022974183
0.00022884089
0.00022811171
0.00022722636
0.00022651838
0.00022564743
0.00022496087
0.00022410283
0.00022343822
0.00022259134
0.00022194969
0.00022111162
0.0002204948
0.00021966226
0.00021907359
0.00021824187
0.00021768708
0.00021684907
0.00021634159
0.00021550989
0.00021753569
0.00022315965
0.00023343024
0.0010238315
0.00093218055
0.00085675031
0.00079384668
0.00074043007
0.00069477199
0.00065507928
0.0006205432
0.00058995787
0.00056299665
0.0005387522
0.00051717414
0.00049751543
0.00047989551
0.00046365708
0.00044902977
0.00043540828
0.00042309672
0.00041152093
0.00040103685
0.00039108978
0.00038207223
0.00037344257
0.00036561904
0.00035806982
0.00035123077
0.00034457848
0.00033856017
0.00033266054
0.0003273332
0.00032207129
0.00031733074
0.00031261387
0.00030837555
0.00030412813
0.00030032272
0.00029648244
0.00029305266
0.00028956768
0.00028646577
0.00028329263
0.00028047844
0.00027758047
0.00027501993
0.00027236607
0.00027002999
0.0002675938
0.00026545707
0.00026321588
0.00026125676
0.00025919096
0.00025739066
0.00025548315
0.00025382535
0.00025206113
0.00025053158
0.0002488975
0.00024748362
0.00024596819
0.00024465877
0.00024325192
0.00024203696
0.00024072979
0.0002396004
0.00023838493
0.00023733328
0.00023620232
0.00023522139
0.0002341685
0.000233252
0.00023227148
0.00023141358
0.00023051236
0.00022972024
0.00022886441
0.00022808626
0.00022725408
0.00022648831
0.00022568022
0.00022492519
0.0002241418
0.00022339569
0.00022263794
0.00022189859
0.00022116786
0.00022043278
0.00021973094
0.00021899724
0.00021832728
0.000217591
0.00021695634
0.00021622917
0.00021557869
0.00021499911
0.0002157055
0.0002162426
0.0010238325
0.00093217945
0.00085675137
0.00079384551
0.00074043119
0.0006947708
0.00065508041
0.00062054202
0.00058995896
0.00056299553
0.00053875321
0.00051717311
0.00049751633
0.00047989462
0.00046365783
0.00044902906
0.00043540884
0.00042309621
0.00041152128
0.00040103656
0.0003910899
0.00038207218
0.00037344246
0.00036561923
0.00035806947
0.0003512312
0.00034457789
0.00033856083
0.00033265973
0.00032733407
0.00032207029
0.0003173318
0.00031261271
0.00030837674
0.00030412685
0.00030032399
0.00029648112
0.00029305395
0.00028956638
0.000286467
0.00028329143
0.00028047954
0.00027757945
0.0002750208
0.0002723653
0.00027003058
0.00026759337
0.00026545728
0.00026321586
0.00026125651
0.00025919144
0.00025738987
0.00025548421
0.00025382393
0.00025206286
0.00025052945
0.00024889998
0.00024748071
0.00024597148
0.00024465503
0.00024325606
0.00024203234
0.00024073483
0.00023959486
0.00023839093
0.00023732676
0.00023620931
0.00023521387
0.00023417652
0.00023324344
0.00023228053
0.00023140398
0.00023052219
0.00022970972
0.00022887572
0.00022807415
0.0002272671
0.00022647434
0.00022569527
0.00022490899
0.00022415931
0.00022337674
0.00022265854
0.0002218761
0.00022119256
0.00022040544
0.00021976145
0.00021896291
0.00021836625
0.00021754612
0.00021701036
0.00021615623
0.00021569172
0.00021477157
0.00021456756
0.00021568337
0.0010238339
0.0009321778
0.00085675298
0.00079384373
0.00074043291
0.00069476893
0.00065508221
0.00062054011
0.00058996079
0.00056299362
0.00053875501
0.00051717127
0.00049751805
0.00047989288
0.00046365942
0.00044902747
0.00043541027
0.00042309481
0.0004115225
0.00040103539
0.00039109088
0.00038207126
0.00037344318
0.00036561859
0.00035806991
0.00035123085
0.00034457804
0.00033856077
0.00033265959
0.0003273343
0.00032206986
0.00031733232
0.000312612
0.00030837754
0.00030412587
0.00030032505
0.00029647989
0.00029305524
0.00028956494
0.00028646849
0.00028328981
0.00028048119
0.00027757767
0.0002750226
0.00027236339
0.00027003251
0.00026759133
0.00026545934
0.00026321369
0.0002612587
0.00025918914
0.00025739219
0.00025548178
0.00025382639
0.00025206028
0.00025053207
0.00024889722
0.00024748354
0.00024596848
0.00024465813
0.00024325275
0.0002420358
0.00024073112
0.00023959878
0.00023838671
0.00023733123
0.00023620448
0.000235219
0.00023417096
0.00023324939
0.00023227407
0.00023141095
0.00023051478
0.00022971785
0.00022886657
0.00022808431
0.00022725563
0.00022648719
0.00022568068
0.00022492549
0.00022414043
0.00022339834
0.00022263356
0.00022190505
0.00022115869
0.00022044521
0.00021971433
0.00021901905
0.00021829868
0.00021762814
0.00021691001
0.00021627784
0.0002155485
0.0002149915
0.00021424833
0.00021425355
0.0010238359
0.00093217548
0.00085675525
0.00079384118
0.00074043541
0.00069476619
0.00065508489
0.00062053722
0.0005899636
0.00056299064
0.0005387579
0.00051716825
0.00049752096
0.00047988989
0.00046366229
0.00044902455
0.00043541304
0.00042309201
0.00041152514
0.00040103276
0.00039109333
0.00038206884
0.0003734454
0.00036561641
0.00035807187
0.00035122895
0.00034457971
0.00033855918
0.00033266094
0.00032733306
0.00032207086
0.00031733144
0.00031261262
0.00030837705
0.00030412609
0.00030032498
0.00029647969
0.0002930556
0.0002895643
0.0002864693
0.00028328871
0.00028048247
0.00027757609
0.00027502439
0.00027236128
0.00027003484
0.00026758864
0.00026546228
0.00026321036
0.00026126233
0.0002591851
0.00025739657
0.00025547696
0.00025383159
0.0002520546
0.00025053816
0.00024889061
0.00024749061
0.00024596083
0.0002446663
0.00024324396
0.00024204517
0.00024072106
0.00023960945
0.0002383753
0.0002373433
0.00023619163
0.00023523257
0.00023415657
0.00023326453
0.00023225806
0.00023142775
0.00023049751
0.00022973622
0.00022884675
0.00022810542
0.00022723289
0.00022651141
0.00022565468
0.00022495312
0.00022411091
0.0002234296
0.00022260037
0.00022193994
0.00022112206
0.00022048317
0.00021967533
0.00021905825
0.00021826014
0.00021766446
0.00021687774
0.00021630296
0.00021553493
0.00021498927
0.00021428185
0.00021422131
0.0010238385
0.00093217237
0.00085675831
0.0007938377
0.00074043885
0.00069476239
0.00065508865
0.00062053314
0.00058996764
0.00056298633
0.00053876217
0.00051716375
0.00049752539
0.00047988526
0.00046366683
0.00044901986
0.00043541763
0.00042308731
0.00041152972
0.0004010281
0.00039109785
0.00038206427
0.0003734498
0.000365612
0.00035807611
0.00035122473
0.00034458373
0.00033855521
0.00033266469
0.00032732938
0.00032207428
0.00031732812
0.00031261567
0.00030837414
0.00030412871
0.00030032252
0.00029648182
0.00029305365
0.00028956591
0.00028646791
0.00028328974
0.00028048168
0.00027757649
0.00027502426
0.00027236099
0.00027003544
0.00026758759
0.00026546369
0.00026320846
0.00026126462
0.00025918228
0.00025739981
0.00025547315
0.00025383584
0.00025204976
0.00025054348
0.00024888468
0.00024749704
0.00024595377
0.00024467388
0.00024323572
0.00024205394
0.00024071164
0.00023961942
0.00023836468
0.00023735445
0.00023617985
0.00023524484
0.0002341437
0.00023327786
0.00023224417
0.00023144205
0.0002304831
0.00022975124
0.00022883089
0.00022812189
0.0002272156
0.00022652927
0.00022563606
0.00022497225
0.00022409113
0.00022344975
0.00022257973
0.00022196078
0.00022110093
0.00022050432
0.00021965408
0.00021907938
0.00021823894
0.00021768567
0.00021685609
0.00021632538
0.00021551077
0.00021501639
0.0002142472
0.00021421648
0.0010238418
0.0009321684
0.00085676224
0.00079383322
0.00074044332
0.00069475742
0.00065509363
0.00062052772
0.00058997307
0.00056298049
0.00053876801
0.00051715755
0.00049753159
0.00047987874
0.00046367333
0.00044901308
0.00043542437
0.00042308033
0.00041153664
0.00040102098
0.00039110489
0.00038205708
0.0003734569
0.00036560478
0.0003580832
0.00035121755
0.00034459076
0.00033854813
0.0003326716
0.00032732246
0.00032208101
0.00031732142
0.00031262214
0.00030836772
0.00030413488
0.00030031645
0.00029648762
0.00029304797
0.00028957129
0.00028646267
0.00028329467
0.00028047693
0.00027758091
0.00027502003
0.00027236486
0.0002700318
0.00026759085
0.00026546067
0.00026321107
0.00026126227
0.00025918421
0.00025739816
0.00025547438
0.00025383489
0.00025205029
0.00025054323
0.00024888452
0.00024749747
0.00024595294
0.00024467495
0.00024323427
0.00024205561
0.00024070961
0.00023962163
0.00023836217
0.00023735711
0.00023617694
0.00023524784
0.00023414051
0.00023328108
0.00023224081
0.00023144539
0.00023047977
0.00022975455
0.00022882747
0.00022812525
0.00022721218
0.00022653258
0.00022563275
0.00022497538
0.00022408805
0.0002234526
0.00022257699
0.00022196326
0.00022109856
0.00022050646
0.00021965194
0.00021908147
0.00021823662
0.00021768825
0.00021685292
0.00021632911
0.00021550616
0.0002150216
0.00021424044
0.00021417708
0.0010238458
0.00093216355
0.00085676705
0.00079382769
0.00074044886
0.00069475124
0.00065509985
0.00062052091
0.00058997994
0.00056297308
0.00053877549
0.00051714957
0.00049753964
0.00047987025
0.00046368189
0.00044900411
0.00043543338
0.00042307096
0.00041154604
0.00040101125
0.00039111463
0.00038204705
0.00037346692
0.00036559452
0.00035809344
0.00035120711
0.00034460115
0.00033853757
0.00033268208
0.00032731184
0.00032209153
0.0003173108
0.00031263264
0.00030835715
0.0003041453
0.00030030598
0.00029649794
0.00029303763
0.00028958146
0.00028645249
0.00028330467
0.00028046693
0.00027759073
0.00027501023
0.00027237447
0.0002700222
0.00026760025
0.0002654513
0.00026322025
0.00026125312
0.00025919317
0.00025738922
0.00025548315
0.00025382614
0.00025205889
0.00025053462
0.00024889299
0.00024748897
0.00024596133
0.00024466651
0.00024324263
0.00024204718
0.00024071799
0.00023961314
0.00023837063
0.00023734851
0.00023618554
0.00023523907
0.00023414931
0.00023327208
0.00023224987
0.00023143612
0.00023048887
0.00022974505
0.00022883729
0.00022811497
0.00022722283
0.00022652142
0.00022564433
0.00022496324
0.00022410068
0.00022343933
0.00022259082
0.00022194871
0.00022111377
0.00022049041
0.00021966877
0.00021906368
0.00021825536
0.00021766829
0.00021687417
0.00021630615
0.00021553099
0.00021499415
0.00021426997
0.00021410533
0.0010238505
0.00093215788
0.00085677268
0.00079382121
0.00074045537
0.00069474395
0.00065510721
0.00062051283
0.00058998813
0.00056296423
0.00053878448
0.00051713997
0.00049754938
0.00047985993
0.00046369234
0.00044899313
0.00043544449
0.00042305936
0.00041155775
0.0004009991
0.00039112688
0.00038203439
0.00037347965
0.00036558141
0.0003581066
0.00035119361
0.00034461469
0.00033852373
0.00033269594
0.00032729771
0.00032210567
0.00031729642
0.00031264701
0.00030834257
0.00030415986
0.00030029122
0.00029651267
0.00029302271
0.00028959635
0.00028643742
0.00028331971
0.0002804517
0.00027760593
0.00027499484
0.00027238985
0.00027000665
0.0002676158
0.00026543556
0.00026323599
0.00026123719
0.00025920911
0.00025737308
0.0002554993
0.00025380977
0.00025207528
0.00025051801
0.00024890963
0.00024747211
0.00024597824
0.00024464939
0.0002432598
0.00024202979
0.00024073542
0.0002395955
0.00023838831
0.00023733061
0.00023620347
0.00023522094
0.00023416747
0.00023325374
0.00023226822
0.00023141759
0.00023050691
0.00022972651
0.00022885627
0.00022809546
0.0002272428
0.00022650089
0.00022566534
0.00022494163
0.00022412279
0.0002234166
0.00022261409
0.00022192476
0.0002211383
0.00022046518
0.0002196946
0.00021903711
0.00021828255
0.00021764035
0.00021690274
0.00021627683
0.0002155608
0.00021496354
0.00021429941
0.00021404062
0.0010238558
0.00093215154
0.00085677898
0.00079381394
0.00074046267
0.00069473577
0.00065511549
0.00062050374
0.00058999736
0.00056295424
0.00053879463
0.0005171291
0.00049756042
0.00047984822
0.00046370424
0.00044898061
0.00043545719
0.00042304608
0.0004115712
0.00040098511
0.00039114103
0.00038201975
0.00037349444
0.00036556617
0.00035812197
0.00035117782
0.00034463059
0.00033850744
0.00033271233
0.00032728096
0.00032212249
0.00031727926
0.00031266424
0.00030832503
0.00030417746
0.00030027332
0.00029653062
0.00029300447
0.00028961465
0.00028641883
0.00028333837
0.00028043276
0.00027762495
0.00027497554
0.00027240923
0.00026998698
0.00026763555
0.00026541552
0.00026325612
0.00026121677
0.00025922962
0.00025735228
0.00025552018
0.00025378862
0.00025209651
0.00025049652
0.00024893119
0.00024745031
0.00024600008
0.00024462733
0.00024328187
0.00024200753
0.00024075768
0.00023957308
0.00023841069
0.0002373081
0.00023622592
0.0002351984
0.00023418991
0.00023323124
0.00023229059
0.00023139519
0.00023052857
0.00022970441
0.00022887871
0.00022807258
0.00022726602
0.00022647724
0.00022568931
0.00022491724
0.00022414749
0.00022339149
0.00022263949
0.00022189899
0.00022116432
0.00022043882
0.00021972117
0.00021901027
0.00021830952
0.00021761318
0.00021692994
0.0002162495
0.00021558796
0.00021493613
0.00021432527
0.00021398264
0.0010238614
0.00093214476
0.00085678571
0.00079380618
0.00074047047
0.00069472704
0.00065512431
0.00062049406
0.00059000718
0.00056294361
0.00053880543
0.00051711754
0.00049757217
0.00047983575
0.0004637169
0.00044896728
0.00043547071
0.00042303193
0.00041158553
0.00040097021
0.0003911561
0.00038200415
0.00037351019
0.00036554992
0.00035813835
0.00035116099
0.00034464754
0.00033849007
0.0003327298
0.00032726311
0.00032214043
0.00031726096
0.0003126826
0.00030830634
0.00030419621
0.00030025427
0.00029654973
0.00029298507
0.00028963409
0.00028639911
0.00028335813
0.00028041272
0.00027764503
0.00027495519
0.00027242962
0.00026996632
0.00026765626
0.00026539456
0.00026327712
0.00026119552
0.0002592509
0.00025733076
0.00025554173
0.00025376685
0.00025211829
0.00025047455
0.00024895314
0.0002474282
0.00024602214
0.00024460514
0.00024330397
0.00024198534
0.00024077974
0.00023955096
0.00023843265
0.00023728613
0.0002362477
0.00023517662
0.00023421147
0.00023320971
0.00023231188
0.00023137396
0.00023054899
0.00022968364
0.00022889969
0.00022805126
0.00022728755
0.00022645537
0.00022571139
0.00022489484
0.00022417009
0.00022336858
0.00022266259
0.00022187558
0.0002211879
0.00022041495
0.00021974519
0.00021898598
0.00021833393
0.00021758853
0.00021695466
0.00021622458
0.00021561281
0.00021491085
0.00021434911
0.00021392933
0.0010238671
0.00093213784
0.00085679257
0.00079379828
0.00074047838
0.0006947182
0.00065513321
0.0006204843
0.00059001705
0.00056293294
0.00053881623
0.00051710599
0.00049758388
0.00047982334
0.00046372947
0.00044895405
0.0004354841
0.00042301795
0.00041159966
0.00040095552
0.00039117091
0.00038198884
0.00037352561
0.00036553405
0.0003581543
0.00035114463
0.00034466396
0.00033847329
0.00033274662
0.00032724597
0.00032215758
0.00031724352
0.00031270003
0.00030828866
0.00030421385
0.00030023641
0.00029656754
0.00029296707
0.00028965203
0.000286381
0.00028337616
0.00028039454
0.00027766312
0.00027493695
0.00027244776
0.00026994805
0.00026767443
0.00026537627
0.00026329531
0.00026117721
0.00025926911
0.00025731245
0.00025555993
0.00025374856
0.00025213646
0.0002504563
0.00024897125
0.00024741004
0.00024604013
0.00024458714
0.00024332178
0.00024196755
0.00024079729
0.00023953347
0.00023844988
0.00023726898
0.00023626457
0.00023515985
0.00023422795
0.00023319334
0.00023232797
0.00023135797
0.00023056428
0.00022966812
0.00022891529
0.00022803542
0.00022730348
0.00022643919
0.00022572766
0.0002248783
0.00022418673
0.00022335166
0.00022267965
0.00022185821
0.00022120545
0.00022039704
0.00021976334
0.00021896741
0.00021835282
0.00021756912
0.00021697448
0.0002162041
0.00021563373
0.00021488881
0.00021437037
0.00021388028
0.0010238728
0.00093213109
0.00085679924
0.00079379065
0.00074048599
0.00069470973
0.00065514171
0.00062047502
0.00059002638
0.00056292288
0.00053882637
0.00051709518
0.00049759478
0.00047981182
0.00046374109
0.00044894186
0.00043549637
0.00042300516
0.00041161252
0.00040094221
0.00039118427
0.00038197507
0.00037353938
0.00036551993
0.0003581684
0.00035113023
0.00034467831
0.00033845869
0.00033276113
0.00032723126
0.00032217217
0.00031722879
0.00031271461
0.00030827397
0.00030422836
0.00030022183
0.0002965819
0.00029295267
0.00028966619
0.00028636684
0.00028339007
0.00028038065
0.00027767675
0.00027492337
0.00027246107
0.0002699348
0.0002676874
0.00026536335
0.00026330796
0.00026116462
0.00025928144
0.00025730017
0.00025557197
0.00025373656
0.00025214822
0.00025044459
0.00024898272
0.00024739862
0.00024605129
0.00024457605
0.00024333258
0.00024195686
0.00024080767
0.00023952323
0.00023845977
0.00023725926
0.00023627392
0.00023515068
0.00023423676
0.0002331847
0.00023233626
0.00023134983
0.00023057189
0.00022966045
0.00022892282
0.00022802782
0.00022731094
0.00022643168
0.00022573504
0.0002248709
0.00022419398
0.0002233444
0.00022268674
0.00022185113
0.00022121236
0.00022039014
0.00021977007
0.00021896068
0.00021835938
0.00021756256
0.00021698085
0.00021619771
0.00021563979
0.00021488241
0.00021437499
0.00021385089
0.001023878
0.00093212486
0.00085680536
0.00079378367
0.0007404929
0.00069470207
0.00065514932
0.00062046674
0.00059003464
0.00056291402
0.00053883522
0.00051708578
0.00049760418
0.00047980192
0.00046375098
0.00044893153
0.00043550668
0.00042299446
0.00041162317
0.00040093122
0.00039119517
0.0003819639
0.00037355045
0.00036550865
0.00035817953
0.00035111895
0.0003446894
0.0003384475
0.00033277209
0.00032722025
0.00032218292
0.00031721805
0.00031272505
0.00030826358
0.00030423842
0.00030021187
0.0002965915
0.00029294321
0.00028967527
0.00028635793
0.00028339857
0.00028037234
0.00027768463
0.0002749157
0.00027246832
0.00026992776
0.00026769402
0.00026535694
0.00026331396
0.00026115881
0.00025928687
0.0002572949
0.00025557689
0.00025373177
0.00025215269
0.00025044022
0.00024898679
0.00024739464
0.00024605498
0.00024457246
0.00024333586
0.00024195371
0.00024081047
0.00023952061
0.00023846201
0.00023725723
0.00023627553
0.00023514931
0.0002342377
0.00023318398
0.00023233658
0.0002313497
0.00023057167
0.0002296608
0.00022892215
0.00022802861
0.00022730983
0.00022643291
0.00022573345
0.00022487265
0.00022419183
0.00022334679
0.00022268387
0.00022185431
0.00022120865
0.00022039423
0.00021976539
0.00021896579
0.00021835364
0.00021756879
0.0002169739
0.00021620524
0.00021563124
0.00021489144
0.00021436297
0.00021384232
0.0010238826
0.00093211944
0.00085681067
0.00079377768
0.00074049877
0.00069469561
0.00065515567
0.00062045988
0.00059004139
0.00056290682
0.00053884231
0.00051707829
0.00049761156
0.0004797942
0.00046375859
0.00044892363
0.00043551445
0.00042298645
0.00041163102
0.00040092318
0.00039120302
0.00038195592
0.00037355819
0.00036550084
0.00035818707
0.00035111139
0.00034469665
0.0003384403
0.00033277895
0.00032721348
0.00032218931
0.0003172118
0.0003127309
0.00030825792
0.00030424364
0.00030020686
0.00029659605
0.00029293891
0.00028967909
0.00028635437
0.00028340163
0.00028036956
0.00027768691
0.00027491372
0.0002724698
0.00026992657
0.00026769471
0.00026535652
0.00026331392
0.00026115909
0.00025928617
0.00025729581
0.00025557561
0.0002537332
0.00025215095
0.00025044207
0.00024898468
0.00024739682
0.00024605256
0.00024457495
0.00024333313
0.00024195652
0.00024080739
0.00023952382
0.00023845847
0.00023726096
0.00023627142
0.00023515365
0.00023423295
0.00023318897
0.0002323312
0.00023135527
0.00023056592
0.00022966676
0.00022891578
0.00022803514
0.00022730294
0.00022643993
0.00022572609
0.00022488016
0.00022418395
0.00022335489
0.00022267534
0.00022186314
0.00022119931
0.00022040393
0.00021975517
0.00021897634
0.00021834263
0.00021758001
0.00021696237
0.00021621674
0.00021561952
0.00021490254
0.00021435026
0.00021383427
0.0010238864
0.00093211503
0.00085681494
0.00079377292
0.00074050338
0.0006946906
0.00065516052
0.0006204547
0.00059004639
0.00056290155
0.0005388474
0.00051707297
0.00049761668
0.00047978889
0.00046376368
0.0004489184
0.00043551945
0.00042298135
0.00041163587
0.00040091829
0.00039120764
0.00038195131
0.0003735625
0.00036549659
0.00035819099
0.00035110758
0.00034470009
0.000338437
0.00033278185
0.00032721076
0.0003221916
0.00031720972
0.00031273253
0.00030825653
0.00030424458
0.00030020619
0.00029659625
0.00029293898
0.00028967854
0.0002863552
0.00028340033
0.00028037116
0.00027768484
0.00027491607
0.00027246698
0.00026992967
0.00026769118
0.00026536032
0.00026330971
0.00026116353
0.00025928136
0.00025730078
0.00025557032
0.0002537386
0.00025214529
0.00025044777
0.00024897879
0.00024740271
0.00024604653
0.00024458095
0.000243327
0.00024196262
0.00024080113
0.00023953009
0.00023845199
0.00023726753
0.00023626457
0.00023516066
0.00023422561
0.0002331965
0.00023232333
0.00023136331
0.00023055781
0.00022967508
0.00022890706
0.00022804399
0.00022729379
0.00022644914
0.00022571667
0.00022488959
0.00022417433
0.00022336454
0.00022266546
0.00022187313
0.000221189
0.00022041445
0.00021974425
0.00021898753
0.00021833102
0.00021759181
0.00021695029
0.00021622872
0.00021560756
0.00021491336
0.00021433871
0.00021382517
0.0010238893
0.00093211179
0.00085681805
0.00079376952
0.00074050661
0.00069468715
0.00065516376
0.00062045129
0.00059004957
0.00056289825
0.00053885045
0.00051706985
0.00049761954
0.00047978599
0.0004637663
0.00044891576
0.0004355218
0.00042297902
0.00041163789
0.00040091632
0.00039120929
0.00038194974
0.00037356372
0.00036549548
0.00035819173
0.00035110698
0.0003447003
0.00033843696
0.00033278149
0.00032721132
0.00032219064
0.00031721089
0.00031273094
0.00030825833
0.00030424236
0.00030020862
0.00029659342
0.00029294203
0.00028967511
0.00028635885
0.00028339631
0.00028037538
0.00027768026
0.00027492084
0.00027246186
0.00026993497
0.00026768555
0.0002653661
0.00026330362
0.00026116975
0.00025927488
0.00025730736
0.00025556353
0.00025374543
0.00025213831
0.00025045474
0.00024897172
0.00024740972
0.00024603947
0.0002445879
0.00024332002
0.0002419695
0.00024079422
0.00023953693
0.00023844507
0.00023727443
0.00023625752
0.00023516776
0.00023421829
0.00023320393
0.00023231566
0.00023137109
0.00023055001
0.00022968308
0.00022889871
0.00022805247
0.00022728506
0.00022645789
0.00022570778
0.00022489843
0.00022416544
0.00022337331
0.00022265668
0.00022188179
0.00022118036
0.00022042296
0.00021973574
0.0002189959
0.00021832267
0.00021759999
0.00021694214
0.00021623663
0.00021559959
0.00021492054
0.00021433004
0.00021381583
0.0010238912
0.00093210974
0.00085681999
0.00079376748
0.00074050848
0.00069468522
0.00065516547
0.00062044956
0.00059005105
0.0005628968
0.00053885164
0.00051706872
0.00049762039
0.00047978522
0.00046376678
0.00044891538
0.00043552188
0.00042297905
0.00041163756
0.00040091677
0.00039120853
0.00038195063
0.00037356252
0.00036549682
0.00035819007
0.0003511088
0.00034469817
0.00033843925
0.00033277888
0.0003272141
0.00032218755
0.00031721414
0.00031272739
0.00030826204
0.00030423838
0.00030021274
0.00029658903
0.00029294653
0.00028967037
0.00028636368
0.00028339126
0.00028038051
0.00027767493
0.00027492623
0.00027245629
0.00026994058
0.00026767976
0.00026537193
0.00026329764
0.00026117576
0.00025926872
0.00025731353
0.00025555725
0.00025375171
0.00025213194
0.00025046107
0.00024896534
0.00024741602
0.00024603314
0.00024459413
0.00024331379
0.00024197562
0.0002407881
0.00023954294
0.00023843904
0.00023728039
0.00023625151
0.00023517374
0.00023421222
0.00023321
0.00023230946
0.00023137733
0.00023054379
0.00022968944
0.00022889208
0.00022805921
0.0002272781
0.0002264649
0.00022570064
0.00022490553
0.00022415831
0.00022338031
0.00022264977
0.00022188845
0.00022117388
0.0002204291
0.00021972987
0.00021900137
0.00021831748
0.00021760482
0.00021693748
0.00021624104
0.000215595
0.00021492462
0.00021432396
0.00021380574
0.0010238921
0.00093210882
0.00085682081
0.00079376671
0.0007405091
0.00069468468
0.00065516582
0.00062044932
0.00059005107
0.00056289691
0.00053885127
0.00051706923
0.0004976196
0.00047978616
0.00046376556
0.00044891675
0.00043552023
0.00042298085
0.00041163549
0.00040091898
0.00039120605
0.00038195324
0.00037355966
0.0003654998
0.00035818685
0.00035111212
0.00034469462
0.0003384429
0.00033277502
0.00032721804
0.00032218342
0.00031721834
0.00031272303
0.00030826644
0.00030423383
0.00030021731
0.00029658436
0.0002929512
0.00028966562
0.00028636841
0.00028338647
0.00028038524
0.00027767016
0.00027493095
0.00027245154
0.00026994527
0.00026767504
0.0002653766
0.00026329293
0.00026118043
0.00025926401
0.00025731821
0.0002555525
0.00025375644
0.00025212714
0.00025046586
0.00024896048
0.00024742087
0.00024602823
0.00024459902
0.00024330885
0.00024198052
0.00024078317
0.00023954781
0.00023843416
0.00023728519
0.00023624671
0.00023517845
0.0002342075
0.00023321466
0.00023230478
0.00023138196
0.00023053923
0.00022969409
0.00022888725
0.00022806415
0.00022727297
0.00022647014
0.00022569523
0.000224911
0.00022415274
0.00022338586
0.00022264421
0.00022189388
0.00022116855
0.0002204342
0.00021972496
0.00021900602
0.00021831302
0.00021760905
0.00021693331
0.00021624509
0.00021559068
0.00021492848
0.00021431802
0.00021379669
0.0010238922
0.00093210892
0.00085682065
0.00079376703
0.00074050866
0.00069468529
0.00065516506
0.00062045027
0.00059004993
0.00056289824
0.00053884972
0.00051707097
0.00049761763
0.00047978833
0.00046376316
0.00044891934
0.00043551741
0.00042298383
0.00041163229
0.00040092232
0.00039120252
0.00038195688
0.00037355586
0.00036550369
0.00035818284
0.0003511162
0.00034469044
0.00033844711
0.00033277074
0.00032722233
0.00032217908
0.00031722266
0.00031271869
0.00030827073
0.00030422955
0.00030022151
0.00029658019
0.00029295526
0.00028966161
0.00028637229
0.00028338266
0.00028038893
0.00027766655
0.00027493442
0.00027244814
0.00026994855
0.00026767182
0.00026537971
0.00026328984
0.00026118344
0.00025926098
0.00025732121
0.00025554945
0.0002537595
0.00025212399
0.00025046906
0.00024895716
0.00024742426
0.00024602471
0.00024460261
0.00024330514
0.00024198427
0.00024077934
0.00023955165
0.0002384303
0.000237289
0.00023624293
0.00023518214
0.00023420389
0.00023321815
0.00023230137
0.00023138527
0.00023053605
0.00022969728
0.00022888397
0.0002280675
0.00022726948
0.00022647374
0.00022569145
0.00022491491
0.00022414866
0.00022339002
0.00022263993
0.00022189818
0.00022116422
0.00022043846
0.00021972074
0.00021901009
0.00021830905
0.00021761282
0.00021692967
0.00021624845
0.00021558732
0.00021493098
0.00021431387
0.00021378642
0.0010238915
0.00093210987
0.00085681968
0.00079376825
0.00074050739
0.0006946868
0.00065516345
0.0006204521
0.00059004796
0.00056290043
0.00053884738
0.00051707354
0.00049761488
0.00047979129
0.00046376002
0.00044892268
0.00043551391
0.0004229875
0.00041162848
0.00040092627
0.00039119847
0.00038196103
0.00037355164
0.00036550796
0.00035817853
0.00035112051
0.00034468613
0.00033845139
0.00033276649
0.00032722651
0.00032217497
0.00031722666
0.00031271478
0.00030827451
0.00030422589
0.00030022502
0.00029657681
0.00029295848
0.00028965854
0.00028637518
0.00028337992
0.00028039149
0.00027766414
0.00027493667
0.00027244603
0.00026995052
0.00026766996
0.00026538147
0.00026328815
0.00026118508
0.00025925936
0.00025732283
0.00025554779
0.00025376122
0.00025212217
0.00025047098
0.00024895509
0.00024742646
0.00024602234
0.00024460512
0.00024330249
0.00024198703
0.00024077648
0.00023955454
0.00023842739
0.00023729187
0.00023624013
0.00023518481
0.00023420136
0.0002332205
0.00023229918
0.00023138728
0.00023053423
0.00022969902
0.00022888228
0.00022806917
0.00022726778
0.0002264755
0.0002256896
0.00022491686
0.00022414658