/*--------------------------------*- C++ -*----------------------------------*\
| =========                 |                                                 |
| \\      /  F ield         | OpenFOAM: The Open Source CFD Toolbox           |
|  \\    /   O peration     | Version:  5.x                                   |
|   \\  /    A nd           | Web:      www.OpenFOAM.org                      |
|    \\/     M anipulation  |                                                 |
\*---------------------------------------------------------------------------*/
FoamFile
{
    version     2.0;
    format      ascii;
    class       volScalarField;
    location    "5000";
    object      nut;
}
// * * * * * * * * * * * * * * * * * * * * * * * * * * * * * * * * * * * * * //

dimensions      [0 2 -1 0 0 0 0];

internalField   nonuniform List<scalar> 
209825
(
1.2395436e-07
1.2303937e-07
1.2220989e-07
1.2147711e-07
1.2079656e-07
1.2019401e-07
1.1962137e-07
1.1911622e-07
1.1862489e-07
1.1819512e-07
1.1776703e-07
1.1739712e-07
1.1701951e-07
1.166981e-07
1.1636171e-07
1.160802e-07
1.1577813e-07
1.1552985e-07
1.1525683e-07
1.150365e-07
1.1478846e-07
1.145918e-07
1.1436552e-07
1.1418902e-07
1.1398198e-07
1.1382269e-07
1.1363282e-07
1.1348827e-07
1.1331392e-07
1.1318201e-07
1.130218e-07
1.129007e-07
1.127535e-07
1.1264165e-07
1.1250649e-07
1.1240257e-07
1.1227856e-07
1.1218152e-07
1.1206775e-07
1.1197684e-07
1.1187235e-07
1.1178708e-07
1.1169088e-07
1.116109e-07
1.115221e-07
1.1144707e-07
1.1136499e-07
1.1129444e-07
1.1121864e-07
1.1115201e-07
1.1108219e-07
1.1101897e-07
1.1095478e-07
1.1089469e-07
1.1083555e-07
1.107786e-07
1.1072381e-07
1.1067011e-07
1.1061901e-07
1.1056856e-07
1.1052078e-07
1.1047331e-07
1.1042873e-07
1.1038388e-07
1.1034233e-07
1.1030006e-07
1.1026093e-07
1.1022171e-07
1.1018401e-07
1.1014848e-07
1.1011142e-07
1.1007971e-07
1.1004378e-07
1.1001554e-07
1.0998043e-07
1.099528e-07
1.0991847e-07
1.0989096e-07
1.0985735e-07
1.0983056e-07
1.0979662e-07
1.097718e-07
1.0973621e-07
1.0971475e-07
1.0967596e-07
1.0965955e-07
1.0961612e-07
1.0960599e-07
1.0955574e-07
1.0955852e-07
1.0949409e-07
1.0948024e-07
1.0955258e-07
1.0961844e-07
2.3817701e-08
2.3105349e-09
1.2395438e-07
1.2303935e-07
1.222099e-07
1.2147709e-07
1.2079657e-07
1.20194e-07
1.1962136e-07
1.1911623e-07
1.1862486e-07
1.1819517e-07
1.1776695e-07
1.1739721e-07
1.1701938e-07
1.1669826e-07
1.1636152e-07
1.1608043e-07
1.1577785e-07
1.1553017e-07
1.1525647e-07
1.1503692e-07
1.1478799e-07
1.1459232e-07
1.1436494e-07
1.1418966e-07
1.1398127e-07
1.1382345e-07
1.1363199e-07
1.1348917e-07
1.1331296e-07
1.1318304e-07
1.1302069e-07
1.1290187e-07
1.1275226e-07
1.1264296e-07
1.1250512e-07
1.1240399e-07
1.1227708e-07
1.1218304e-07
1.1206619e-07
1.1197842e-07
1.1187074e-07
1.117887e-07
1.1168924e-07
1.1161254e-07
1.1152045e-07
1.1144871e-07
1.1136335e-07
1.1129606e-07
1.1121704e-07
1.1115358e-07
1.1108066e-07
1.1102044e-07
1.1095338e-07
1.1089599e-07
1.1083436e-07
1.1077967e-07
1.1072287e-07
1.1067091e-07
1.1061835e-07
1.1056907e-07
1.1052043e-07
1.1047349e-07
1.1042872e-07
1.103837e-07
1.1034272e-07
1.1029943e-07
1.1026182e-07
1.1022056e-07
1.1018542e-07
1.1014682e-07
1.1011331e-07
1.1007761e-07
1.10046e-07
1.1001313e-07
1.0998306e-07
1.0994995e-07
1.0992161e-07
1.0988753e-07
1.0986114e-07
1.0982642e-07
1.0980116e-07
1.0976687e-07
1.0974156e-07
1.0970897e-07
1.0968213e-07
1.0965318e-07
1.0962244e-07
1.0959967e-07
1.0956322e-07
1.0954729e-07
1.0950839e-07
1.0948826e-07
1.0951842e-07
1.0992944e-07
2.2287422e-08
2.3050909e-09
1.2395442e-07
1.230393e-07
1.2220994e-07
1.2147706e-07
1.2079659e-07
1.2019399e-07
1.1962136e-07
1.1911626e-07
1.186248e-07
1.1819525e-07
1.1776682e-07
1.1739738e-07
1.1701915e-07
1.1669854e-07
1.1636117e-07
1.1608085e-07
1.1577736e-07
1.1553074e-07
1.152558e-07
1.1503766e-07
1.1478713e-07
1.1459327e-07
1.1436388e-07
1.1419082e-07
1.1397998e-07
1.1382485e-07
1.1363046e-07
1.1349081e-07
1.1331118e-07
1.1318494e-07
1.1301866e-07
1.1290402e-07
1.1274996e-07
1.1264537e-07
1.1250257e-07
1.1240665e-07
1.122743e-07
1.1218591e-07
1.1206321e-07
1.1198148e-07
1.1186759e-07
1.117919e-07
1.1168598e-07
1.1161584e-07
1.1151712e-07
1.1145206e-07
1.1135999e-07
1.1129942e-07
1.1121369e-07
1.111569e-07
1.1107738e-07
1.1102366e-07
1.1095023e-07
1.1089903e-07
1.1083144e-07
1.1078244e-07
1.1072025e-07
1.1067333e-07
1.1061612e-07
1.1057108e-07
1.1051862e-07
1.1047506e-07
1.1042739e-07
1.1038475e-07
1.1034196e-07
1.1029987e-07
1.1026172e-07
1.1022026e-07
1.1018612e-07
1.1014569e-07
1.1011485e-07
1.1007566e-07
1.1004828e-07
1.1001046e-07
1.0998617e-07
1.0994641e-07
1.0992563e-07
1.0988303e-07
1.0986619e-07
1.0982084e-07
1.0980727e-07
1.0976028e-07
1.0974857e-07
1.0970164e-07
1.0968965e-07
1.0964572e-07
1.0962941e-07
1.0959384e-07
1.0956716e-07
1.0954622e-07
1.0950358e-07
1.0950898e-07
1.0940485e-07
1.0963765e-07
1.0951634e-07
4.7339141e-08
1.239545e-07
1.2303922e-07
1.2221003e-07
1.2147697e-07
1.2079666e-07
1.2019393e-07
1.1962139e-07
1.1911624e-07
1.1862477e-07
1.1819531e-07
1.177667e-07
1.1739755e-07
1.1701891e-07
1.1669884e-07
1.1636077e-07
1.1608132e-07
1.1577678e-07
1.1553141e-07
1.15255e-07
1.1503857e-07
1.1478609e-07
1.1459444e-07
1.1436256e-07
1.1419229e-07
1.1397836e-07
1.1382662e-07
1.1362851e-07
1.1349292e-07
1.1330889e-07
1.1318738e-07
1.1301602e-07
1.1290682e-07
1.1274697e-07
1.1264853e-07
1.1249923e-07
1.1241016e-07
1.122706e-07
1.1218977e-07
1.1205919e-07
1.1198565e-07
1.1186328e-07
1.1179633e-07
1.1168142e-07
1.1162049e-07
1.1151236e-07
1.1145689e-07
1.1135506e-07
1.1130439e-07
1.1120863e-07
1.1116199e-07
1.1107223e-07
1.1102882e-07
1.1094505e-07
1.109042e-07
1.1082627e-07
1.1078755e-07
1.1071519e-07
1.1067831e-07
1.1061122e-07
1.1057588e-07
1.1051392e-07
1.1047964e-07
1.1042291e-07
1.1038909e-07
1.1033775e-07
1.1030389e-07
1.1025789e-07
1.1022382e-07
1.1018283e-07
1.1014864e-07
1.1011223e-07
1.1007789e-07
1.1004645e-07
1.1001198e-07
1.09985e-07
1.0994722e-07
1.0992527e-07
1.0988284e-07
1.0986704e-07
1.0981913e-07
1.0981004e-07
1.0975616e-07
1.097544e-07
1.0969359e-07
1.0970059e-07
1.0963093e-07
1.0964925e-07
1.0956744e-07
1.0960187e-07
1.0950102e-07
1.0956245e-07
1.094289e-07
1.0953258e-07
1.0933568e-07
1.0953145e-07
2.2762659e-08
1.2395463e-07
1.2303907e-07
1.2221017e-07
1.2147682e-07
1.207968e-07
1.2019378e-07
1.1962151e-07
1.1911613e-07
1.1862484e-07
1.1819526e-07
1.1776669e-07
1.173976e-07
1.1701878e-07
1.1669902e-07
1.1636049e-07
1.1608168e-07
1.157763e-07
1.1553198e-07
1.152543e-07
1.1503939e-07
1.1478512e-07
1.1459554e-07
1.1436129e-07
1.1419369e-07
1.1397676e-07
1.1382837e-07
1.1362657e-07
1.1349503e-07
1.1330657e-07
1.1318988e-07
1.130133e-07
1.1290973e-07
1.1274384e-07
1.1265185e-07
1.1249567e-07
1.1241392e-07
1.1226662e-07
1.1219395e-07
1.1205478e-07
1.1199024e-07
1.1185847e-07
1.1180131e-07
1.1167624e-07
1.1162583e-07
1.1150683e-07
1.1146257e-07
1.1134921e-07
1.113104e-07
1.1120245e-07
1.1116832e-07
1.1106572e-07
1.1103548e-07
1.1093821e-07
1.1091118e-07
1.1081913e-07
1.1079482e-07
1.1070777e-07
1.1068584e-07
1.1060355e-07
1.1058366e-07
1.1050598e-07
1.1048771e-07
1.1041466e-07
1.1039749e-07
1.1032916e-07
1.1031262e-07
1.1024898e-07
1.1023285e-07
1.1017366e-07
1.1015789e-07
1.1010287e-07
1.1008734e-07
1.100371e-07
1.1002166e-07
1.0997485e-07
1.0995783e-07
1.0991405e-07
1.0989464e-07
1.0985454e-07
1.0983227e-07
1.0979614e-07
1.097708e-07
1.0973885e-07
1.0971009e-07
1.0968293e-07
1.0964988e-07
1.0962869e-07
1.0958999e-07
1.095765e-07
1.0953046e-07
1.0952684e-07
1.0947328e-07
1.0947537e-07
1.0945257e-07
1.0944964e-07
7.6281822e-08
1.2395482e-07
1.2303884e-07
1.222104e-07
1.2147655e-07
1.2079706e-07
1.201935e-07
1.1962177e-07
1.1911585e-07
1.1862509e-07
1.1819501e-07
1.1776689e-07
1.1739741e-07
1.1701891e-07
1.1669893e-07
1.1636049e-07
1.1608172e-07
1.1577615e-07
1.155322e-07
1.1525396e-07
1.1503981e-07
1.1478455e-07
1.145962e-07
1.1436046e-07
1.1419464e-07
1.1397564e-07
1.1382963e-07
1.1362512e-07
1.1349662e-07
1.1330478e-07
1.1319184e-07
1.1301114e-07
1.1291207e-07
1.1274128e-07
1.126546e-07
1.1249269e-07
1.1241709e-07
1.122632e-07
1.1219756e-07
1.1205092e-07
1.119943e-07
1.1185417e-07
1.1180581e-07
1.116715e-07
1.1163076e-07
1.1150167e-07
1.1146792e-07
1.1134361e-07
1.113162e-07
1.1119639e-07
1.1117459e-07
1.1105917e-07
1.1104226e-07
1.1093114e-07
1.1091849e-07
1.1081153e-07
1.1080267e-07
1.1069963e-07
1.1069423e-07
1.1059485e-07
1.1059263e-07
1.1049668e-07
1.1049732e-07
1.1040468e-07
1.1040783e-07
1.103184e-07
1.1032378e-07
1.102374e-07
1.1024484e-07
1.1016123e-07
1.1017073e-07
1.1008958e-07
1.1010108e-07
1.1002321e-07
1.1003633e-07
1.0995914e-07
1.0997457e-07
1.0989603e-07
1.0991395e-07
1.0983369e-07
1.0985468e-07
1.0977192e-07
1.0979692e-07
1.097105e-07
1.0974086e-07
1.096493e-07
1.0968666e-07
1.0958826e-07
1.0963445e-07
1.0952749e-07
1.0958448e-07
1.0946729e-07
1.0953825e-07
1.094068e-07
1.0951568e-07
1.0929573e-07
1.0988483e-07
1.2395509e-07
1.2303851e-07
1.2221075e-07
1.2147614e-07
1.2079748e-07
1.2019302e-07
1.1962225e-07
1.1911532e-07
1.1862561e-07
1.1819445e-07
1.1776743e-07
1.1739685e-07
1.1701943e-07
1.166984e-07
1.1636097e-07
1.1608124e-07
1.1577656e-07
1.1553181e-07
1.1525426e-07
1.1503955e-07
1.1478472e-07
1.1459609e-07
1.1436046e-07
1.1419471e-07
1.1397545e-07
1.1382991e-07
1.136247e-07
1.1349714e-07
1.1330411e-07
1.1319262e-07
1.1301019e-07
1.1291314e-07
1.1274003e-07
1.1265598e-07
1.1249112e-07
1.1241881e-07
1.1226128e-07
1.1219964e-07
1.1204864e-07
1.1199674e-07
1.1185152e-07
1.1180862e-07
1.1166848e-07
1.1163393e-07
1.1149828e-07
1.1147147e-07
1.1133984e-07
1.1132014e-07
1.1119222e-07
1.1117896e-07
1.1105455e-07
1.110471e-07
1.1092604e-07
1.1092381e-07
1.1080593e-07
1.1080849e-07
1.1069354e-07
1.1070055e-07
1.1058826e-07
1.1059946e-07
1.1048956e-07
1.105047e-07
1.1039698e-07
1.104158e-07
1.1031009e-07
1.1033238e-07
1.1022846e-07
1.1025406e-07
1.101517e-07
1.1018052e-07
1.1007949e-07
1.1011142e-07
1.1001284e-07
1.1004715e-07
1.0994772e-07
1.0998653e-07
1.0988338e-07
1.0992719e-07
1.0981975e-07
1.0986921e-07
1.0975671e-07
1.0981266e-07
1.0969416e-07
1.0975767e-07
1.0963197e-07
1.0970438e-07
1.0957015e-07
1.0965279e-07
1.0950894e-07
1.0960306e-07
1.0944873e-07
1.0955632e-07
1.093913e-07
1.0951861e-07
1.0934037e-07
1.0966164e-07
1.2395546e-07
1.2303805e-07
1.2221124e-07
1.2147555e-07
1.207981e-07
1.2019231e-07
1.1962298e-07
1.1911449e-07
1.1862645e-07
1.1819352e-07
1.1776837e-07
1.1739582e-07
1.1702046e-07
1.1669729e-07
1.1636207e-07
1.1608009e-07
1.157777e-07
1.1553062e-07
1.1525542e-07
1.1503835e-07
1.1478587e-07
1.1459491e-07
1.1436159e-07
1.1419356e-07
1.1397653e-07
1.1382882e-07
1.1362572e-07
1.1349613e-07
1.1330504e-07
1.131917e-07
1.1301102e-07
1.1291234e-07
1.1274073e-07
1.1265533e-07
1.1249166e-07
1.1241832e-07
1.1226166e-07
1.1219932e-07
1.1204883e-07
1.1199661e-07
1.1185154e-07
1.1180866e-07
1.1166833e-07
1.1163414e-07
1.1149796e-07
1.1147185e-07
1.1133935e-07
1.113207e-07
1.1119154e-07
1.1117971e-07
1.1105367e-07
1.1104805e-07
1.1092495e-07
1.1092498e-07
1.1080463e-07
1.1080985e-07
1.1069206e-07
1.1070208e-07
1.1058662e-07
1.1060113e-07
1.1048779e-07
1.1050649e-07
1.103951e-07
1.104177e-07
1.1030812e-07
1.1033434e-07
1.1022646e-07
1.1025601e-07
1.1014976e-07
1.1018235e-07
1.1007772e-07
1.1011303e-07
1.1001139e-07
1.1004845e-07
1.0994655e-07
1.0998747e-07
1.0988265e-07
1.0992758e-07
1.0981971e-07
1.0986873e-07
1.0975775e-07
1.0981085e-07
1.0969682e-07
1.0975394e-07
1.0963689e-07
1.0969801e-07
1.0957807e-07
1.0964301e-07
1.0952068e-07
1.0958904e-07
1.0946516e-07
1.0953712e-07
1.0941352e-07
1.0949162e-07
1.0938022e-07
1.0955894e-07
1.2395592e-07
1.2303745e-07
1.2221188e-07
1.2147477e-07
1.2079892e-07
1.2019134e-07
1.19624e-07
1.1911333e-07
1.1862767e-07
1.1819216e-07
1.1776979e-07
1.1739426e-07
1.1702207e-07
1.1669554e-07
1.1636387e-07
1.1607815e-07
1.1577968e-07
1.1552852e-07
1.1525756e-07
1.1503609e-07
1.1478817e-07
1.1459249e-07
1.1436404e-07
1.1419101e-07
1.1397911e-07
1.1382614e-07
1.1362842e-07
1.1349334e-07
1.1330784e-07
1.1318882e-07
1.1301391e-07
1.1290937e-07
1.127437e-07
1.1265228e-07
1.1249471e-07
1.124152e-07
1.1226477e-07
1.1219615e-07
1.12052e-07
1.1199337e-07
1.1185477e-07
1.1180535e-07
1.1167165e-07
1.1163074e-07
1.1150138e-07
1.1146834e-07
1.1134288e-07
1.1131707e-07
1.1119518e-07
1.1117598e-07
1.1105743e-07
1.110442e-07
1.1092882e-07
1.1092101e-07
1.1080864e-07
1.1080573e-07
1.1069623e-07
1.1069778e-07
1.1059099e-07
1.1059661e-07
1.1049239e-07
1.1050173e-07
1.1039996e-07
1.1041267e-07
1.1031327e-07
1.10329e-07
1.1023193e-07
1.1025031e-07
1.1015562e-07
1.1017625e-07
1.1008401e-07
1.1010647e-07
1.1001798e-07
1.1004145e-07
1.0995395e-07
1.099796e-07
1.0989098e-07
1.0991872e-07
1.098291e-07
1.0985872e-07
1.0976837e-07
1.0979952e-07
1.0970884e-07
1.0974111e-07
1.096505e-07
1.0968352e-07
1.0959339e-07
1.0962679e-07
1.0953775e-07
1.0957098e-07
1.094842e-07
1.0951697e-07
1.0943449e-07
1.0947018e-07
1.0940131e-07
1.0952476e-07
1.2395648e-07
1.2303672e-07
1.2221266e-07
1.2147381e-07
1.2079995e-07
1.2019012e-07
1.1962529e-07
1.1911184e-07
1.1862924e-07
1.1819038e-07
1.1777166e-07
1.1739218e-07
1.1702425e-07
1.1669315e-07
1.1636636e-07
1.1607545e-07
1.1578248e-07
1.155255e-07
1.1526068e-07
1.1503276e-07
1.147916e-07
1.1458886e-07
1.1436778e-07
1.1418707e-07
1.1398315e-07
1.138219e-07
1.1363276e-07
1.1348881e-07
1.1331247e-07
1.1318399e-07
1.1301883e-07
1.1290426e-07
1.1274891e-07
1.1264689e-07
1.1250019e-07
1.1240954e-07
1.1227053e-07
1.1219021e-07
1.1205804e-07
1.1198714e-07
1.118611e-07
1.1179882e-07
1.1167829e-07
1.116239e-07
1.1150834e-07
1.1146117e-07
1.1135018e-07
1.1130956e-07
1.1120283e-07
1.1116812e-07
1.1106541e-07
1.1103601e-07
1.1093715e-07
1.1091247e-07
1.1081731e-07
1.1079685e-07
1.1070524e-07
1.1068855e-07
1.1060035e-07
1.1058704e-07
1.1050209e-07
1.1049182e-07
1.1040999e-07
1.1040244e-07
1.103236e-07
1.1031848e-07
1.1024255e-07
1.1023953e-07
1.1016648e-07
1.1016524e-07
1.1009508e-07
1.1009528e-07
1.100289e-07
1.1003022e-07
1.0996545e-07
1.0996779e-07
1.0990305e-07
1.0990635e-07
1.0984171e-07
1.0984585e-07
1.0978144e-07
1.0978624e-07
1.0972226e-07
1.0972754e-07
1.0966412e-07
1.0966987e-07
1.0960695e-07
1.0961337e-07
1.0955089e-07
1.0955819e-07
1.0949652e-07
1.0950512e-07
1.0944564e-07
1.0945981e-07
1.0941009e-07
1.0950653e-07
1.2395712e-07
1.2303587e-07
1.2221357e-07
1.2147268e-07
1.2080116e-07
1.2018868e-07
1.1962683e-07
1.1911006e-07
1.1863114e-07
1.1818823e-07
1.1777394e-07
1.1738964e-07
1.1702693e-07
1.1669021e-07
1.1636946e-07
1.1607209e-07
1.15786e-07
1.1552172e-07
1.1526463e-07
1.1502854e-07
1.1479599e-07
1.1458421e-07
1.143726e-07
1.1418198e-07
1.1398841e-07
1.1381638e-07
1.1363845e-07
1.1348285e-07
1.1331859e-07
1.1317761e-07
1.1302538e-07
1.1289746e-07
1.1275587e-07
1.1263967e-07
1.1250757e-07
1.1240191e-07
1.1227831e-07
1.1218217e-07
1.1206623e-07
1.119787e-07
1.1186971e-07
1.1178997e-07
1.1168731e-07
1.1161462e-07
1.1151779e-07
1.1145146e-07
1.1136006e-07
1.1129942e-07
1.1121313e-07
1.1115757e-07
1.1107612e-07
1.1102506e-07
1.1094824e-07
1.1090114e-07
1.1082877e-07
1.1078517e-07
1.1071704e-07
1.1067656e-07
1.1061244e-07
1.1057477e-07
1.1051444e-07
1.1047933e-07
1.1042253e-07
1.1038978e-07
1.1033629e-07
1.103057e-07
1.1025531e-07
1.102267e-07
1.1017926e-07
1.1015244e-07
1.1010779e-07
1.1008259e-07
1.1004113e-07
1.1001779e-07
1.0997802e-07
1.0995505e-07
1.0991592e-07
1.0989333e-07
1.0985483e-07
1.098326e-07
1.0979475e-07
1.0977284e-07
1.0973569e-07
1.0971406e-07
1.0967759e-07
1.0965636e-07
1.0962042e-07
1.095999e-07
1.0956429e-07
1.0954481e-07
1.0950982e-07
1.094918e-07
1.0945898e-07
1.0944614e-07
1.0942374e-07
1.0948383e-07
1.2395783e-07
1.2303493e-07
1.2221458e-07
1.2147143e-07
1.208025e-07
1.2018708e-07
1.1962855e-07
1.1910807e-07
1.1863327e-07
1.1818582e-07
1.177765e-07
1.1738679e-07
1.1702995e-07
1.1668689e-07
1.1637296e-07
1.1606828e-07
1.1579e-07
1.1551741e-07
1.1526914e-07
1.1502373e-07
1.14801e-07
1.1457889e-07
1.1437811e-07
1.1417616e-07
1.1399442e-07
1.1381006e-07
1.1364496e-07
1.1347604e-07
1.1332559e-07
1.1317033e-07
1.1303285e-07
1.1288971e-07
1.127638e-07
1.1263148e-07
1.1251593e-07
1.1239329e-07
1.122871e-07
1.1217313e-07
1.1207543e-07
1.1196926e-07
1.118793e-07
1.1178013e-07
1.1169729e-07
1.116044e-07
1.1152816e-07
1.1144087e-07
1.1137079e-07
1.1128847e-07
1.112242e-07
1.1114629e-07
1.1108752e-07
1.1101347e-07
1.1095993e-07
1.1088928e-07
1.1084071e-07
1.1077307e-07
1.1072919e-07
1.1066427e-07
1.1062476e-07
1.1056234e-07
1.1052687e-07
1.1046681e-07
1.1043503e-07
1.1037722e-07
1.1034879e-07
1.1029317e-07
1.1026777e-07
1.1021425e-07
1.1019161e-07
1.1014011e-07
1.1011998e-07
1.1007044e-07
1.1005282e-07
1.1000593e-07
1.0998999e-07
1.0994289e-07
1.0992819e-07
1.0988088e-07
1.098674e-07
1.0981984e-07
1.0980764e-07
1.0975976e-07
1.097489e-07
1.0970064e-07
1.0969116e-07
1.0964256e-07
1.0963439e-07
1.0958566e-07
1.0957873e-07
1.095301e-07
1.0952471e-07
1.0947667e-07
1.0947425e-07
1.0943054e-07
1.0943915e-07
1.0946067e-07
1.2395857e-07
1.2303395e-07
1.2221564e-07
1.2147011e-07
1.2080392e-07
1.2018539e-07
1.1963036e-07
1.1910598e-07
1.186355e-07
1.1818329e-07
1.1777919e-07
1.1738379e-07
1.1703313e-07
1.166834e-07
1.1637664e-07
1.1606428e-07
1.1579419e-07
1.155129e-07
1.1527384e-07
1.1501871e-07
1.1480621e-07
1.1457336e-07
1.1438383e-07
1.1417014e-07
1.1400063e-07
1.1380356e-07
1.1365164e-07
1.1346908e-07
1.1333272e-07
1.1316293e-07
1.130404e-07
1.1288191e-07
1.1277174e-07
1.126233e-07
1.1252424e-07
1.1238477e-07
1.1229573e-07
1.121643e-07
1.1208436e-07
1.1196014e-07
1.118885e-07
1.1177076e-07
1.1170673e-07
1.115948e-07
1.1153781e-07
1.1143107e-07
1.1138063e-07
1.112785e-07
1.1123421e-07
1.1113615e-07
1.1109767e-07
1.110032e-07
1.109702e-07
1.1087891e-07
1.1085107e-07
1.1076263e-07
1.1073961e-07
1.1065379e-07
1.1063521e-07
1.1055185e-07
1.105373e-07
1.1045635e-07
1.104454e-07
1.1036684e-07
1.1035908e-07
1.1028289e-07
1.1027794e-07
1.102041e-07
1.1020163e-07
1.1013012e-07
1.1012985e-07
1.1006061e-07
1.1006225e-07
1.0999633e-07
1.0999969e-07
1.0993302e-07
1.0993817e-07
1.098707e-07
1.098777e-07
1.0980933e-07
1.098183e-07
1.0974885e-07
1.0975999e-07
1.0968928e-07
1.0970275e-07
1.0963064e-07
1.0964662e-07
1.0957302e-07
1.0959175e-07
1.095166e-07
1.0953866e-07
1.0946215e-07
1.0948926e-07
1.0941473e-07
1.0945516e-07
1.0943701e-07
1.2395931e-07
1.2303296e-07
1.222167e-07
1.214688e-07
1.2080533e-07
1.2018372e-07
1.1963215e-07
1.191039e-07
1.1863771e-07
1.1818079e-07
1.1778184e-07
1.1738084e-07
1.1703624e-07
1.1667999e-07
1.1638022e-07
1.160604e-07
1.1579825e-07
1.1550854e-07
1.1527837e-07
1.1501389e-07
1.148112e-07
1.1456809e-07
1.1438926e-07
1.1416445e-07
1.1400647e-07
1.1379747e-07
1.1365786e-07
1.1346264e-07
1.1333928e-07
1.1315617e-07
1.1304726e-07
1.1287487e-07
1.1277885e-07
1.1261603e-07
1.1253155e-07
1.1237732e-07
1.1230321e-07
1.1215671e-07
1.1209195e-07
1.1195247e-07
1.1189616e-07
1.1176304e-07
1.1171442e-07
1.1158706e-07
1.115455e-07
1.1142334e-07
1.1138829e-07
1.1127081e-07
1.1124183e-07
1.1112852e-07
1.1110523e-07
1.1099564e-07
1.1097769e-07
1.1087142e-07
1.1085848e-07
1.1075523e-07
1.1074692e-07
1.1064648e-07
1.1064241e-07
1.1054467e-07
1.1054437e-07
1.1044932e-07
1.1045231e-07
1.1035999e-07
1.1036578e-07
1.1027625e-07
1.1028442e-07
1.101977e-07
1.1020788e-07
1.1012395e-07
1.1013586e-07
1.1005467e-07
1.1006789e-07
1.0999062e-07
1.1000538e-07
1.0992726e-07
1.0994392e-07
1.0986488e-07
1.0988351e-07
1.0980345e-07
1.0982416e-07
1.0974294e-07
1.0976587e-07
1.0968334e-07
1.0970865e-07
1.0962468e-07
1.0965255e-07
1.0956702e-07
1.0959772e-07
1.0951057e-07
1.0954463e-07
1.0945615e-07
1.0949514e-07
1.0940875e-07
1.0946054e-07
1.0942537e-07
1.2396002e-07
1.2303202e-07
1.222177e-07
1.2146756e-07
1.2080666e-07
1.2018214e-07
1.1963383e-07
1.1910197e-07
1.1863975e-07
1.1817849e-07
1.1778427e-07
1.1737814e-07
1.1703907e-07
1.1667688e-07
1.1638346e-07
1.160569e-07
1.1580189e-07
1.1550465e-07
1.1528239e-07
1.1500962e-07
1.1481558e-07
1.1456349e-07
1.1439396e-07
1.1415954e-07
1.1401146e-07
1.137923e-07
1.1366309e-07
1.1345724e-07
1.1334471e-07
1.131506e-07
1.1305283e-07
1.1286919e-07
1.1278451e-07
1.1261029e-07
1.1253725e-07
1.1237158e-07
1.1230888e-07
1.1215102e-07
1.1209755e-07
1.1194688e-07
1.1190164e-07
1.1175759e-07
1.1171974e-07
1.1158179e-07
1.1155062e-07
1.1141828e-07
1.1139319e-07
1.1126598e-07
1.112465e-07
1.1112393e-07
1.1110966e-07
1.1099127e-07
1.1098189e-07
1.1086728e-07
1.1086247e-07
1.107513e-07
1.1075071e-07
1.1064276e-07
1.1064599e-07
1.1054115e-07
1.1054773e-07
1.1044604e-07
1.1045541e-07
1.1035698e-07
1.1036859e-07
1.1027356e-07
1.102869e-07
1.1019535e-07
1.1021001e-07
1.1012195e-07
1.1013765e-07
1.1005299e-07
1.1006934e-07
1.0998922e-07
1.1000663e-07
1.0992605e-07
1.0994498e-07
1.0986387e-07
1.0988435e-07
1.098027e-07
1.098247e-07
1.0974253e-07
1.0976603e-07
1.0968336e-07
1.0970834e-07
1.0962521e-07
1.0965169e-07
1.0956815e-07
1.0959621e-07
1.0951239e-07
1.0954236e-07
1.0945881e-07
1.0949188e-07
1.0941246e-07
1.0945549e-07
1.0942591e-07
1.2396066e-07
1.2303118e-07
1.222186e-07
1.2146645e-07
1.2080783e-07
1.2018075e-07
1.196353e-07
1.1910029e-07
1.1864153e-07
1.1817649e-07
1.1778636e-07
1.1737584e-07
1.1704147e-07
1.1667427e-07
1.1638616e-07
1.1605398e-07
1.1580489e-07
1.1550145e-07
1.1528566e-07
1.1500617e-07
1.148191e-07
1.1455982e-07
1.1439768e-07
1.1415569e-07
1.1401533e-07
1.1378832e-07
1.1366707e-07
1.1345319e-07
1.1334873e-07
1.1314653e-07
1.1305685e-07
1.1286515e-07
1.1278847e-07
1.1260634e-07
1.125411e-07
1.1236776e-07
1.1231256e-07
1.1214739e-07
1.1210102e-07
1.1194348e-07
1.1190486e-07
1.1175446e-07
1.1172267e-07
1.1157897e-07
1.1155324e-07
1.1141579e-07
1.1139548e-07
1.1126382e-07
1.1124844e-07
1.111221e-07
1.1111128e-07
1.1098977e-07
1.1098321e-07
1.1086606e-07
1.1086351e-07
1.1075034e-07
1.1075151e-07
1.1064203e-07
1.1064656e-07
1.1054065e-07
1.1054808e-07
1.1044577e-07
1.1045551e-07
1.1035698e-07
1.1036839e-07
1.1027389e-07
1.1028634e-07
1.1019605e-07
1.1020907e-07
1.1012303e-07
1.1013634e-07
1.1005443e-07
1.1006775e-07
1.0999092e-07
1.1000472e-07
1.0992804e-07
1.099428e-07
1.0986612e-07
1.0988191e-07
1.0980522e-07
1.0982197e-07
1.097454e-07
1.0976291e-07
1.0968667e-07
1.0970474e-07
1.0962903e-07
1.0964756e-07
1.0957249e-07
1.0959158e-07
1.0951718e-07
1.0953736e-07
1.0946386e-07
1.0948668e-07
1.0941749e-07
1.0944993e-07
1.0942632e-07
1.2396121e-07
1.2303048e-07
1.2221936e-07
1.2146553e-07
1.2080881e-07
1.2017961e-07
1.196365e-07
1.1909892e-07
1.1864295e-07
1.1817491e-07
1.17788e-07
1.1737404e-07
1.1704333e-07
1.1667226e-07
1.1638822e-07
1.1605178e-07
1.1580713e-07
1.1549908e-07
1.1528807e-07
1.1500365e-07
1.1482162e-07
1.1455719e-07
1.1440029e-07
1.1415301e-07
1.1401798e-07
1.1378562e-07
1.1366971e-07
1.1345053e-07
1.1335132e-07
1.1314395e-07
1.1305933e-07
1.1286269e-07
1.1279081e-07
1.1260405e-07
1.1254324e-07
1.1236569e-07
1.1231448e-07
1.1214557e-07
1.1210267e-07
1.1194193e-07
1.1190622e-07
1.1175321e-07
1.1172373e-07
1.1157804e-07
1.1155396e-07
1.114152e-07
1.1139586e-07
1.1126357e-07
1.1124848e-07
1.1112219e-07
1.11111e-07
1.1099016e-07
1.1098263e-07
1.1086673e-07
1.1086268e-07
1.1075123e-07
1.1075048e-07
1.1064311e-07
1.1064536e-07
1.1054189e-07
1.1054673e-07
1.1044716e-07
1.1045399e-07
1.1035856e-07
1.1036667e-07
1.102757e-07
1.1028435e-07
1.1019815e-07
1.1020677e-07
1.1012547e-07
1.1013371e-07
1.1005717e-07
1.1006491e-07
1.0999386e-07
1.1000158e-07
1.0993125e-07
1.0993944e-07
1.0986952e-07
1.098784e-07
1.0980875e-07
1.0981833e-07
1.0974906e-07
1.0975911e-07
1.0969053e-07
1.097007e-07
1.0963319e-07
1.0964317e-07
1.0957702e-07
1.0958682e-07
1.0952204e-07
1.0953234e-07
1.0946883e-07
1.0948174e-07
1.0942194e-07
1.0944549e-07
1.0942518e-07
1.2396163e-07
1.2302993e-07
1.2221994e-07
1.2146483e-07
1.2080954e-07
1.2017876e-07
1.1963738e-07
1.1909792e-07
1.1864397e-07
1.1817377e-07
1.1778916e-07
1.1737277e-07
1.170446e-07
1.1667089e-07
1.1638961e-07
1.1605031e-07
1.158086e-07
1.1549754e-07
1.1528959e-07
1.1500207e-07
1.1482318e-07
1.145556e-07
1.1440184e-07
1.1415143e-07
1.140195e-07
1.137841e-07
1.1367115e-07
1.134491e-07
1.1335265e-07
1.1314265e-07
1.1306052e-07
1.1286155e-07
1.1279182e-07
1.126031e-07
1.1254406e-07
1.1236494e-07
1.1231509e-07
1.1214504e-07
1.1210305e-07
1.1194163e-07
1.1190636e-07
1.1175316e-07
1.1172362e-07
1.1157824e-07
1.115536e-07
1.1141565e-07
1.1139525e-07
1.1126428e-07
1.1124762e-07
1.1112314e-07
1.111099e-07
1.1099134e-07
1.1098132e-07
1.108681e-07
1.108612e-07
1.1075275e-07
1.1074887e-07
1.1064473e-07
1.1064367e-07
1.1054358e-07
1.1054497e-07
1.1044892e-07
1.1045218e-07
1.1036038e-07
1.1036476e-07
1.1027763e-07
1.1028231e-07
1.1020025e-07
1.1020453e-07
1.1012778e-07
1.1013125e-07
1.1005971e-07
1.100623e-07
1.0999656e-07
1.0999871e-07
1.0993418e-07
1.0993639e-07
1.0987258e-07
1.0987527e-07
1.0981185e-07
1.0981521e-07
1.0975213e-07
1.0975603e-07
1.0969355e-07
1.0969767e-07
1.0963616e-07
1.096402e-07
1.0957992e-07
1.0958394e-07
1.0952483e-07
1.0952956e-07
1.0947148e-07
1.0947909e-07
1.0942428e-07
1.0944275e-07
1.0942337e-07
1.2396193e-07
1.2302955e-07
1.2222033e-07
1.2146436e-07
1.2081002e-07
1.201782e-07
1.1963794e-07
1.190973e-07
1.186446e-07
1.1817308e-07
1.1778984e-07
1.1737204e-07
1.1704532e-07
1.1667013e-07
1.1639034e-07
1.1604954e-07
1.1580933e-07
1.1549677e-07
1.1529032e-07
1.1500133e-07
1.1482387e-07
1.145549e-07
1.1440248e-07
1.1415079e-07
1.1402007e-07
1.1378355e-07
1.1367163e-07
1.1344865e-07
1.1335301e-07
1.1314232e-07
1.1306076e-07
1.1286135e-07
1.1279192e-07
1.1260304e-07
1.1254402e-07
1.1236502e-07
1.123149e-07
1.1214526e-07
1.1210274e-07
1.1194199e-07
1.1190592e-07
1.1175364e-07
1.1172305e-07
1.1157885e-07
1.1155291e-07
1.1141638e-07
1.1139443e-07
1.1126513e-07
1.1124669e-07
1.1112411e-07
1.1110885e-07
1.1099242e-07
1.1098017e-07
1.1086928e-07
1.1085995e-07
1.1075401e-07
1.1074755e-07
1.1064605e-07
1.1064231e-07
1.1054493e-07
1.1054359e-07
1.1045028e-07
1.1045078e-07
1.1036176e-07
1.1036336e-07
1.1027903e-07
1.1028086e-07
1.1020171e-07
1.10203e-07
1.1012933e-07
1.1012961e-07
1.1006138e-07
1.1006059e-07
1.0999834e-07
1.0999682e-07
1.0993612e-07
1.0993435e-07
1.0987463e-07
1.0987316e-07
1.0981393e-07
1.0981311e-07
1.0975415e-07
1.0975405e-07
1.0969541e-07
1.0969591e-07
1.0963774e-07
1.0963875e-07
1.0958116e-07
1.0958285e-07
1.0952573e-07
1.0952877e-07
1.0947214e-07
1.0947836e-07
1.0942486e-07
1.0944153e-07
1.0942065e-07
1.239621e-07
1.2302935e-07
1.2222054e-07
1.2146412e-07
1.2081026e-07
1.2017794e-07
1.196382e-07
1.1909702e-07
1.1864486e-07
1.1817281e-07
1.1779009e-07
1.1737179e-07
1.1704553e-07
1.1666992e-07
1.1639051e-07
1.1604938e-07
1.1580945e-07
1.1549667e-07
1.1529037e-07
1.1500129e-07
1.1482385e-07
1.1455493e-07
1.1440239e-07
1.141509e-07
1.140199e-07
1.1378373e-07
1.1367138e-07
1.1344891e-07
1.1335269e-07
1.1314266e-07
1.1306036e-07
1.1286177e-07
1.1279146e-07
1.1260352e-07
1.125435e-07
1.1236555e-07
1.1231434e-07
1.1214582e-07
1.1210215e-07
1.1194256e-07
1.1190532e-07
1.1175422e-07
1.1172246e-07
1.1157942e-07
1.1155233e-07
1.1141694e-07
1.1139386e-07
1.1126569e-07
1.1124611e-07
1.1112467e-07
1.1110825e-07
1.1099301e-07
1.1097953e-07
1.1086991e-07
1.1085928e-07
1.107547e-07
1.1074682e-07
1.1064679e-07
1.1064152e-07
1.1054572e-07
1.1054276e-07
1.104511e-07
1.1044993e-07
1.103626e-07
1.1036249e-07
1.1027987e-07
1.1028e-07
1.1020255e-07
1.1020215e-07
1.1013017e-07
1.1012874e-07
1.1006224e-07
1.1005971e-07
1.0999924e-07
1.0999583e-07
1.0993714e-07
1.0993325e-07
1.0987577e-07
1.0987195e-07
1.0981516e-07
1.0981184e-07
1.0975539e-07
1.0975282e-07
1.0969656e-07
1.0969482e-07
1.096387e-07
1.096379e-07
1.0958184e-07
1.0958227e-07
1.0952616e-07
1.0952839e-07
1.0947243e-07
1.0947799e-07
1.0942509e-07
1.0944066e-07
1.0941786e-07
1.2396214e-07
1.2302931e-07
1.2222057e-07
1.2146409e-07
1.2081028e-07
1.2017794e-07
1.1963818e-07
1.1909706e-07
1.1864479e-07
1.1817291e-07
1.1778995e-07
1.1737196e-07
1.1704532e-07
1.1667017e-07
1.1639021e-07
1.1604972e-07
1.1580905e-07
1.1549711e-07
1.1528987e-07
1.1500182e-07
1.1482327e-07
1.1455555e-07
1.1440173e-07
1.1415159e-07
1.1401917e-07
1.1378448e-07
1.136706e-07
1.134497e-07
1.1335188e-07
1.1314347e-07
1.1305953e-07
1.1286258e-07
1.1279064e-07
1.1260432e-07
1.125427e-07
1.1236631e-07
1.1231359e-07
1.1214652e-07
1.1210148e-07
1.1194318e-07
1.1190474e-07
1.1175474e-07
1.1172197e-07
1.1157984e-07
1.1155194e-07
1.1141726e-07
1.1139356e-07
1.1126593e-07
1.1124588e-07
1.1112486e-07
1.1110806e-07
1.1099318e-07
1.1097935e-07
1.108701e-07
1.1085905e-07
1.1075494e-07
1.1074652e-07
1.1064712e-07
1.1064113e-07
1.1054615e-07
1.1054227e-07
1.1045161e-07
1.1044938e-07
1.1036316e-07
1.1036191e-07
1.1028044e-07
1.1027944e-07
1.1020307e-07
1.1020165e-07
1.1013062e-07
1.1012832e-07
1.1006262e-07
1.1005934e-07
1.099996e-07
1.0999545e-07
1.0993754e-07
1.0993279e-07
1.0987627e-07
1.0987137e-07
1.0981578e-07
1.0981115e-07
1.0975612e-07
1.0975205e-07
1.0969732e-07
1.0969405e-07
1.0963941e-07
1.0963723e-07
1.0958242e-07
1.0958176e-07
1.0952654e-07
1.0952809e-07
1.0947258e-07
1.0947789e-07
1.0942487e-07
1.0944045e-07
1.0941445e-07
1.2396207e-07
1.2302942e-07
1.2222045e-07
1.2146425e-07
1.208101e-07
1.2017816e-07
1.1963793e-07
1.1909736e-07
1.1864445e-07
1.1817331e-07
1.177895e-07
1.1737247e-07
1.1704476e-07
1.166708e-07
1.1638952e-07
1.1605048e-07
1.1580823e-07
1.1549799e-07
1.1528893e-07
1.1500281e-07
1.1482223e-07
1.1455663e-07
1.144006e-07
1.1415274e-07
1.1401799e-07
1.1378568e-07
1.1366939e-07
1.1345091e-07
1.1335067e-07
1.1314467e-07
1.1305835e-07
1.1286374e-07
1.1278951e-07
1.126054e-07
1.1254165e-07
1.123673e-07
1.1231265e-07
1.121474e-07
1.1210066e-07
1.1194393e-07
1.1190406e-07
1.1175534e-07
1.1172144e-07
1.115803e-07
1.1155155e-07
1.1141758e-07
1.113933e-07
1.1126614e-07
1.1124572e-07
1.1112499e-07
1.1110795e-07
1.1099327e-07
1.1097925e-07
1.1087022e-07
1.108589e-07
1.1075513e-07
1.1074628e-07
1.1064741e-07
1.1064077e-07
1.1054656e-07
1.105418e-07
1.1045213e-07
1.1044882e-07
1.1036373e-07
1.1036133e-07
1.1028099e-07
1.1027892e-07
1.1020353e-07
1.1020125e-07
1.1013094e-07
1.1012807e-07
1.1006279e-07
1.1005924e-07
1.0999965e-07
1.0999543e-07
1.0993754e-07
1.0993279e-07
1.0987628e-07
1.0987133e-07
1.0981586e-07