/*--------------------------------*- C++ -*----------------------------------*\
| =========                 |                                                 |
| \\      /  F ield         | OpenFOAM: The Open Source CFD Toolbox           |
|  \\    /   O peration     | Version:  5.x                                   |
|   \\  /    A nd           | Web:      www.OpenFOAM.org                      |
|    \\/     M anipulation  |                                                 |
\*---------------------------------------------------------------------------*/
FoamFile
{
    version     2.0;
    format      ascii;
    class       volScalarField;
    location    "5000";
    object      omega;
}
// * * * * * * * * * * * * * * * * * * * * * * * * * * * * * * * * * * * * * //

dimensions      [0 0 -1 0 0 0 0];

internalField   nonuniform List<scalar> 
209825
(
8259.7388
7576.2866
7010.4752
6534.9572
6129.5545
5780.4297
5476.2651
5209.5692
4973.2985
4763.2892
4574.7224
4405.3454
4251.5549
4112.2865
3984.6159
3868.2742
3760.7117
3662.2287
3570.4701
3486.1683
3407.0516
3334.1977
3265.3482
3201.8687
3141.4684
3085.7621
3032.3955
2983.2061
2935.7551
2892.083
2849.6524
2810.6928
2772.557
2737.6548
2703.2194
2671.8358
2640.61
2612.2963
2583.873
2558.2509
2532.2911
2509.038
2485.2577
2464.0976
2442.2557
2422.9532
2402.8406
2385.1966
2366.6291
2350.4751
2333.2904
2318.4812
2302.5381
2288.9447
2274.1234
2261.6282
2247.8274
2236.3244
2223.4547
2212.8523
2200.8303
2191.0526
2179.7992
2170.7818
2160.2263
2151.9077
2141.9943
2134.3101
2124.9971
2117.8848
2109.1335
2102.5444
2094.4142
2088.4146
2080.5818
2074.8054
2067.0397
2061.5019
2053.7877
2048.4853
2040.8242
2035.7432
2028.1417
2023.2657
2015.735
2011.0421
2003.5944
1999.0681
1991.7378
1987.2499
1980.2335
1976.0598
1966.7645
1977.5886
2076.6565
4091.8875
8259.7398
7576.2853
7010.4766
6534.9553
6129.5566
5780.4271
5476.268
5209.5659
4973.3023
4763.2849
4574.7273
4405.3399
4251.5609
4112.2797
3984.6233
3868.266
3760.7206
3662.2191
3570.4806
3486.157
3407.0638
3334.1846
3265.3623
3201.8537
3141.4844
3085.745
3032.4137
2983.1869
2935.7754
2892.0615
2849.6751
2810.6689
2772.5822
2737.6282
2703.2473
2671.8066
2640.6405
2612.2646
2583.9059
2558.2168
2532.3262
2509.0018
2485.2951
2464.0592
2442.2953
2422.9123
2402.8828
2385.1528
2366.6743
2350.4284
2333.3387
2318.4315
2302.5893
2288.8922
2274.1772
2261.5732
2247.8838
2236.2665
2223.5141
2212.7909
2200.8937
2190.9871
2179.8671
2170.7116
2160.2988
2151.833
2142.0711
2134.231
2125.0787
2117.8002
2109.2217
2102.4519
2094.5092
2088.3127
2080.6922
2074.6868
2067.1673
2061.3657
2053.9331
2048.3311
2040.9879
2035.5706
2028.323
2023.077
2015.9311
2010.8381
2003.8075
1998.8526
1991.9264
1987.1517
1980.205
1975.9341
1967.7959
1978.8665
2075.2501
3214.6805
8259.7415
7576.2826
7010.4795
6534.9516
6129.5608
5780.4221
5476.2737
5209.5592
4973.3097
4763.2764
4574.7367
4405.3293
4251.5727
4112.2667
3984.6377
3868.2503
3760.7377
3662.2004
3570.5007
3486.1352
3407.0872
3334.1595
3265.3891
3201.825
3141.515
3085.7126
3032.4481
2983.1504
2935.814
2892.0209
2849.7179
2810.6239
2772.6295
2737.5786
2703.2992
2671.7522
2640.6972
2612.2054
2583.9674
2558.153
2532.3923
2508.9335
2485.3655
2463.9866
2442.37
2422.8354
2402.9619
2385.0715
2366.758
2350.3423
2333.4271
2318.3407
2302.6824
2288.7969
2274.2747
2261.4737
2247.9853
2236.163
2223.6198
2212.6831
2201.0039
2190.8743
2179.9825
2170.5934
2160.4197
2151.7096
2142.1969
2134.103
2125.2088
2117.6679
2109.3566
2102.3139
2094.6475
2088.1672
2080.8471
2074.522
2067.3439
2061.1765
2054.1372
2048.1103
2041.2292
2035.3053
2028.6181
2022.7464
2016.3056
2010.4093
2004.3065
1998.2624
1992.6343
1986.2941
1981.2717
1974.5337
1970.4674
1960.997
1969.6193
2018.6275
8259.744
7576.2789
7010.4836
6534.9463
6129.5667
5780.415
5476.2817
5209.5499
4973.3202
4763.2644
4574.75
4405.3144
4251.5891
4112.2485
3984.6576
3868.2284
3760.7614
3662.1746
3570.5286
3486.1052
3407.1194
3334.125
3265.426
3201.7858
3141.5567
3085.6683
3032.4949
2983.101
2935.866
2891.9661
2849.7754
2810.5635
2772.6927
2737.5124
2703.3684
2671.68
2640.7724
2612.1272
2584.0486
2558.0689
2532.4792
2508.8439
2485.4578
2463.8918
2442.4674
2422.7356
2403.0642
2384.9667
2366.8653
2350.2325
2333.5394
2318.2258
2302.7996
2288.6774
2274.3963
2261.3501
2248.1106
2236.0362
2223.7481
2212.5534
2201.1351
2190.7416
2180.1167
2170.4579
2160.5564
2151.5721
2142.3346
2133.9657
2125.345
2117.5334
2109.4889
2102.184
2094.7716
2088.0427
2080.9722
2074.3968
2067.4692
2061.0527
2054.2583
2047.9946
2041.3371
2035.2092
2028.6981
2022.6898
2016.3297
2010.4312
2004.2222
1998.4304
1992.3588
1986.7041
1980.7001
1975.312
1969.2015
1964.3319
1958.9585
1993.2383
8259.747
7576.2745
7010.4884
6534.9401
6129.5737
5780.4065
5476.2913
5209.5387
4973.3326
4763.2502
4574.7657
4405.2968
4251.6085
4112.227
3984.681
3868.2028
3760.7892
3662.1445
3570.561
3486.0703
3407.1567
3334.0851
3265.4684
3201.7406
3141.6045
3085.6178
3032.5482
2983.0448
2935.925
2891.9042
2849.8402
2810.4957
2772.7634
2737.4388
2703.4451
2671.6003
2640.8552
2612.0415
2584.1373
2557.9774
2532.5735
2508.7469
2485.5572
2463.79
2442.5713
2422.6295
2403.1723
2384.8566
2366.9775
2350.1183
2333.6557
2318.1076
2302.9197
2288.5555
2274.5197
2261.2255
2248.2362
2235.9097
2223.8752
2212.4257
2201.2633
2190.6129
2180.2459
2170.3282
2160.6863
2151.4422
2142.464
2133.8375
2125.4713
2117.4096
2109.6096
2102.0668
2094.8822
2087.933
2081.081
2074.2889
2067.5758
2060.9484
2054.3591
2047.8998
2041.4236
2035.1344
2028.758
2022.6494
2016.3457
2010.4465
2004.1682
1998.5314
1992.2034
1986.9189
1980.428
1975.6222
1968.9224
1964.2435
1957.5061
1952.3603
8259.7502
7576.2698
7010.4936
6534.9334
6129.5812
5780.3975
5476.3014
5209.5269
4973.3458
4763.2353
4574.7823
4405.2783
4251.6288
4112.2046
3984.7054
3868.1762
3760.818
3662.1134
3570.5943
3486.0345
3407.1949
3334.0444
3265.5115
3201.695
3141.6526
3085.5671
3032.6014
2982.9891
2935.9834
2891.8433
2849.9037
2810.4297
2772.8319
2737.3677
2703.5187
2671.5242
2640.9338
2611.9604
2584.2207
2557.8918
2532.6612
2508.6574
2485.6484
2463.6972
2442.6655
2422.5341
2403.269
2384.7588
2367.0764
2350.0183
2333.7568
2318.0054
2303.0229
2288.4515
2274.6244
2261.1203
2248.3417
2235.8041
2223.9808
2212.3201
2201.3689
2190.5071
2180.3521
2170.2215
2160.7937
2151.3341
2142.5726
2133.7285
2125.5805
2117.3004
2109.7189
2101.9571
2094.9899
2087.8215
2081.198
2074.1653
2067.7079
2060.8066
2054.5124
2047.7337
2041.6051
2034.935
2028.9796
2022.4002
2016.6298
2010.1185
2004.5517
1998.0787
1992.7431
1986.2708
1981.2105
1974.6798
1970.0322
1963.0912
1960.5692
1949.5076
8259.7533
7576.2653
7010.4985
6534.9271
6129.5883
5780.3889
5476.3111
5209.5157
4973.3583
4763.2212
4574.7979
4405.2609
4251.6478
4112.1838
3984.728
3868.1516
3760.8444
3662.0849
3570.6248
3486.002
3407.2293
3334.0079
3265.55
3201.6544
3141.6952
3085.5225
3032.648
2982.9405
2936.0338
2891.791
2849.9578
2810.3738
2772.8896
2737.3083
2703.5797
2671.4615
2640.998
2611.8948
2584.2877
2557.8235
2532.7304
2508.5872
2485.7192
2463.6259
2442.7371
2422.4623
2403.3408
2384.687
2367.1482
2349.9465
2333.8285
2317.9337
2303.0945
2288.38
2274.6956
2261.0495
2248.412
2235.7345
2224.0496
2212.252
2201.4363
2190.4402
2180.4186
2170.1551
2160.8602
2151.2674
2142.6395
2133.6615
2125.6476
2117.2332
2109.7861
2101.8896
2095.0562
2087.7528
2081.27
2074.0894
2067.7886
2060.7209
2054.6037
2047.6368
2041.7077
2034.8269
2029.0936
2022.2803
2016.7559
2009.9865
2004.6891
1997.9372
1992.8869
1986.1276
1981.3486
1974.5586
1970.0905
1963.2863
1959.452
1953.4313
8259.7559
7576.2615
7010.5027
6534.9217
6129.5943
5780.3817
5476.3191
5209.5064
4973.3686
4763.2095
4574.8107
4405.2467
4251.6633
4112.1669
3984.7463
3868.1318
3760.8656
3662.0623
3570.6489
3485.9765
3407.2563
3333.9795
3265.5797
3201.6234
3141.7275
3085.4889
3032.6827
2982.9047
2936.0707
2891.7531
2849.9966
2810.3341
2772.93
2737.2671
2703.6215
2671.4192
2641.0408
2611.8515
2584.3312
2557.7799
2532.7741
2508.5438
2485.7623
2463.5835
2442.7788
2422.4214
2403.3807
2384.648
2367.1861
2349.9096
2333.8644
2317.8989
2303.1283
2288.3474
2274.727
2261.0194
2248.4406
2235.7074
2224.0751
2212.2283
2201.4583
2190.4199
2180.4374
2170.1378
2160.8759
2151.2533
2142.6519
2133.651
2125.656
2117.2273
2109.7894
2101.8892
2095.0537
2087.7582
2081.261
2074.1022
2067.7711
2060.7437
2054.5743
2047.6743
2041.6603
2034.8863
2029.0196
2022.3717
2016.6439
2010.1227
2004.5247
1998.1344
1992.6521
1986.4053
1981.0224
1974.9388
1969.6483
1963.8179
1958.6764
1954.9029
8259.7576
7576.2588
7010.5055
6534.918
6129.5984
5780.3767
5476.3246
5209.5001
4973.3756
4763.2016
4574.8193
4405.2372
4251.6735
4112.1557
3984.7583
3868.119
3760.8792
3662.0478
3570.6641
3485.9605
3407.2729
3333.9623
3265.5975
3201.6051
3141.7463
3085.4697
3032.7022
2982.8849
2936.0906
2891.733
2850.0167
2810.3141
2772.9499
2737.2474
2703.6409
2671.4
2641.0595
2611.8333
2584.3488
2557.763
2532.7901
2508.5288
2485.7762
2463.5708
2442.7901
2422.4117
2403.3889
2384.6414
2367.1911
2349.9062
2333.8662
2317.8987
2303.1269
2288.3504
2274.7224
2261.0258
2248.4325
2235.7175
2224.0631
2212.2423
2201.4423
2190.4379
2180.4174
2170.1599
2160.8518
2151.2795
2142.6236
2133.6816
2125.6229
2117.2629
2109.7511
2101.9303
2095.0109
2087.8046
2081.2103
2074.157
2067.7114
2060.8084
2054.504
2047.7503
2041.5778
2034.9754
2028.9232
2022.4755
2016.5322
2010.2419
2004.398
1998.2677
1992.5126
1986.5504
1980.8719
1975.0925
1969.4979
1963.9517
1958.5685
1954.8577
8259.7583
7576.2578
7010.5067
6534.9165
6129.6002
5780.3746
5476.3269
5209.4974
4973.3785
4763.1984
4574.8227
4405.2335
4251.6775
4112.1515
3984.7626
3868.1144
3760.884
3662.043
3570.669
3485.9556
3407.2778
3333.9575
3265.6021
3201.6007
3141.7503
3085.466
3032.7055
2982.8821
2936.0928
2891.7314
2850.0176
2810.3139
2772.9493
2737.2489
2703.6386
2671.4033
2641.0553
2611.8386
2584.3424
2557.7706
2532.7813
2508.5389
2485.7646
2463.5839
2442.7754
2422.4279
2403.371
2384.661
2367.1699
2349.929
2333.8419
2317.9245
2303.0997
2288.379
2274.6923
2261.0572
2248.3997
2235.7516
2224.0276
2212.279
2201.4044
2190.477
2180.3772
2170.201
2160.8098
2151.3224
2142.58
2133.7259
2125.5782
2117.3081
2109.7058
2101.9757
2094.9669
2087.8492
2081.1652
2074.2023
2067.666
2060.8535
2054.4595
2047.7936
2041.5362
2035.0145
2028.8872
2022.5073
2016.5056
2010.2621
2004.3857
1998.2701
1992.522
1986.5274
1980.9098
1975.0384
1969.5696
1963.8582
1958.6805
1954.5924
8259.7578
7576.2585
7010.506
6534.9174
6129.5992
5780.3758
5476.3256
5209.499
4973.3768
4763.2005
4574.8205
4405.2361
4251.6746
4112.1548
3984.759
3868.1185
3760.8794
3662.048
3570.6634
3485.9619
3407.2709
3333.9651
3265.5938
3201.6099
3141.7403
3085.477
3032.6936
2982.8951
2936.0789
2891.7465
2850.0014
2810.3312
2772.9309
2737.2685
2703.6178
2671.4253
2641.0321
2611.863
2584.3168
2557.7973
2532.7533
2508.5682
2485.734
2463.6158
2442.7423
2422.4625
2403.3352
2384.698
2367.1317
2349.9683
2333.8015
2317.9658
2303.0575
2288.422
2274.6487
2261.1015
2248.3549
2235.7969
2223.982
2212.325
2201.3583
2190.5232
2180.3311
2170.247
2160.7642
2151.3676
2142.5354
2133.7697
2125.5354
2117.3497
2109.6655
2102.0144
2094.9309
2087.8842
2081.1315
2074.2347
2067.6352
2060.8825
2054.4324
2047.8185
2041.5138
2035.0343
2028.8704
2022.521
2016.4951
2010.2693
2004.3818
1998.2708
1992.5244
1986.522
1980.9177
1975.0291
1969.5777
1963.8529
1958.6724
1954.4679
8259.7559
7576.2611
7010.5032
6534.9209
6129.5954
5780.3804
5476.3206
5209.5047
4973.3704
4763.2076
4574.8126
4405.2448
4251.6651
4112.1652
3984.7477
3868.1308
3760.8662
3662.0623
3570.6482
3485.9782
3407.2535
3333.9837
3265.5741
3201.6308
3141.7182
3085.5004
3032.669
2982.9209
2936.0518
2891.7749
2849.9718
2810.3621
2772.8989
2737.3017
2703.5835
2671.4608
2640.9956
2611.9006
2584.2782
2557.837
2532.7127
2508.6097
2485.6917
2463.6591
2442.6982
2422.5074
2403.2896
2384.7443
2367.0848
2350.0157
2333.7537
2318.014
2303.0091
2288.4706
2274.6001
2261.1501
2248.3063
2235.8454
2223.9337
2212.373
2201.3106
2190.5705
2180.2842
2170.2934
2160.7183
2151.4128
2142.491
2133.8132
2125.4928
2117.3913
2109.6251
2102.0536
2094.894
2087.9206
2081.0956
2074.2701
2067.6003
2060.917
2054.3982
2047.8525
2041.4799
2035.068
2028.8366
2022.5551
2016.4606
2010.3046
2004.3453
1998.3088
1992.4845
1986.5639
1980.874
1975.0746
1969.5299
1963.902
1958.6145
1954.3944
8259.7528
7576.2654
7010.4986
6534.9267
6129.589
5780.388
5476.3123
5209.5143
4973.36
4763.2194
4574.7998
4405.259
4251.6498
4112.1819
3984.7299
3868.15
3760.8458
3662.0841
3570.6251
3486.0027
3407.2277
3334.0109
3265.5455
3201.6608
3141.6869
3085.533
3032.6351
2982.9561
2936.0154
2891.8125
2849.9331
2810.4019
2772.858
2737.3436
2703.5407
2671.5045
2640.9511
2611.9458
2584.2324
2557.8835
2532.6657
2508.6573
2485.6437
2463.7075
2442.6494
2422.5564
2403.2404
2384.7938
2367.0353
2350.0653
2333.7043
2318.0633
2302.9599
2288.5195
2274.5514
2261.1985
2248.2582
2235.8931
2223.8864
2212.42
2201.2639
2190.6169
2180.2382
2170.3391
2160.673
2151.4578
2142.4464
2133.8575
2125.449
2117.4347
2109.5822
2102.096
2094.8533
2087.9617
2081.054
2074.3123
2067.5574
2060.9606
2054.3537
2047.898
2041.4332
2035.1161
2028.7871
2022.6062
2016.4075
2010.36
2004.2874
1998.3698
1992.4203
1986.6315
1980.8028
1975.1493
1969.4509
1963.9842
1958.5222
1954.3688
8259.7487
7576.2713
7010.4923
6534.9346
6129.5804
5780.3981
5476.3012
5209.5271
4973.3461
4763.2349
4574.7831
4405.2774
4251.6301
4112.2033
3984.7072
3868.1744
3760.82
3662.1115
3570.5963
3486.033
3407.196
3334.0441
3265.511
3201.6967
3141.6498
3085.5714
3032.5955
2982.9969
2935.9736
2891.8553
2849.8894
2810.4466
2772.8126
2737.3898
2703.4939
2671.5519
2640.9033
2611.9941
2584.1838
2557.9323
2532.6167
2508.7065
2485.5945
2463.7568
2442.6003
2422.6055
2403.1915
2384.8425
2366.987
2350.1134
2333.6566
2318.1107
2302.9131
2288.5659
2274.5055
2261.2439
2248.2134
2235.9375
2223.8425
2212.4635
2201.2209
2190.6595
2180.1959
2170.3811
2160.6313
2151.4992
2142.4053
2133.8983
2125.4085
2117.4749
2109.5424
2102.1355
2094.8152
2088.0003
2081.0149
2074.352
2067.5172
2061.0015
2054.3122
2047.9402
2041.3904
2035.1596
2028.743
2022.651
2016.362
2010.4062
2004.2403
1998.4178
1992.3716
1986.6809
1980.7531
1975.1993
1969.4005
1964.0332
1958.4682
1954.3082
8259.7437
7576.2783
7010.4849
6534.944
6129.5702
5780.4102
5476.288
5209.542
4973.3299
4763.253
4574.7637
4405.2987
4251.6074
4112.2278
3984.6812
3868.2021
3760.7909
3662.1423
3570.5641
3486.0668
3407.161
3334.0806
3265.4734
3201.7356
3141.6098
3085.6127
3032.5534
2983.0401
2935.9296
2891.9002
2849.8439
2810.4928
2772.7659
2737.437
2703.4464
2671.5997
2640.8553
2612.0422
2584.1357
2557.9805
2532.5686
2508.7544
2485.5468
2463.8042
2442.5531
2422.6523
2403.1452
2384.8884
2366.9416
2350.1582
2333.6124
2318.1543
2302.8702
2288.6082
2274.464
2261.2847
2248.1734
2235.9769
2223.8039
2212.5015
2201.1837
2190.6962
2180.16
2170.4165
2160.5966
2151.5334
2142.3717
2133.9314
2125.376
2117.5068
2109.5111
2102.1664
2094.7857
2088.03
2080.9851
2074.3819
2067.4872
2061.0316
2054.2821
2047.9702
2041.3606
2035.1891
2028.7139
2022.6797
2016.3339
2010.4338
2004.2135
1998.4438
1992.3466
1986.7047
1980.7306
1975.2201
1969.3812
1964.0491
1958.4488
1954.2202
8259.7383
7576.286
7010.4767
6534.9542
6129.5592
5780.4232
5476.2739
5209.5582
4973.3125
4763.2723
4574.7429
4405.3213
4251.5834
4112.2536
3984.6539
3868.2311
3760.7606
3662.1742
3570.5309
3486.1015
3407.1251
3334.1178
3265.4351
3201.7751
3141.5693
3085.6541
3032.5112
2983.0831
2935.886
2891.9445
2849.7991
2810.5381
2772.7203
2737.4829
2703.4004
2671.6459
2640.8092
2612.0884
2584.0897
2558.0264
2532.523
2508.7998
2485.5018
2463.8488
2442.509
2422.6959
2403.1021
2384.9308
2366.8998
2350.1994
2333.572
2318.1939
2302.8314
2288.6462
2274.4269
2261.321
2248.138
2236.0113
2223.7704
2212.534
2201.1521
2190.7269
2180.1302
2170.4455
2160.5685
2151.5607
2142.3452
2133.9572
2125.3509
2117.5313
2109.4873
2102.1896
2094.7636
2088.0521
2080.9631
2074.4038
2067.4654
2061.0533
2054.2606
2047.9915
2041.3397
2035.2097
2028.6938
2022.6993
2016.3149
2010.4523
2004.1957
1998.461
1992.3302
1986.7204
1980.7158
1975.234
1969.3677
1964.0602
1958.4322
1954.1394
8259.7327
7576.2938
7010.4685
6534.9645
6129.548
5780.4364
5476.2597
5209.5743
4973.2951
4763.2916
4574.7223
4405.3437
4251.5596
4112.2791
3984.6271
3868.2595
3760.7309
3662.2054
3570.4985
3486.1352
3407.0903
3334.1538
3265.3982
3201.8131
3141.5306
3085.6937
3032.4709
2983.1241
2935.8446
2891.9865
2849.7568
2810.5808
2772.6775
2737.526
2703.3572
2671.6891
2640.766
2612.1316
2584.0467
2558.0692
2532.4805
2508.8421
2485.4599
2463.8904
2442.468
2422.7365
2403.0622
2384.9703
2366.8611
2350.2374
2333.5347
2318.2305
2302.7956
2288.6812
2274.3928
2261.3542
2248.1058
2236.0427
2223.74
2212.5635
2201.1236
2190.7545
2180.1035
2170.4713
2160.5435
2151.585
2142.3217
2133.98
2125.3288
2117.5529
2109.4662
2102.2103
2094.744
2088.0718
2080.9434
2074.4237
2067.4454
2061.0733
2054.2406
2048.0116
2041.3197
2035.2296
2028.674
2022.7191
2016.2954
2010.4718
2004.1764
1998.4804
1992.3109
1986.7399
1980.6962
1975.2538
1969.3472
1964.0793
1958.4061
1954.0764
8259.7274
7576.3012
7010.4607
6534.9743
6129.5375
5780.4487
5476.2464
5209.5894
4973.2789
4763.3095
4574.7032
4405.3645
4251.5377
4112.3027
3984.6024
3868.2857
3760.7036
3662.2341
3570.4689
3486.1661
3407.0585
3334.1867
3265.3645
3201.8477
3141.4954
3085.7298
3032.4343
2983.1613
2935.8069
2892.0247
2849.7183
2810.6196
2772.6384
2737.5653
2703.3178
2671.7287
2640.7265
2612.1711
2584.0073
2558.1086
2532.4413
2508.881
2485.4212
2463.9288
2442.4299
2422.7742
2403.0249
2385.0071
2366.8247
2350.2733
2333.4994
2318.2652
2302.7616
2288.7146
2274.3602
2261.3862
2248.0746
2236.0731
2223.7103
2212.5925
2201.0954
2190.782
2180.0767
2170.4974
2160.5181
2151.6098
2142.2975
2134.0038
2125.3055
2117.5758
2109.4437
2102.2324
2094.7227
2088.0933
2080.9217
2074.4456
2067.4234
2061.0957
2054.2181
2048.0343
2041.2969
2035.2527
2028.651
2022.7423
2016.2722
2010.4951
2004.153
1998.504
1992.2872
1986.7639
1980.672
1975.2783
1969.322
1964.1028
1958.3758
1954.0236
8259.7228
7576.3077
7010.4539
6534.9827
6129.5285
5780.4594
5476.2349
5209.6024
4973.265
4763.3249
4574.6868
4405.3823
4251.5188
4112.3228
3984.5813
3868.3081
3760.6803
3662.2585
3570.4435
3486.1925
3407.0314
3334.2148
3265.3357
3201.8773
3141.4651
3085.7607
3032.4029
2983.1934
2935.7744
2892.0577
2849.685
2810.6533
2772.6044
2737.5996
2703.2834
2671.7633
2640.6917
2612.206
2583.9723
2558.1436
2532.4063
2508.9161
2485.3863
2463.9637
2442.3952
2422.8089
2402.9905
2385.0414
2366.7908
2350.307
2333.4661
2318.2982
2302.729
2288.7468
2274.3284
2261.4175
2248.0437
2236.1035
2223.6805
2212.6219
2201.0665
2190.8105
2180.0488
2170.525
2160.491
2151.6365
2142.2712
2134.0298
2125.2799
2117.6012
2109.4187
2102.2572
2094.6989
2088.1174
2080.8973
2074.4703
2067.3984
2061.1209
2054.1926
2048.0601
2041.2709
2035.2789
2028.6246
2022.7689
2016.2455
2010.5221
2004.126
1998.5313
1992.2597
1986.7918
1980.6439
1975.3065
1969.2932
1964.1296
1958.3421
1953.9797
8259.7192
7576.3127
7010.4486
6534.9893
6129.5214
5780.4676
5476.226
5209.6125
4973.2542
4763.3368
4574.6742
4405.396
4251.5044
4112.3383
3984.5651
3868.3253
3760.6623
3662.2774
3570.424
3486.2128
3407.0104
3334.2365
3265.3134
3201.9003
3141.4416
3085.7848
3032.3783
2983.2185
2935.7488
2892.0837
2849.6585
2810.6802
2772.5773
2737.6272
2703.2556
2671.7915
2640.6633
2612.2347
2583.9434
2558.1727
2532.3771
2508.9455
2485.3567
2463.9934
2442.3654
2422.8388
2402.9605
2385.0714
2366.7608
2350.337
2333.4362
2318.3281
2302.6993
2288.7764
2274.299
2261.4468
2248.0147
2236.1324
2223.6518
2212.6503
2201.0383
2190.8384
2180.0211
2170.5525
2160.4638
2151.6636
2142.2444
2134.0564
2125.2535
2117.6273
2109.3928
2102.2829
2094.6742
2088.1424
2080.872
2074.496
2067.3725
2061.1472
2054.1661
2048.087
2041.2437
2035.3064
2028.5968
2022.7971
2016.217
2010.551
2004.0967
1998.5612
1992.2294
1986.8226
1980.6125
1975.3384
1969.2604
1964.1608
1958.3034
1953.9468
8259.7169
7576.3158
7010.4453
6534.9934
6129.517
5780.4728
5476.2205
5209.6188
4973.2475
4763.3443
4574.6663
4405.4046
4251.4953
4112.348
3984.5548
3868.3361
3760.651
3662.2893
3570.4117
3486.2257
3406.997
3334.2504
3265.2991
3201.9151
3141.4264
3085.8005
3032.3623
2983.235
2935.732
2892.1009
2849.641
2810.6981
2772.559
2737.6458
2703.2367
2671.8108
2640.6438
2612.2546
2583.9232
2558.1933
2532.3563
2508.9667
2485.3353
2464.0152
2442.3434
2422.861
2402.938
2385.0941
2366.7379
2350.3601
2333.4129
2318.3515
2302.6757
2288.8001
2274.2752
2261.4707
2247.9908
2236.1563
2223.6279
2212.6743
2201.0144
2190.8623
2179.9973
2170.5762
2160.4401
2151.6872
2142.2209
2134.0798
2125.2303
2117.6504
2109.3699
2102.3056
2094.6522
2088.1646
2080.8495
2074.5187
2067.3494
2061.1706
2054.1425
2048.1109
2041.2195
2035.331
2028.572
2022.8222
2016.1915
2010.5769
2004.0705
1998.5878
1992.2024
1986.8501
1980.5847
1975.3665
1969.2315
1964.1877
1958.2692
1953.9139
8259.7162
7576.3169
7010.4442
6534.9948
6129.5156
5780.4745
5476.2187
5209.6208
4973.2453
4763.3467
4574.6637
4405.4074
4251.4923
4112.3512
3984.5515
3868.3397
3760.6473
3662.2932
3570.4075
3486.2301
3406.9925
3334.2551
3265.2943
3201.9202
3141.4212
3085.8059
3032.3566
2983.2408
2935.726
2892.1072
2849.6345
2810.7049
2772.5521
2737.653
2703.2292
2671.8185
2640.6358
2612.2628
2583.9147
2558.2021
2532.3471
2508.9761
2485.3255
2464.0253
2442.333
2422.8718
2402.927
2385.1055
2366.7262
2350.3721
2333.4006
2318.3641
2302.6629
2288.8132
2274.2619
2261.4843
2247.977
2236.1704
2223.6137
2212.6887
2200.9999
2190.8771
2179.9824
2170.5912
2160.425
2151.7023
2142.2057
2134.095
2125.2151
2117.6657
2109.3547
2102.3208
2094.6376
2088.1795
2080.8344
2074.5341
2067.3338
2061.1864
2054.1264
2048.1272
2041.203
2035.3478
2028.555
2022.8396
2016.174
2010.5947
2004.0525
1998.6061
1992.1841
1986.8686
1980.5661
1975.385
1969.2126
1964.2042
1958.2457
1953.8743
8259.7171
7576.3157
7010.4455
6534.9932
6129.5173
5780.4725
5476.2208
5209.6184
4973.248
4763.3438
4574.6669
4405.404
4251.4959
4112.3474
3984.5555
3868.3355
3760.6517
3662.2886
3570.4123
3486.2251
3406.9977
3334.2498
3265.2997
3201.9145
3141.4269
3085.8001
3032.3626
2983.2348
2935.7321
2892.101
2849.6408
2810.6986
2772.5583
2737.6467
2703.2355
2671.8123
2640.6419
2612.2568
2583.9207
2558.1963
2532.3528
2508.9707
2485.3308
2464.0202
2442.3378
2422.8673
2402.9312
2385.1015
2366.7298
2350.3688
2333.4036
2318.3614
2302.6653
2288.8111
2274.2637
2261.4827
2247.9782
2236.1694
2223.6144
2212.6883
2201
2190.8773
2179.982
2170.592
2160.424
2151.7036
2142.2042
2134.0968
2125.2132
2117.6678
2109.3525
2102.3233
2094.6351
2088.1823
2080.8315
2074.5373
2067.3305
2061.19
2054.1225
2048.1314
2041.1986
2035.3525
2028.5499
2022.845
2016.1683
2010.6008
2004.0461
1998.6128
1992.177
1986.876
1980.5584
1975.3929
1969.2039
1964.2109
1958.2313
1953.8302
8259.7196
7576.3121
7010.4492
6534.9885
6129.5223
5780.4667
5476.2271
5209.6113
4973.2555
4763.3355
4574.6757
4405.3945
4251.506
4112.3366
3984.5668
3868.3235
3760.6642
3662.2754
3570.426
3486.2108
3407.0125
3334.2344
3265.3156
3201.8981
3141.4438
3085.7827
3032.3804
2983.2165
2935.7508
2892.0819
2849.6602
2810.6787
2772.5785
2737.6262
2703.2562
2671.7912
2640.6632
2612.2354
2583.9422
2558.1745
2532.3746
2508.9487
2485.3527
2463.9983
2442.3597
2422.8454
2402.953
2385.0798
2366.7515
2350.3473
2333.425
2318.3402
2302.6863
2288.7903
2274.2843
2261.4624
2247.9983
2236.1496
2223.634
2212.669
2201.0189
2190.8586
2180.0003
2170.5739
2160.4417
2151.6862
2142.2213
2134.0801
2125.2295
2117.6518
2109.3681
2102.308
2094.6496
2088.1678
2080.8459
2074.5229
2067.3448
2061.1759
2054.1366
2048.1175
2041.2123
2035.339
2028.5632
2022.832
2016.1811
2010.5883
2004.0584
1998.601
1992.1887
1986.8648
1980.5694
1975.3821
1969.2139
1964.1986
1958.2361
1953.7714
8259.7238
7576.3064
7010.4553
6534.9811
6129.5302
5780.4574
5476.2371
5209.6001
4973.2675
4763.3222
4574.6897
4405.3792
4251.5221
4112.3194
3984.5849
3868.3043
3760.6842
3662.2544
3570.4479
3486.1879
3407.0362
3334.2097
3265.341
3201.8718
3141.4709
3085.7547
3032.4091
2983.187
2935.7809
2892.051
2849.6918
2810.6465
2772.6114
2737.5927
2703.2903
2671.7566
2640.6983
2612.1997
2583.9784
2558.138
2532.4115
2508.9114
2485.3904
2463.9603
2442.3979
2422.8069
2402.9917
2385.0409
2366.7904
2350.3082
2333.4642
2318.3009
2302.7256
2288.7509
2274.3236
2261.423
2248.0376
2236.1103
2223.6731
2212.63
2201.0578
2190.8198
2180.0389
2170.5355
2160.4799
2151.6483
2142.2589
2134.0427
2125.2666
2117.615
2109.4046
2102.2719
2094.6844
2088.1326
2080.8815
2074.487
2067.3811
2061.1392
2054.1737
2048.0801
2041.2502
2035.301
2028.6018
2022.7932
2016.2203
2010.5489
2004.0983
1998.5608
1992.2294
1986.8237
1980.6111
1975.3397
1969.2566
1964.1524
1958.2762
1953.6768
8259.7294
7576.2986
7010.4634
6534.9711
6129.5409
5780.4449
5476.2503
5209.5851
4973.2834
4763.3046
4574.7083
4405.3591
4251.5432
4112.2967
3984.6086
3868.2792
3760.7104
3662.2268
3570.4764
3486.158
3407.067
3334.1776
3265.374
3201.8376
3141.506
3085.7185
3032.4461
2983.1489
2935.8198
2892.0111
2849.7325
2810.6049
2772.6537
2737.5495
2703.3341
2671.7119
2640.7436
2612.1536
2584.0249
2558.0907
2532.4593
2508.8631
2485.4391
2463.911
2442.4476
2422.7567
2403.0422
2384.9901
2366.8416
2350.2566
2333.5159
2318.2489
2302.7778
2288.6984
2274.3763
2261.3702
2248.0906
2236.0572
2223.7263
2212.5767
2201.1112
2190.7664
2180.0923
2170.4822
2160.5332
2151.595
2142.3121
2133.9896
2125.3196
2117.5622
2109.4572
2102.2194
2094.7353
2088.0809
2080.9342
2074.4334
2067.4358
2061.0837
2054.2304
2048.0225
2041.309
2035.2411
2028.6629
2022.731
2016.284
2010.484
2004.1647
1998.493
1992.2988
1986.7528
1980.6838
1975.2651
1969.3325
1964.072
1958.351
1953.5524
8259.7363
7576.2893
7010.4731
6534.959
6129.5537
5780.43
5476.2663
5209.5671
4973.3024
4763.2837
4574.7304
4405.3352
4251.5683
4112.27
3984.6365
3868.2497
3760.741
3662.1947
3570.5097
3486.1234
3407.1027
3334.1407
3265.412
3201.7984
3141.5461
3085.6773
3032.4882
2983.1057
2935.8638
2891.9661
2849.7781
2810.5583
2772.7009
2737.5015
2703.3828
2671.6626
2640.7935
2612.1031
2584.0759
2558.0391
2532.5113
2508.8105
2485.492
2463.8577
2442.5012
2422.7027
2403.0964
2384.9355
2366.8964
2350.2016
2333.5711
2318.1935
2302.8334
2288.6427
2274.4321
2261.3142
2248.1466
2236.0011
2223.7824
2212.5205
2201.1673
2190.7102
2180.1484
2170.4261
2160.5892
2151.5391
2142.3679
2133.9339
2125.3751
2117.5069
2109.5123
2102.1645
2094.7885
2088.0269
2080.9893
2074.3775
2067.4928
2061.0257
2054.2895
2047.9624
2041.3703
2035.1787
2028.7266
2022.6661
2016.3502
2010.4166
2004.2336
1998.4228
1992.3706
1986.6796
1980.7585
1975.1888
1969.4098
1963.9907
1958.4257
1953.4319
8259.744
7576.2787
7010.4842
6534.9454
6129.5681
5780.4132
5476.2841
5209.5471
4973.3236
4763.2605
4574.7548
4405.3088
4251.5958
4112.2406
3984.6669
3868.2175
3760.7742
3662.1599
3570.5454
3486.0862
3407.1408
3334.1013
3265.4522
3201.757
3141.5882
3085.6342
3032.532
2983.0611
2935.909
2891.9202
2849.8245
2810.5113
2772.7483
2737.4535
2703.431
2671.6139
2640.8424
2612.0539
2584.1253
2557.9895
2532.5609
2508.7607
2485.5418
2463.8078
2442.551
2422.6529
2403.1461
2384.8858
2366.9458
2350.1522
2333.6203
2318.1444
2302.8821
2288.5941
2274.4804
2261.2662
2248.1943
2235.9536
2223.8295
2212.4737
2201.2137
2190.6642
2180.1941
2170.3808
2160.6341
2151.4946
2142.4119
2133.8904
2125.4182
2117.4642
2109.5544
2102.1229
2094.8285
2087.9865
2081.03
2074.3364
2067.5343
2060.9839
2054.3317
2047.9199
2041.4133
2035.1354
2028.7704
2022.622
2016.3949
2010.3716
2004.2791
1998.3771
1992.4168
1986.6332
1980.8052
1975.1418
1969.4562
1963.942
1958.4659
1953.3513
8259.7523
7576.2673
7010.496
6534.9309
6129.5835
5780.3953
5476.303
5209.5259
4973.3459
4763.236
4574.7804
4405.2812
4251.6246
4112.2101
3984.6986
3868.1843
3760.8085
3662.1242
3570.582
3486.0484
3407.1794
3334.0616
3265.4925
3201.7158
3141.6299
3085.5917
3032.5748
2983.0176
2935.9527
2891.876
2849.8688
2810.4667
2772.7929
2737.4088
2703.4756
2671.5692
2640.8867
2612.0096
2584.1692
2557.9458
2532.6043
2508.7177
2485.5843
2463.7656
2442.5926
2422.6118
2403.1866
2384.8459
2366.9851
2350.1135
2333.6582
2318.1071
2302.9187
2288.5582
2274.5154
2261.2318
2248.2279
2235.9208
2223.8615
2212.4424
2201.2442
2190.6345
2180.2229
2170.3527
2160.6613
2151.4682
2142.4375
2133.8656
2125.4421
2117.4411
2109.5767
2102.1014
2094.8486
2087.9668
2081.0494
2074.3174
2067.5528
2060.9658
2054.3494
2047.9027
2041.43
2035.1192
2028.786
2022.607
2016.4093
2010.3579
2004.2921
1998.365
1992.4282
1986.6229
1980.8146
1975.1334
1969.4627
1963.9342
1958.4639
1953.3162
8259.7609
7576.2556
7010.5081
6534.916
6129.5992
5780.3771
5476.3222
5209.5043
4973.3686
4763.2112
4574.8064
4405.2533
4251.6535
4112.1794
3984.7302
3868.1511
3760.8425
3662.0888
3570.6181
3486.0111
3407.2172
3334.0228
3265.5318
3201.6758
3141.6702
3085.5509
3032.6158
2982.9763
2935.994
2891.8346
2849.9101
2810.4254
2772.8339
2737.3679
2703.516
2671.5291
2640.9263
2611.9704
2584.2077
2557.9078
2532.6414
2508.6812
2485.62
2463.7307
2442.6266
2422.5785
2403.2188
2384.8144
2367.0155
2350.084
2333.6867
2318.0796
2302.9451
2288.5328
2274.5398
2261.2084
2248.2502
2235.8995
2223.8817
2212.4232
2201.2623
2190.6173
2180.239
2170.3376
2160.6754
2151.4551
2142.4496
2133.8543
2125.4524
2117.4317
2109.5852
2102.0938
2094.8552
2087.9608
2081.0546
2074.3129
2067.5566
2060.9628
2054.3516
2047.9013
2041.4306
2035.1195
2028.7849
2022.6091
2016.4063
2010.362
2004.2871
1998.3711
1992.421
1986.6312
1980.805
1975.1441
1969.4499
1963.946
1958.4424
1953.3035
8259.7694
7576.2441
7010.5201
6534.9013
6129.6147
5780.3591
5476.3412
5209.4831
4973.3909
4763.1868
4574.8318
4405.2261
4251.6818
4112.1494
3984.7611
3868.1187
3760.8757
3662.0544
3570.6532
3485.9749
3407.2539
3333.9853
3265.5696
3201.6373
3141.7089
3085.5116
3032.655
2982.9368
2936.0334
2891.795
2849.9493
2810.3861
2772.8727
2737.3293
2703.5541
2671.4913
2640.9634
2611.9337
2584.2437
2557.8724
2532.676
2508.6472
2485.6531
2463.6983
2442.6581
2422.5479
2403.2485
2384.7856
2367.0434
2350.057
2333.7126
2318.0545
2302.9692
2288.5096
2274.562
2261.1872
2248.2704
2235.8802
2223.9
2212.4058
2201.2788
2190.6017
2180.2536
2170.3238
2160.6883
2151.4429
2142.4609