/*--------------------------------*- C++ -*----------------------------------*\
| =========                 |                                                 |
| \\      /  F ield         | OpenFOAM: The Open Source CFD Toolbox           |
|  \\    /   O peration     | Version:  5.x                                   |
|   \\  /    A nd           | Web:      www.OpenFOAM.org                      |
|    \\/     M anipulation  |                                                 |
\*---------------------------------------------------------------------------*/
FoamFile
{
    version     2.0;
    format      ascii;
    class       volScalarField;
    location    "5000";
    object      p;
}
// * * * * * * * * * * * * * * * * * * * * * * * * * * * * * * * * * * * * * //

dimensions      [0 2 -2 0 0 0 0];

internalField   nonuniform List<scalar> 
209825
(
21.272739
21.277527
21.289101
21.306688
21.329241
21.356328
21.387803
21.423491
21.463168
21.506624
21.553683
21.604197
21.658031
21.715062
21.775179
21.838283
21.904287
21.973112
22.044687
22.118949
22.195843
22.275321
22.357339
22.441862
22.528856
22.618296
22.71016
22.80443
22.901095
23.000146
23.101577
23.205389
23.311586
23.420174
23.531164
23.644573
23.760419
23.878725
23.999518
24.122828
24.248692
24.377147
24.508239
24.642016
24.778531
24.917843
25.060015
25.205117
25.353226
25.504421
25.658794
25.816438
25.977459
26.14197
26.31009
26.481952
26.657698
26.837481
27.021467
27.209838
27.402788
27.600529
27.803292
28.011327
28.224909
28.444335
28.669931
28.902055
29.141099
29.387493
29.641718
29.904279
30.172265
30.448684
30.741257
31.051934
31.383058
31.737223
32.117454
32.527418
32.971603
33.455538
33.986113
34.572066
35.224661
35.958757
36.794301
37.759265
38.892761
40.257009
41.937606
44.126381
47.013615
51.683532
58.225689
80.109146
21.272739
21.277527
21.289101
21.306688
21.329241
21.356328
21.387803
21.423491
21.463168
21.506624
21.553683
21.604197
21.658031
21.715061
21.775178
21.838283
21.904287
21.973112
22.044686
22.118949
22.195843
22.275321
22.357339
22.441861
22.528855
22.618295
22.710159
22.80443
22.901095
23.000145
23.101576
23.205388
23.311585
23.420173
23.531164
23.644572
23.760418
23.878724
23.999517
24.122827
24.24869
24.377146
24.508238
24.642014
24.778529
24.917841
25.060013
25.205115
25.353223
25.504418
25.65879
25.816435
25.977456
26.141966
26.310086
26.481947
26.657693
26.837475
27.021461
27.209831
27.402781
27.600521
27.803283
28.011318
28.224899
28.444324
28.669919
28.902041
29.141084
29.387476
29.641699
29.904259
30.172242
30.448659
30.741229
31.051902
31.383022
31.737182
32.117407
32.527363
32.971539
33.455462
33.986023
34.571957
35.224527
35.958588
36.794083
37.758977
38.892368
40.256442
41.936779
44.124847
47.011895
51.66996
58.249163
78.76164
21.272739
21.277527
21.289101
21.306688
21.32924
21.356328
21.387803
21.423491
21.463168
21.506623
21.553682
21.604196
21.65803
21.715061
21.775178
21.838282
21.904286
21.973111
22.044686
22.118948
22.195842
22.27532
22.357338
22.44186
22.528854
22.618294
22.710158
22.804429
22.901093
23.000143
23.101575
23.205387
23.311583
23.420171
23.531162
23.64457
23.760416
23.878722
23.999514
24.122824
24.248687
24.377143
24.508234
24.642011
24.778525
24.917836
25.060008
25.20511
25.353218
25.504413
25.658784
25.816428
25.977449
26.141958
26.310077
26.481938
26.657683
26.837464
27.021449
27.209818
27.402766
27.600506
27.803267
28.0113
28.224879
28.444301
28.669894
28.902014
29.141054
29.387443
29.641663
29.904218
30.172197
30.448608
30.741172
31.051839
31.38295
31.737099
32.117312
32.527254
32.971411
33.455311
33.985842
34.571737
35.224256
35.958249
36.793648
37.758401
38.891584
40.255319
41.935097
44.122026
47.007057
51.654339
58.211763
77.459893
21.272738
21.277526
21.2891
21.306687
21.32924
21.356327
21.387802
21.42349
21.463167
21.506622
21.553682
21.604195
21.658029
21.71506
21.775177
21.838282
21.904285
21.97311
22.044685
22.118947
22.195841
22.275319
22.357337
22.441859
22.528853
22.618293
22.710156
22.804427
22.901091
23.000141
23.101573
23.205384
23.31158
23.420168
23.531159
23.644567
23.760413
23.878718
23.99951
24.12282
24.248683
24.377138
24.508229
24.642005
24.778519
24.91783
25.060001
25.205103
25.35321
25.504404
25.658775
25.816418
25.977438
26.141946
26.310064
26.481924
26.657667
26.837447
27.021431
27.209798
27.402745
27.600482
27.80324
28.011271
28.224847
28.444267
28.669856
28.901972
29.141008
29.387392
29.641606
29.904155
30.172127
30.44853
30.741085
31.05174
31.382838
31.736972
32.117166
32.527085
32.971214
33.455077
33.985563
34.571399
35.22384
35.957726
36.792978
37.757516
38.890378
40.253589
41.93253
44.117619
46.999944
51.630057
58.138902
76.300327
21.272737
21.277525
21.289099
21.306686
21.329239
21.356326
21.387801
21.423489
21.463166
21.506621
21.553681
21.604194
21.658028
21.715059
21.775176
21.83828
21.904284
21.973109
22.044683
22.118945
22.195839
22.275317
22.357335
22.441857
22.528851
22.61829
22.710154
22.804424
22.901089
23.000139
23.101569
23.205381
23.311577
23.420164
23.531155
23.644563
23.760408
23.878713
23.999505
24.122814
24.248677
24.377131
24.508222
24.641997
24.778511
24.917821
25.059992
25.205092
25.353198
25.504392
25.658762
25.816404
25.977422
26.141929
26.310046
26.481905
26.657646
26.837425
27.021406
27.209771
27.402715
27.600449
27.803205
28.011232
28.224805
28.44422
28.669805
28.901916
29.140945
29.387322
29.641529
29.904069
30.172031
30.448424
30.740966
31.051606
31.382686
31.736799
32.116967
32.526854
32.970945
33.454759
33.985183
34.570939
35.223273
35.957015
36.792064
37.756311
38.888735
40.251233
41.929031
44.111621
46.990257
51.596412
58.048546
75.187522
21.272736
21.277525
21.289098
21.306685
21.329238
21.356325
21.3878
21.423488
21.463165
21.50662
21.553679
21.604193
21.658027
21.715058
21.775174
21.838279
21.904282
21.973107
22.044681
22.118943
22.195837
22.275315
22.357333
22.441854
22.528848
22.618288
22.710151
22.804421
22.901085
23.000135
23.101566
23.205377
23.311573
23.42016
23.53115
23.644557
23.760402
23.878707
23.999498
24.122807
24.248669
24.377123
24.508213
24.641988
24.778501
24.91781
25.05998
25.205079
25.353184
25.504377
25.658745
25.816386
25.977403
26.141908
26.310024
26.48188
26.657619
26.837395
27.021374
27.209737
27.402677
27.600408
27.80316
28.011183
28.22475
28.44416
28.669739
28.901843
29.140865
29.387233
29.64143
29.90396
30.171909
30.448288
30.740813
31.051435
31.382492
31.736578
32.116713
32.52656
32.970601
33.454353
33.984697
34.57035
35.222548
35.956105
36.790897
37.75477
38.886635
40.248224
41.92456
44.103983
46.977691
51.554547
57.940757
74.096845
21.272735
21.277523
21.289097
21.306684
21.329237
21.356324
21.387799
21.423487
21.463164
21.506619
21.553678
21.604192
21.658025
21.715056
21.775173
21.838277
21.90428
21.973105
22.044679
22.118941
22.195835
22.275312
22.35733
22.441851
22.528845
22.618284
22.710147
22.804417
22.901081
23.00013
23.101561
23.205372
23.311567
23.420154
23.531143
23.644551
23.760395
23.878699
23.99949
24.122798
24.248659
24.377113
24.508202
24.641976
24.778488
24.917796
25.059965
25.205063
25.353167
25.504358
25.658725
25.816364
25.977379
26.141883
26.309996
26.48185
26.657586
26.83736
27.021335
27.209694
27.402631
27.600357
27.803104
28.011122
28.224683
28.444087
28.669658
28.901753
29.140766
29.387124
29.641309
29.903825
30.171759
30.448121
30.740627
31.051225
31.382254
31.736307
32.116401
32.526199
32.970179
33.453855
33.984101
34.569628
35.221659
35.954989
36.789465
37.75288
38.884061
40.244536
41.919079
44.094632
46.962125
51.504752
57.814515
73.030437
21.272734
21.277522
21.289096
21.306683
21.329235
21.356322
21.387797
21.423485
21.463162
21.506617
21.553676
21.60419
21.658023
21.715054
21.77517
21.838274
21.904278
21.973102
22.044676
22.118938
22.195832
22.275309
22.357326
22.441848
22.528841
22.61828
22.710143
22.804412
22.901076
23.000125
23.101555
23.205366
23.311561
23.420147
23.531136
23.644543
23.760386
23.87869
23.99948
24.122788
24.248648
24.3771
24.508189
24.641962
24.778473
24.91778
25.059947
25.205044
25.353146
25.504336
25.658701
25.816338
25.977351
26.141852
26.309962
26.481813
26.657547
26.837317
27.021289
27.209643
27.402575
27.600297
27.803038
28.011049
28.224603
28.443999
28.669561
28.901647
29.140648
29.386994
29.641165
29.903665
30.17158
30.447922
30.740404
31.050974
31.38197
31.735983
32.116029
32.525768
32.969675
33.45326
33.983391
34.568767
35.220599
35.953658
36.787758
37.750626
38.880991
40.240139
41.912546
44.083504
46.943438
51.447045
57.670455
71.990062
21.272732
21.277521
21.289094
21.306681
21.329234
21.356321
21.387795
21.423483
21.46316
21.506615
21.553674
21.604187
21.658021
21.715051
21.775168
21.838272
21.904275
21.973099
22.044673
22.118935
22.195828
22.275305
22.357322
22.441843
22.528837
22.618275
22.710138
22.804407
22.90107
23.000119
23.101548
23.205359
23.311553
23.420139
23.531127
23.644533
23.760376
23.878679
23.999469
24.122775
24.248635
24.377086
24.508173
24.641945
24.778455
24.91776
25.059926
25.205022
25.353122
25.50431
25.658673
25.816308
25.977318
26.141816
26.309923
26.481771
26.657501
26.837267
27.021234
27.209584
27.40251
27.600226
27.80296
28.010964
28.22451
28.443896
28.669448
28.901522
29.140511
29.386842
29.640996
29.903477
30.171372
30.44769
30.740144
31.050681
31.381638
31.735604
32.115595
32.525265
32.969087
33.452565
33.98256
34.567761
35.21936
35.952104
36.785763
37.747994
38.877407
40.235007
41.904918
44.070537
46.921495
51.381512
57.50957
70.975141
21.27273
21.277519
21.289092
21.306679
21.329232
21.356319
21.387793
21.423481
21.463158
21.506613
21.553671
21.604185
21.658018
21.715048
21.775165
21.838269
21.904272
21.973096
22.044669
22.118931
22.195824
22.275301
22.357318
22.441838
22.528831
22.61827
22.710132
22.804401
22.901063
23.000112
23.101541
23.20535
23.311544
23.420129
23.531117
23.644523
23.760365
23.878667
23.999455
24.122761
24.248619
24.37707
24.508156
24.641926
24.778434
24.917738
25.059902
25.204996
25.353094
25.50428
25.65864
25.816272
25.97728
26.141775
26.309879
26.481722
26.657448
26.837209
27.021172
27.209515
27.402436
27.600144
27.802871
28.010866
28.224403
28.443778
28.669318
28.901379
29.140353
29.386667
29.640802
29.903261
30.171131
30.447422
30.739844
31.050344
31.381256
31.735169
32.115095
32.524686
32.96841
33.451766
33.981605
34.566603
35.217935
35.950316
36.783469
37.744968
38.873286
40.229111
41.896153
44.05567
46.896168
51.308282
57.332736
69.984757
21.272728
21.277517
21.28909
21.306677
21.329229
21.356316
21.387791
21.423479
21.463155
21.50661
21.553669
21.604182
21.658015
21.715045
21.775161
21.838265
21.904268
21.973092
22.044665
22.118926
22.195819
22.275296
22.357312
22.441833
22.528825
22.618263
22.710125
22.804394
22.901056
23.000103
23.101532
23.205341
23.311534
23.420119
23.531106
23.64451
23.760352
23.878653
23.99944
24.122745
24.248602
24.377051
24.508136
24.641904
24.778411
24.917713
25.059875
25.204967
25.353063
25.504245
25.658603
25.816232
25.977237
26.141728
26.309828
26.481667
26.657388
26.837144
27.0211
27.209438
27.402351
27.600051
27.802769
28.010755
28.224281
28.443644
28.669171
28.901216
29.140173
29.386468
29.640581
29.903016
30.170858
30.447118
30.739504
31.04996
31.380822
31.734674
32.114526
32.524028
32.967641
33.450858
33.98052
34.565288
35.216316
35.948285
36.780865
37.741532
38.868609
40.222421
41.886206
44.038839
46.867342
51.227487
57.140772
69.018168
21.272725
21.277514
21.289087
21.306674
21.329227
21.356314
21.387788
21.423476
21.463152
21.506607
21.553665
21.604179
21.658012
21.715042
21.775158
21.838261
21.904264
21.973087
22.044661
22.118921
22.195814
22.27529
22.357307
22.441827
22.528819
22.618256
22.710118
22.804385
22.901047
23.000094
23.101522
23.205331
23.311523
23.420107
23.531093
23.644497
23.760337
23.878637
23.999423
24.122727
24.248582
24.37703
24.508113
24.64188
24.778385
24.917685
25.059845
25.204934
25.353027
25.504207
25.658562
25.816188
25.977188
26.141675
26.30977
26.481605
26.65732
26.83707
27.02102
27.20935
27.402256
27.599947
27.802655
28.01063
28.224143
28.443493
28.669005
28.901033
29.13997
29.386244
29.640333
29.90274
30.170551
30.446776
30.739121
31.04953
31.380334
31.734117
32.113887
32.523288
32.966776
33.449837
33.9793
34.56381
35.214496
35.946002
36.777937
37.73767
38.863353
40.214908
41.875034
44.019984
46.83491
51.139261
56.934485
68.074709
21.272722
21.277512
21.289084
21.306671
21.329224
21.356311
21.387785
21.423473
21.463149
21.506604
21.553662
21.604175
21.658008
21.715038
21.775153
21.838257
21.904259
21.973082
22.044655
22.118916
22.195808
22.275284
22.3573
22.44182
22.528811
22.618248
22.710109
22.804376
22.901038
23.000084
23.101511
23.205319
23.31151
23.420093
23.531078
23.644481
23.760321
23.878619
23.999404
24.122706
24.248561
24.377006
24.508088
24.641853
24.778355
24.917653
25.059811
25.204897
25.352988
25.504164
25.658516
25.816137
25.977134
26.141616
26.309707
26.481536
26.657245
26.836988
27.020931
27.209253
27.402149
27.599831
27.802528
28.01049
28.22399
28.443325
28.668819
28.900829
29.139745
29.385994
29.640056
29.902433
30.170209
30.446395
30.738694
31.049049
31.37979
31.733497
32.113174
32.522463
32.965812
33.448698
33.977938
34.562161
35.212466
35.943456
36.774672
37.733366
38.857497
40.206541
41.862593
43.999045
46.798774
51.043741
56.714679
67.153728
21.272719
21.277509
21.289081
21.306668
21.329221
21.356308
21.387782
21.423469
21.463146
21.5066
21.553658
21.604171
21.658004
21.715033
21.775149
21.838252
21.904254
21.973077
22.04465
22.11891
22.195802
22.275277
22.357293
22.441812
22.528803
22.61824
22.7101
22.804366
22.901027
23.000073
23.101499
23.205306
23.311497
23.420078
23.531063
23.644464
23.760302
23.8786
23.999383
24.122684
24.248536
24.37698
24.50806
24.641823
24.778323
24.917618
25.059773
25.204856
25.352944
25.504117
25.658464
25.816082
25.977073
26.141551
26.309636
26.481459
26.657161
26.836897
27.020832
27.209145
27.402031
27.599702
27.802387
28.010336
28.223821
28.443139
28.668614
28.900603
29.139495
29.385718
29.639749
29.902092
30.16983
30.445972
30.738221
31.048516
31.379186
31.732809
32.112385
32.521548
32.964743
33.447436
33.976431
34.560335
35.210219
35.940638
36.771059
37.728602
38.851017
40.19729
41.848837
43.975961
46.758847
50.941072
56.482145
66.254593
21.272716
21.277506
21.289078
21.306665
21.329217
21.356304
21.387778
21.423465
21.463142
21.506596
21.553654
21.604167
21.657999
21.715028
21.775144
21.838246
21.904248
21.973071
22.044643
22.118903
22.195795
22.275269
22.357285
22.441803
22.528794
22.61823
22.710089
22.804355
22.901015
23.00006
23.101486
23.205292
23.311481
23.420062
23.531045
23.644446
23.760282
23.878578
23.99936
24.122659
24.24851
24.376952
24.508029
24.64179
24.778287
24.91758
25.059732
25.204812
25.352895
25.504064
25.658408
25.816021
25.977007
26.141479
26.309558
26.481374
26.657069
26.836797
27.020723
27.209026
27.401901
27.59956
27.802232
28.010166
28.223634
28.442933
28.668388
28.900354
29.13922
29.385413
29.639411
29.901716
30.169412
30.445507
30.7377
31.04793
31.378522
31.732052
32.111515
32.520542
32.963567
33.446047
33.974771
34.558325
35.207745
35.937536
36.767082
37.723362
38.843891
40.187123
41.833722
43.950676
46.715047
50.8314
56.237658
65.376688
21.272712
21.277502
21.289074
21.306661
21.329214
21.3563
21.387774
21.423461
21.463137
21.506591
21.553649
21.604162
21.657994
21.715023
21.775138
21.83824
21.904242
21.973064
22.044636
22.118896
22.195787
22.275261
22.357276
22.441794
22.528784
22.618219
22.710078
22.804343
22.901002
23.000046
23.101471
23.205276
23.311465
23.420044
23.531026
23.644425
23.76026
23.878555
23.999335
24.122632
24.24848
24.37692
24.507995
24.641753
24.778248
24.917538
25.059686
25.204762
25.352842
25.504007
25.658346
25.815954
25.976935
26.1414
26.309472
26.481281
26.656969
26.836687
27.020603
27.208896
27.401759
27.599405
27.802061
28.009979
28.223429
28.442708
28.66814
28.90008
29.138918
29.385079
29.639041
29.901305
30.168954
30.444997
30.73713
31.047287
31.377794
31.731222
32.110563
32.519439
32.962278
33.444526
33.972954
34.556123
35.205036
35.934139
36.762729
37.717627
38.836095
40.176009
41.817203
43.923132
46.667306
50.714879
55.981979
64.519423
21.272708
21.277499
21.28907
21.306657
21.329209
21.356296
21.38777
21.423457
21.463133
21.506586
21.553644
21.604156
21.657988
21.715017
21.775132
21.838234
21.904235
21.973057
22.044629
22.118887
22.195778
22.275252
22.357266
22.441784
22.528773
22.618208
22.710066
22.80433
22.900988
23.000032
23.101455
23.205259
23.311446
23.420025
23.531005
23.644403
23.760236
23.878529
23.999307
24.122602
24.248449
24.376886
24.507958
24.641714
24.778205
24.917492
25.059636
25.204709
25.352784
25.503945
25.658278
25.81588
25.976855
26.141315
26.309379
26.48118
26.656859
26.836568
27.020473
27.208753
27.401604
27.599235
27.801876
28.009775
28.223206
28.442463
28.66787
28.899782
29.138589
29.384715
29.638637
29.900856
30.168455
30.444441
30.736507
31.046586
31.377
31.730317
32.109524
32.518236
32.960873
33.442867
33.970972
34.553723
35.202083
35.930437
36.757986
37.71138
38.827605
40.163916
41.799235
43.893274
46.615562
50.591667
55.715853
63.68223
21.272704
21.277495
21.289065
21.306652
21.329205
21.356291
21.387765
21.423452
21.463127
21.506581
21.553639
21.604151
21.657982
21.715011
21.775125
21.838227
21.904228
21.973049
22.04462
22.118879
22.195769
22.275242
22.357256
22.441773
22.528761
22.618195
22.710052
22.804316
22.900973
23.000015
23.101438
23.20524
23.311426
23.420003
23.530982
23.644378
23.76021
23.878501
23.999277
24.12257
24.248414
24.376849
24.507918
24.64167
24.778159
24.917442
25.059582
25.204651
25.352722
25.503877
25.658205
25.815801
25.976769
26.141221
26.309278
26.48107
26.656739
26.836438
27.020331
27.208599
27.401435
27.59905
27.801674
28.009554
28.222963
28.442196
28.667577
28.899459
29.138231
29.384319
29.638198
29.900369
30.167912
30.443837
30.735831
31.045825
31.376138
31.729334
32.108395
32.516929
32.959346
33.441064
33.968819
34.551116
35.198876
35.926418
36.752837
37.704601
38.818398
40.150812
41.779773
43.861049
46.559764
50.461926
55.440009
62.864559
21.272699
21.27749
21.28906
21.306648
21.3292
21.356286
21.38776
21.423446
21.463122
21.506575
21.553633
21.604144
21.657976
21.715004
21.775118
21.838219
21.90422
21.973041
22.044611
22.118869
22.195759
22.275232
22.357244
22.441761
22.528748
22.618181
22.710038
22.804301
22.900957
22.999998
23.101419
23.20522
23.311405
23.41998
23.530958
23.644352
23.760182
23.878471
23.999245
24.122535
24.248376
24.376808
24.507875
24.641624
24.778108
24.917387
25.059524
25.204588
25.352653
25.503803
25.658125
25.815715
25.976676
26.14112
26.309168
26.480951
26.65661
26.836297
27.020178
27.208432
27.401252
27.598851
27.801455
28.009315
28.2227
28.441907
28.667259
28.899108
29.137844
29.383891
29.637723
29.899841
30.167324
30.443182
30.735098
31.045
31.375204
31.72827
32.107173
32.515514
32.957694
33.439114
33.966489
34.548295
35.195406
35.92207
36.747269
37.697273
38.808447
40.136663
41.758772
43.826407
46.499869
50.325824
55.155159
62.065883
21.272694
21.277485
21.289055
21.306642
21.329195
21.356281
21.387754
21.423441
21.463116
21.506569
21.553626
21.604138
21.657969
21.714996
21.77511
21.838211
21.904211
21.973032
22.044602
22.118859
22.195748
22.27522
22.357232
22.441748
22.528735
22.618167
22.710022
22.804284
22.900939
22.999979
23.101399
23.205199
23.311382
23.419956
23.530931
23.644323
23.760151
23.878438
23.999209
24.122497
24.248336
24.376765
24.507828
24.641573
24.778054
24.917329
25.059461
25.20452
25.35258
25.503724
25.658039
25.815622
25.976575
26.141011
26.30905
26.480822
26.65647
26.836145
27.020012
27.208251
27.401055
27.598635
27.801219
28.009056
28.222417
28.441595
28.666915
28.89873
29.137426
29.383428
29.63721
29.899271
30.16669
30.442476
30.734307
31.04411
31.374196
31.727121
32.105854
32.513988
32.95591
33.437009
33.963975
34.545251
35.191663
35.917381
36.741265
37.689375
38.79773
40.121439
41.736189
43.789297
46.435843
50.183531
54.861996
61.285697
21.272689
21.27748
21.289049
21.306637
21.329189
21.356275
21.387748
21.423434
21.46311
21.506563
21.553619
21.60413
21.657961
21.714988
21.775102
21.838202
21.904202
21.973022
22.044591
22.118848
22.195736
22.275208
22.357219
22.441734
22.52872
22.618151
22.710005
22.804266
22.90092
22.999958
23.101377
23.205175
23.311357
23.419929
23.530902
23.644293
23.760119
23.878403
23.999172
24.122457
24.248292
24.376718
24.507778
24.641519
24.777996
24.917266
25.059393
25.204446
25.352501
25.503638
25.657947
25.815522
25.976467
26.140893
26.308922
26.480684
26.656319
26.835981
27.019834
27.208056
27.400843
27.598403
27.800965
28.008778
28.222111
28.44126
28.666546
28.898322
29.136976
29.38293
29.636658
29.898657
30.166008
30.441715
30.733456
31.043152
31.373111
31.725884
32.104434
32.512345
32.953991
33.434744
33.96127
34.541977
35.187638
35.912339
36.734811
37.680888
38.786219
40.105104
41.71198
43.749674
46.367661
50.035224
54.561197
60.523514
21.272683
21.277475
21.289043
21.306631
21.329183
21.356269
21.387742
21.423428
21.463103
21.506555
21.553612
21.604122
21.657953
21.71498
21.775093
21.838193
21.904192
21.973011
22.04458
22.118836
22.195724
22.275194
22.357205
22.441719
22.528704
22.618134
22.709987
22.804247
22.900899
22.999936
23.101353
23.20515
23.31133
23.4199
23.530872
23.64426
23.760083
23.878365
23.999131
24.122413
24.248245
24.376668
24.507723
24.641461
24.777933
24.917198
25.05932
25.204368
25.352416
25.503546
25.657847
25.815414
25.97635
26.140767
26.308785
26.480535
26.656158
26.835805
27.019642
27.207847
27.400615
27.598154
27.800693
28.008479
28.221783
28.440899
28.666149
28.897885
29.136492
29.382395
29.636065
29.897999
30.165275
30.440899
30.732542
31.042123
31.371947
31.724557
32.10291
32.510581
32.951931
33.432313
33.958367
34.538464
35.183319
35.906931
36.727891
37.671793
38.773889
40.087627
41.686102
43.707494
46.295309
49.881084
54.253417
59.778868
21.272676
21.277469
21.289037
21.306624
21.329177
21.356262
21.387735
21.423421
21.463095
21.506548
21.553604
21.604114
21.657944
21.714971
21.775083
21.838183
21.904181
21.973
22.044568
22.118823
22.19571
22.27518
22.35719
22.441703
22.528687
22.618116
22.709968
22.804226
22.900877
22.999913
23.101328
23.205123
23.311301
23.419869
23.530839
23.644225
23.760045
23.878324
23.999088
24.122366
24.248195
24.376614
24.507665
24.641398
24.777866
24.917126
25.059242
25.204283
25.352325
25.503448
25.657741
25.815299
25.976226
26.140632
26.308639
26.480376
26.655984
26.835616
27.019437
27.207624
27.40037
27.597887
27.8004
28.008159
28.221431
28.440513
28.665724
28.897416
29.135975
29.381822
29.63543
29.897293
30.164489
30.440024
30.731563
31.041021
31.370699
31.723135
32.101278
32.508692
32.949725
33.429709
33.955259
34.534703
35.178696
35.901144
36.720489
37.662068
38.760715
40.068975
41.658513
43.662715
46.218778
49.721293
53.939293
59.051312
21.27267
21.277462
21.28903
21.306617
21.32917
21.356255
21.387727
21.423413
21.463087
21.506539
21.553595
21.604105
21.657935
21.714961
21.775073
21.838172
21.90417
21.972988
22.044555
22.11881
22.195696
22.275165
22.357174
22.441685
22.528668
22.618096
22.709947
22.804204
22.900853
22.999887
23.101301
23.205095
23.31127
23.419836
23.530804
23.644187
23.760005
23.878281
23.999041
24.122316
24.248142
24.376556
24.507603
24.641331
24.777794
24.917048
25.059158
25.204193
25.352227
25.503343
25.657627
25.815176
25.976092
26.140487
26.308482
26.480205
26.655799
26.835415
27.019217
27.207384
27.400109
27.597601
27.800088
28.007816
28.221056
28.4401
28.665269
28.896914
29.135421
29.381209
29.63475
29.896538
30.16365
30.439089
30.730517
31.039843
31.369365
31.721615
32.099533
32.506673
32.947367
33.426928
33.951938
34.530685
35.173759
35.894965
36.712588
37.651694
38.74667
40.049113
41.629171
43.615298
46.13807
49.55604
53.619442
58.340416
21.272662
21.277456
21.289023
21.30661
21.329162
21.356247
21.387719
21.423405
21.463079
21.506531
21.553586
21.604096
21.657925
21.71495
21.775062
21.83816
21.904157
21.972975
22.044542
22.118795
22.195681
22.275149
22.357156
22.441667
22.528649
22.618075
22.709925
22.80418
22.900828
22.999861
23.101273
23.205064
23.311238
23.419801
23.530766
23.644147
23.759962
23.878234
23.998991
24.122263
24.248084
24.376494
24.507537
24.64126
24.777717
24.916965
25.059069
25.204097
25.352123
25.50323
25.657506
25.815044
25.97595
26.140333
26.308314
26.480023
26.655601
26.8352
27.018983
27.207129
27.39983
27.597296
27.799754
28.007451
28.220654
28.439659
28.664784
28.896379
29.13483
29.380556
29.634025
29.895733
30.162754
30.438091
30.7294
31.038586
31.367942
31.719993
32.097672
32.504519
32.944852
33.423961
33.948397
34.526402
35.168496
35.88838
36.704172
37.64065
38.731728
40.02801
41.598038
43.56521
46.053195
49.385516
53.294461
57.64577
21.272655
21.277448
21.289015
21.306602
21.329154
21.356239
21.387711
21.423396
21.46307
21.506521
21.553576
21.604085
21.657914
21.714939
21.77505
21.838148
21.904144
21.972961
22.044527
22.11878
22.195664
22.275131
22.357138
22.441647
22.528628
22.618053
22.709901
22.804155
22.900801
22.999832
23.101242
23.205031
23.311203
23.419764
23.530726
23.644104
23.759916
23.878185
23.998938
24.122206
24.248023
24.376429
24.507466
24.641184
24.777635
24.916877
25.058974
25.203994
25.352013
25.503111
25.657376
25.814904
25.975798
26.140168
26.308136
26.47983
26.655391
26.83497
27.018733
27.206856
27.399533
27.596971
27.799399
28.007061
28.220227
28.439189
28.664267
28.895809
29.1342
29.379859
29.633253
29.894874
30.161799
30.437028
30.72821
31.037247
31.366426
31.718266
32.09569
32.502226
32.942174
33.420802
33.944627
34.521842
35.162896
35.881376
36.695223
37.628913
38.715862
40.005631
41.565072
43.512417
45.964171
49.209916
52.964928
56.96698
21.272646
21.277441
21.289006
21.306593
21.329146
21.356231
21.387702
21.423387
21.46306
21.506511
21.553566
21.604074
21.657903
21.714927
21.775037
21.838135
21.90413
21.972946
22.044512
22.118764
22.195647
22.275113
22.357118
22.441627
22.528606
22.61803
22.709876
22.804128
22.900773
22.999801
23.101209
23.204996
23.311165
23.419724
23.530683
23.644058
23.759867
23.878133
23.998882
24.122146
24.247958
24.376359
24.507391
24.641103
24.777548
24.916783
25.058873
25.203885
25.351895
25.502983
25.657238
25.814755
25.975637
26.139993
26.307946
26.479623
26.655167
26.834727
27.018468
27.206567
27.399217
27.596626
27.79902
28.006647
28.219772
28.438689
28.663717
28.895203
29.133531
29.379118
29.632432
29.893962
30.160784
30.435897
30.726945
31.035823
31.364814
31.716429
32.093582
32.499787
32.939328
33.417444
33.940621
34.516998
35.156948
35.873938
36.685725
37.616464
38.699044
39.981946
41.530238
43.456891
45.871023
49.029437
52.631397
56.303669
21.272638
21.277433
21.288997
21.306584
21.329137
21.356221
21.387693
21.423377
21.46305
21.506501
21.553555
21.604063
21.657891
21.714915
21.775024
21.838121
21.904116
21.972931
22.044495
22.118746
22.195628
22.275093
22.357097
22.441604
22.528582
22.618005
22.70985
22.8041
22.900743
22.999769
23.101175
23.204959
23.311126
23.419682
23.530638
23.644009
23.759815
23.878077
23.998822
24.122081
24.247889
24.376285
24.507311
24.641017
24.777456
24.916684
25.058765
25.203769
25.351769
25.502848
25.657092
25.814597
25.975465
26.139807
26.307744
26.479404
26.654928
26.834468
27.018185
27.206259
27.398881
27.596259
27.798619
28.006206
28.219289
28.438159
28.663133
28.894559
29.132819
29.378331
29.631559
29.892993
30.159706
30.434696
30.725601
31.034311
31.363102
31.714479
32.091344
32.497199
32.936306
33.413881
33.93637
34.511859
35.150639
35.866053
36.675659
37.603279
38.68125
39.956921
41.493498
43.398608
45.773787
48.844281
52.294404
55.655473
21.272629
21.277424
21.288988
21.306575
21.329127
21.356212
21.387682
21.423367
21.463039
21.506489
21.553543
21.604051
21.657878
21.714901
21.77501
21.838106
21.9041
21.972914
22.044478
22.118728
22.195609
22.275072
22.357075
22.441581
22.528557
22.617978
22.709821
22.80407
22.90071
22.999735
23.101138
23.20492
23.311084
23.419637
23.53059
23.643958
23.75976
23.878018
23.998759
24.122013
24.247816
24.376206
24.507227
24.640926
24.777357
24.916578
25.058651
25.203646
25.351637
25.502704
25.656937
25.814429
25.975283
26.13961
26.30753
26.479172
26.654676
26.834193
27.017886
27.205933
27.398525
27.595869
27.798193
28.00574
28.218777
28.437596
28.662513
28.893876
29.132065
29.377496
29.630634
29.891965
30.158563
30.433423
30.724176
31.032708
31.361288
31.712412
32.088972
32.494455
32.933103
33.410105
33.931866
34.506415
35.143957
35.857705
36.665008
37.589338
38.66245
39.930524
41.454817
43.337545
45.672502
48.65465
51.954465
55.022045
21.272619
21.277415
21.288978
21.306565
21.329117
21.356201
21.387672
21.423355
21.463028
21.506478
21.553531
21.604038
21.657864
21.714887
21.774995
21.83809
21.904083
21.972897
22.044459
22.118708
22.195588
22.27505
22.357052
22.441556
22.528531
22.61795
22.709791
22.804038
22.900676
22.999698
23.101099
23.204879
23.31104
23.419589
23.530539
23.643903
23.759701
23.877955
23.998691
24.121941
24.247738
24.376123
24.507137
24.64083
24.777253
24.916466
25.05853
25.203516
25.351496
25.502552
25.656772
25.814251
25.97509
26.139401
26.307303
26.478926
26.654408
26.833902
27.017569
27.205587
27.398147
27.595457
27.797741
28.005245
28.218234
28.436999
28.661856
28.893152
29.131266
29.376612
29.629654
29.890876
30.157352
30.432074
30.722667
31.03101
31.359366
31.710223
32.08646
32.49155
32.929713
33.406108
33.9271
34.500655
35.136891
35.848879
36.653754
37.574617
38.64262
39.902723
41.414164
43.273685
45.567218
48.460749
51.612072
54.403053
21.272608
21.277405
21.288967
21.306554
21.329107
21.35619
21.38766
21.423344
21.463016
21.506465
21.553517
21.604024
21.65785
21.714872
21.774979
21.838073
21.904066
21.972878
22.044439
22.118687
22.195566
22.275027
22.357027
22.44153
22.528503
22.61792
22.70976
22.804004
22.90064
22.99966
23.101058
23.204835
23.310993
23.419539
23.530485
23.643846
23.759639
23.877889
23.99862
24.121865
24.247656
24.376034
24.507042
24.640728
24.777143
24.916347
25.058403
25.203378
25.351347
25.502391
25.656598
25.814063
25.974886
26.13918
26.307063
26.478665
26.654125
26.833593
27.017233
27.205221
27.397748
27.59502
27.797264
28.004722
28.21766
28.436368