/*--------------------------------*- C++ -*----------------------------------*\
| =========                 |                                                 |
| \\      /  F ield         | OpenFOAM: The Open Source CFD Toolbox           |
|  \\    /   O peration     | Version:  5.x                                   |
|   \\  /    A nd           | Web:      www.OpenFOAM.org                      |
|    \\/     M anipulation  |                                                 |
\*---------------------------------------------------------------------------*/
FoamFile
{
    version     2.0;
    format      ascii;
    class       volVectorField;
    location    "5000";
    object      wallShearStress;
}
// * * * * * * * * * * * * * * * * * * * * * * * * * * * * * * * * * * * * * //

dimensions      [0 2 -2 0 0 0 0];

internalField   uniform (0 0 0);

boundaryField
{
    inlet
    {
        type            calculated;
        value           uniform (0 0 0);
    }
    outlet
    {
        type            calculated;
        value           uniform (0 0 0);
    }
    topWall
    {
        type            calculated;
        value           nonuniform List<vector> 
545
(
(1.9588589e-08 -2.589929e-08 0)
(1.958252e-08 -7.2445566e-08 0)
(1.9571709e-08 -1.2084419e-07 0)
(1.9556296e-08 -1.6784201e-07 0)
(1.9536896e-08 -2.1283952e-07 0)
(1.9513958e-08 -2.5641446e-07 0)
(1.9487743e-08 -2.9893668e-07 0)
(1.9458484e-08 -3.4038628e-07 0)
(1.9426437e-08 -3.8067256e-07 0)
(1.9391864e-08 -4.1979485e-07 0)
(1.9355006e-08 -4.5780476e-07 0)
(1.9316082e-08 -4.9474581e-07 0)
(1.9275299e-08 -5.3064334e-07 0)
(1.9232848e-08 -5.6551844e-07 0)
(1.9188916e-08 -5.993959e-07 0)
(1.9143671e-08 -6.3230266e-07 0)
(1.9097276e-08 -6.6426512e-07 0)
(1.9049879e-08 -6.9530843e-07 0)
(1.9001622e-08 -7.254572e-07 0)
(1.8952635e-08 -7.5473571e-07 0)
(1.8903042e-08 -7.8316797e-07 0)
(1.8852957e-08 -8.1077746e-07 0)
(1.8802486e-08 -8.3758724e-07 0)
(1.8751728e-08 -8.6361978e-07 0)
(1.8700777e-08 -8.8889715e-07 0)
(1.8649716e-08 -9.1344085e-07 0)
(1.8598628e-08 -9.3727195e-07 0)
(1.8547583e-08 -9.6041095e-07 0)
(1.8496651e-08 -9.8287793e-07 0)
(1.8445894e-08 -1.0046924e-06 0)
(1.839537e-08 -1.0258733e-06 0)
(1.8345132e-08 -1.0464393e-06 0)
(1.8295228e-08 -1.0664084e-06 0)
(1.8245703e-08 -1.0857981e-06 0)
(1.8196599e-08 -1.1046256e-06 0)
(1.814795e-08 -1.1229074e-06 0)
(1.8099791e-08 -1.1406598e-06 0)
(1.8052152e-08 -1.1578983e-06 0)
(1.8005061e-08 -1.1746383e-06 0)
(1.795854e-08 -1.1908945e-06 0)
(1.7912612e-08 -1.2066814e-06 0)
(1.7867296e-08 -1.2220129e-06 0)
(1.7822609e-08 -1.2369027e-06 0)
(1.7778564e-08 -1.2513637e-06 0)
(1.7735174e-08 -1.2654088e-06 0)
(1.769245e-08 -1.2790504e-06 0)
(1.7650401e-08 -1.2923006e-06 0)
(1.7609034e-08 -1.3051709e-06 0)
(1.7568353e-08 -1.3176727e-06 0)
(1.7528364e-08 -1.3298169e-06 0)
(1.7489069e-08 -1.3416141e-06 0)
(1.745047e-08 -1.3530748e-06 0)
(1.7412566e-08 -1.3642088e-06 0)
(1.7375358e-08 -1.3750259e-06 0)
(1.7338844e-08 -1.3855355e-06 0)
(1.7303021e-08 -1.3957466e-06 0)
(1.7267887e-08 -1.4056681e-06 0)
(1.7233436e-08 -1.4153085e-06 0)
(1.7199666e-08 -1.4246762e-06 0)
(1.7166569e-08 -1.4337792e-06 0)
(1.7134141e-08 -1.4426253e-06 0)
(1.7102374e-08 -1.4512219e-06 0)
(1.7071264e-08 -1.4595766e-06 0)
(1.70408e-08 -1.4676963e-06 0)
(1.7010978e-08 -1.4755879e-06 0)
(1.6981788e-08 -1.4832581e-06 0)
(1.6953222e-08 -1.4907135e-06 0)
(1.6925272e-08 -1.49796e-06 0)
(1.6897927e-08 -1.5050043e-06 0)
(1.6871191e-08 -1.5118509e-06 0)
(1.6844998e-08 -1.5185092e-06 0)
(1.6819586e-08 -1.5249713e-06 0)
(1.6794884e-08 -1.5311905e-06 0)
(1.6770536e-08 -1.5372245e-06 0)
(1.6746434e-08 -1.5431931e-06 0)
(1.6722404e-08 -1.549134e-06 0)
(1.6698406e-08 -1.5550485e-06 0)
(1.6674432e-08 -1.5609282e-06 0)
(1.6650479e-08 -1.5667701e-06 0)
(1.6626549e-08 -1.5725759e-06 0)
(1.6602643e-08 -1.5783472e-06 0)
(1.657876e-08 -1.5840842e-06 0)
(1.6554903e-08 -1.5897869e-06 0)
(1.6531071e-08 -1.5954552e-06 0)
(1.6507267e-08 -1.6010894e-06 0)
(1.648349e-08 -1.6066898e-06 0)
(1.6459742e-08 -1.6122566e-06 0)
(1.6436024e-08 -1.61779e-06 0)
(1.6412336e-08 -1.6232901e-06 0)
(1.6388679e-08 -1.6287571e-06 0)
(1.6365054e-08 -1.6341915e-06 0)
(1.6341465e-08 -1.6395928e-06 0)
(1.6317895e-08 -1.644963e-06 0)
(1.6294424e-08 -1.6502961e-06 0)
(1.6270709e-08 -1.6556112e-06 0)
(1.6248218e-08 -1.6608364e-06 0)
(1.6227417e-08 -1.6656238e-06 0)
(1.6207304e-08 -1.6699597e-06 0)
(1.6187864e-08 -1.6741818e-06 0)
(1.6168514e-08 -1.6784245e-06 0)
(1.6149114e-08 -1.6827059e-06 0)
(1.612963e-08 -1.6869983e-06 0)
(1.6110057e-08 -1.6912879e-06 0)
(1.609039e-08 -1.695578e-06 0)
(1.607063e-08 -1.6998737e-06 0)
(1.6050777e-08 -1.7041756e-06 0)
(1.603083e-08 -1.7084827e-06 0)
(1.6010788e-08 -1.7127942e-06 0)
(1.5990652e-08 -1.7171103e-06 0)
(1.597042e-08 -1.7214312e-06 0)
(1.5950094e-08 -1.7257568e-06 0)
(1.5929672e-08 -1.7300871e-06 0)
(1.5909154e-08 -1.734422e-06 0)
(1.588854e-08 -1.7387616e-06 0)
(1.586783e-08 -1.7431057e-06 0)
(1.5847023e-08 -1.7474543e-06 0)
(1.5826119e-08 -1.7518076e-06 0)
(1.5805118e-08 -1.7561652e-06 0)
(1.578402e-08 -1.7605274e-06 0)
(1.5762823e-08 -1.764894e-06 0)
(1.5741529e-08 -1.769265e-06 0)
(1.5720136e-08 -1.7736404e-06 0)
(1.5698645e-08 -1.7780201e-06 0)
(1.5677055e-08 -1.7824042e-06 0)
(1.5655366e-08 -1.7867925e-06 0)
(1.5633577e-08 -1.7911851e-06 0)
(1.5611688e-08 -1.7955819e-06 0)
(1.55897e-08 -1.7999828e-06 0)
(1.5567612e-08 -1.804388e-06 0)
(1.5545422e-08 -1.8087972e-06 0)
(1.5523133e-08 -1.8132105e-06 0)
(1.5500742e-08 -1.8176279e-06 0)
(1.547825e-08 -1.8220493e-06 0)
(1.5455656e-08 -1.8264746e-06 0)
(1.5432961e-08 -1.830904e-06 0)
(1.5410163e-08 -1.8353372e-06 0)
(1.5387263e-08 -1.8397743e-06 0)
(1.5364261e-08 -1.8442152e-06 0)
(1.5341156e-08 -1.84866e-06 0)
(1.5317948e-08 -1.8531085e-06 0)
(1.5294636e-08 -1.8575607e-06 0)
(1.5271221e-08 -1.8620166e-06 0)
(1.5247703e-08 -1.8664762e-06 0)
(1.522408e-08 -1.8709394e-06 0)
(1.5200353e-08 -1.8754062e-06 0)
(1.5176522e-08 -1.8798765e-06 0)
(1.5152586e-08 -1.8843503e-06 0)
(1.5128545e-08 -1.8888275e-06 0)
(1.5104399e-08 -1.8933082e-06 0)
(1.5080147e-08 -1.8977923e-06 0)
(1.505579e-08 -1.9022797e-06 0)
(1.5031327e-08 -1.9067704e-06 0)
(1.5006758e-08 -1.9112644e-06 0)
(1.4982083e-08 -1.9157616e-06 0)
(1.4957301e-08 -1.9202619e-06 0)
(1.4932413e-08 -1.9247654e-06 0)
(1.4907418e-08 -1.929272e-06 0)
(1.4882316e-08 -1.9337816e-06 0)
(1.4857107e-08 -1.9382943e-06 0)
(1.483179e-08 -1.9428098e-06 0)
(1.4806365e-08 -1.9473284e-06 0)
(1.4780833e-08 -1.9518497e-06 0)
(1.4755193e-08 -1.9563739e-06 0)
(1.4729444e-08 -1.9609009e-06 0)
(1.4703587e-08 -1.9654306e-06 0)
(1.4677622e-08 -1.969963e-06 0)
(1.4651548e-08 -1.9744981e-06 0)
(1.4625364e-08 -1.9790358e-06 0)
(1.4599072e-08 -1.983576e-06 0)
(1.4572671e-08 -1.9881187e-06 0)
(1.454616e-08 -1.9926639e-06 0)
(1.451954e-08 -1.9972114e-06 0)
(1.449281e-08 -2.0017614e-06 0)
(1.446597e-08 -2.0063136e-06 0)
(1.4439021e-08 -2.0108681e-06 0)
(1.4411961e-08 -2.0154248e-06 0)
(1.4384791e-08 -2.0199837e-06 0)
(1.435751e-08 -2.0245447e-06 0)
(1.433012e-08 -2.0291078e-06 0)
(1.4302618e-08 -2.0336729e-06 0)
(1.4275006e-08 -2.0382399e-06 0)
(1.4247282e-08 -2.0428088e-06 0)
(1.4219448e-08 -2.0473796e-06 0)
(1.4191503e-08 -2.0519522e-06 0)
(1.4163446e-08 -2.0565266e-06 0)
(1.4135278e-08 -2.0611026e-06 0)
(1.4106999e-08 -2.0656803e-06 0)
(1.4078608e-08 -2.0702596e-06 0)
(1.4050106e-08 -2.0748404e-06 0)
(1.4021492e-08 -2.0794227e-06 0)
(1.3992767e-08 -2.0840065e-06 0)
(1.3963929e-08 -2.0885915e-06 0)
(1.393498e-08 -2.093178e-06 0)
(1.3905918e-08 -2.0977656e-06 0)
(1.3876745e-08 -2.1023545e-06 0)
(1.384746e-08 -2.1069445e-06 0)
(1.3818063e-08 -2.1115356e-06 0)
(1.3788553e-08 -2.1161278e-06 0)
(1.3758932e-08 -2.1207209e-06 0)
(1.3729197e-08 -2.1253149e-06 0)
(1.3699351e-08 -2.1299098e-06 0)
(1.3669393e-08 -2.1345054e-06 0)
(1.3639322e-08 -2.1391019e-06 0)
(1.3609139e-08 -2.1436989e-06 0)
(1.3578844e-08 -2.1482966e-06 0)
(1.3548437e-08 -2.1528948e-06 0)
(1.3517917e-08 -2.1574936e-06 0)
(1.3487285e-08 -2.1620928e-06 0)
(1.345654e-08 -2.1666923e-06 0)
(1.3425684e-08 -2.1712921e-06 0)
(1.3394715e-08 -2.1758923e-06 0)
(1.3363634e-08 -2.1804925e-06 0)
(1.3332441e-08 -2.1850929e-06 0)
(1.3301135e-08 -2.1896933e-06 0)
(1.3269718e-08 -2.1942938e-06 0)
(1.3238189e-08 -2.1988941e-06 0)
(1.3206548e-08 -2.2034944e-06 0)
(1.3174794e-08 -2.2080944e-06 0)
(1.314293e-08 -2.2126942e-06 0)
(1.3110953e-08 -2.2172935e-06 0)
(1.3078865e-08 -2.2218926e-06 0)
(1.3046665e-08 -2.2264911e-06 0)
(1.3014354e-08 -2.2310891e-06 0)
(1.2981931e-08 -2.2356865e-06 0)
(1.2949398e-08 -2.2402832e-06 0)
(1.2916753e-08 -2.2448792e-06 0)
(1.2883997e-08 -2.2494744e-06 0)
(1.285113e-08 -2.2540686e-06 0)
(1.2818153e-08 -2.258662e-06 0)
(1.2785065e-08 -2.2632543e-06 0)
(1.2751867e-08 -2.2678456e-06 0)
(1.2718558e-08 -2.2724356e-06 0)
(1.268514e-08 -2.2770245e-06 0)
(1.2651612e-08 -2.281612e-06 0)
(1.2617974e-08 -2.2861982e-06 0)
(1.2584226e-08 -2.2907829e-06 0)
(1.2550369e-08 -2.2953662e-06 0)
(1.2516403e-08 -2.2999478e-06 0)
(1.2482328e-08 -2.3045278e-06 0)
(1.2448144e-08 -2.309106e-06 0)
(1.2413852e-08 -2.3136824e-06 0)
(1.2379452e-08 -2.3182569e-06 0)
(1.2344944e-08 -2.3228295e-06 0)
(1.2310327e-08 -2.3274e-06 0)
(1.2275604e-08 -2.3319685e-06 0)
(1.2240773e-08 -2.3365347e-06 0)
(1.2205835e-08 -2.3410988e-06 0)
(1.2170791e-08 -2.3456604e-06 0)
(1.213564e-08 -2.3502197e-06 0)
(1.2100383e-08 -2.3547764e-06 0)
(1.2065021e-08 -2.3593307e-06 0)
(1.2029552e-08 -2.3638822e-06 0)
(1.1993979e-08 -2.3684311e-06 0)
(1.1958301e-08 -2.372977e-06 0)
(1.1922518e-08 -2.3775203e-06 0)
(1.1886631e-08 -2.3820604e-06 0)
(1.185064e-08 -2.3865976e-06 0)
(1.1814546e-08 -2.3911316e-06 0)
(1.1778349e-08 -2.3956626e-06 0)
(1.1742049e-08 -2.4001901e-06 0)
(1.1705647e-08 -2.4047144e-06 0)
(1.1669142e-08 -2.4092352e-06 0)
(1.1632537e-08 -2.4137525e-06 0)
(1.1595829e-08 -2.4182662e-06 0)
(1.1559025e-08 -2.4227761e-06 0)
(1.1522104e-08 -2.4272828e-06 0)
(1.1485148e-08 -2.4317834e-06 0)
(1.1447825e-08 -2.4362866e-06 0)
(1.1411531e-08 -2.4407564e-06 0)
(1.1376713e-08 -2.4450121e-06 0)
(1.1342366e-08 -2.4490541e-06 0)
(1.1308394e-08 -2.4530663e-06 0)
(1.1274225e-08 -2.4571184e-06 0)
(1.1239719e-08 -2.4612194e-06 0)
(1.1204841e-08 -2.4653553e-06 0)
(1.116958e-08 -2.469519e-06 0)
(1.1133932e-08 -2.4737125e-06 0)
(1.1097891e-08 -2.4779382e-06 0)
(1.1061455e-08 -2.4821968e-06 0)
(1.1024618e-08 -2.4864874e-06 0)
(1.0987379e-08 -2.4908101e-06 0)
(1.0949732e-08 -2.4951647e-06 0)
(1.0911675e-08 -2.4995515e-06 0)
(1.0873203e-08 -2.5039704e-06 0)
(1.0834313e-08 -2.5084215e-06 0)
(1.0795001e-08 -2.5129047e-06 0)
(1.0755263e-08 -2.5174202e-06 0)
(1.0715096e-08 -2.5219677e-06 0)
(1.0674497e-08 -2.5265474e-06 0)
(1.063346e-08 -2.5311591e-06 0)
(1.0591984e-08 -2.535803e-06 0)
(1.0550063e-08 -2.5404787e-06 0)
(1.0507695e-08 -2.5451866e-06 0)
(1.0464875e-08 -2.5499262e-06 0)
(1.04216e-08 -2.5546978e-06 0)
(1.0377867e-08 -2.5595011e-06 0)
(1.0333672e-08 -2.5643361e-06 0)
(1.0289012e-08 -2.5692025e-06 0)
(1.0243882e-08 -2.5741006e-06 0)
(1.019828e-08 -2.5790298e-06 0)
(1.0152202e-08 -2.5839904e-06 0)
(1.0105644e-08 -2.5889819e-06 0)
(1.0058604e-08 -2.5940045e-06 0)
(1.0011078e-08 -2.5990577e-06 0)
(9.9630627e-09 -2.6041417e-06 0)
(9.9145542e-09 -2.6092559e-06 0)
(9.8655507e-09 -2.6144004e-06 0)
(9.8160477e-09 -2.6195748e-06 0)
(9.7660435e-09 -2.6247791e-06 0)
(9.7155337e-09 -2.6300128e-06 0)
(9.6645169e-09 -2.635276e-06 0)
(9.6129887e-09 -2.640568e-06 0)
(9.5609478e-09 -2.645889e-06 0)
(9.5083901e-09 -2.6512382e-06 0)
(9.4553144e-09 -2.6566158e-06 0)
(9.4017167e-09 -2.662021e-06 0)
(9.3475961e-09 -2.667454e-06 0)
(9.2929487e-09 -2.6729138e-06 0)
(9.2377739e-09 -2.6784008e-06 0)
(9.1820679e-09 -2.6839139e-06 0)
(9.1258303e-09 -2.6894532e-06 0)
(9.0690577e-09 -2.695018e-06 0)
(9.0117498e-09 -2.7006081e-06 0)
(8.9539034e-09 -2.7062228e-06 0)
(8.8955186e-09 -2.711862e-06 0)
(8.8365924e-09 -2.7175247e-06 0)
(8.7771252e-09 -2.7232109e-06 0)
(8.7171142e-09 -2.7289197e-06 0)
(8.6565603e-09 -2.734651e-06 0)
(8.5954609e-09 -2.7404037e-06 0)
(8.5338172e-09 -2.7461778e-06 0)
(8.4716269e-09 -2.7519722e-06 0)
(8.4088917e-09 -2.7577867e-06 0)
(8.3456096e-09 -2.7636202e-06 0)
(8.2817826e-09 -2.7694727e-06 0)
(8.2174092e-09 -2.7753428e-06 0)
(8.1524918e-09 -2.7812304e-06 0)
(8.0870293e-09 -2.7871343e-06 0)
(8.0210245e-09 -2.7930543e-06 0)
(7.9544766e-09 -2.7989891e-06 0)
(7.8873892e-09 -2.8049384e-06 0)
(7.8197618e-09 -2.8109009e-06 0)
(7.7515985e-09 -2.8168764e-06 0)
(7.6828993e-09 -2.8228633e-06 0)
(7.6136688e-09 -2.8288615e-06 0)
(7.5439075e-09 -2.8348694e-06 0)
(7.4736206e-09 -2.8408868e-06 0)
(7.4028092e-09 -2.846912e-06 0)
(7.331479e-09 -2.8529448e-06 0)
(7.2596317e-09 -2.8589835e-06 0)
(7.1872737e-09 -2.8650278e-06 0)
(7.1144073e-09 -2.8710759e-06 0)
(7.0410395e-09 -2.8771276e-06 0)
(6.9671732e-09 -2.883181e-06 0)
(6.8928161e-09 -2.8892357e-06 0)
(6.8179717e-09 -2.8952899e-06 0)
(6.7426486e-09 -2.9013432e-06 0)
(6.666851e-09 -2.9073935e-06 0)
(6.590588e-09 -2.9134407e-06 0)
(6.5138647e-09 -2.9194825e-06 0)
(6.436691e-09 -2.9255186e-06 0)
(6.3590725e-09 -2.9315468e-06 0)
(6.2810202e-09 -2.9375669e-06 0)
(6.2025404e-09 -2.9435763e-06 0)
(6.1236447e-09 -2.949575e-06 0)
(6.0443404e-09 -2.9555604e-06 0)
(5.96464e-09 -2.9615323e-06 0)
(5.8845515e-09 -2.967488e-06 0)
(5.8040883e-09 -2.9734274e-06 0)
(5.7232592e-09 -2.9793478e-06 0)
(5.6420786e-09 -2.9852489e-06 0)
(5.560556e-09 -2.991128e-06 0)
(5.4787067e-09 -2.9969849e-06 0)
(5.3965413e-09 -3.0028167e-06 0)
(5.3140758e-09 -3.0086232e-06 0)
(5.2313218e-09 -3.0144015e-06 0)
(5.1482961e-09 -3.0201513e-06 0)
(5.0650112e-09 -3.0258696e-06 0)
(4.9814851e-09 -3.0315562e-06 0)
(4.8977309e-09 -3.0372081e-06 0)
(4.8137675e-09 -3.042825e-06 0)
(4.7296091e-09 -3.0484037e-06 0)
(4.6452755e-09 -3.0539442e-06 0)
(4.5607817e-09 -3.059443e-06 0)
(4.4761483e-09 -3.0649002e-06 0)
(4.3913915e-09 -3.0703122e-06 0)
(4.3065326e-09 -3.0756791e-06 0)
(4.2215886e-09 -3.0809974e-06 0)
(4.1365819e-09 -3.0862671e-06 0)
(4.0515302e-09 -3.0914845e-06 0)
(3.9664568e-09 -3.0966498e-06 0)
(3.8813802e-09 -3.1017593e-06 0)
(3.7963244e-09 -3.1068132e-06 0)
(3.7113089e-09 -3.1118075e-06 0)
(3.6263584e-09 -3.1167427e-06 0)
(3.5414932e-09 -3.1216148e-06 0)
(3.4567386e-09 -3.1264242e-06 0)
(3.3721157e-09 -3.1311667e-06 0)
(3.2876505e-09 -3.1358431e-06 0)
(3.2033647e-09 -3.140449e-06 0)
(3.1192849e-09 -3.1449852e-06 0)
(3.0354334e-09 -3.1494474e-06 0)
(2.9518375e-09 -3.1538364e-06 0)
(2.86852e-09 -3.1581478e-06 0)
(2.7855084e-09 -3.1623825e-06 0)
(2.7028261e-09 -3.1665361e-06 0)
(2.6205012e-09 -3.1706097e-06 0)
(2.5385573e-09 -3.1745988e-06 0)
(2.4570228e-09 -3.1785046e-06 0)
(2.3759216e-09 -3.1823224e-06 0)
(2.2952823e-09 -3.1860537e-06 0)
(2.2151291e-09 -3.1896939e-06 0)
(2.1354906e-09 -3.1932443e-06 0)
(2.0563911e-09 -3.1967005e-06 0)
(1.9778593e-09 -3.200064e-06 0)
(1.8999195e-09 -3.2033301e-06 0)
(1.8226001e-09 -3.2065007e-06 0)
(1.7459255e-09 -3.209571e-06 0)
(1.6699239e-09 -3.2125431e-06 0)
(1.5946193e-09 -3.2154122e-06 0)
(1.5200396e-09 -3.2181805e-06 0)
(1.4462087e-09 -3.2208432e-06 0)
(1.3731538e-09 -3.2234028e-06 0)
(1.3008984e-09 -3.2258543e-06 0)
(1.229469e-09 -3.2282006e-06 0)
(1.1588889e-09 -3.2304366e-06 0)
(1.0891836e-09 -3.2325655e-06 0)
(1.0203758e-09 -3.234582e-06 0)
(9.5249024e-10 -3.2364896e-06 0)
(8.8554871e-10 -3.2382832e-06 0)
(8.1957505e-10 -3.2399664e-06 0)
(7.5459022e-10 -3.241534e-06 0)
(6.9061692e-10 -3.24299e-06 0)
(6.2767516e-10 -3.2443291e-06 0)
(5.6578642e-10 -3.2455556e-06 0)
(5.0496967e-10 -3.2466643e-06 0)
(4.4524501e-10 -3.2476596e-06 0)
(3.8663034e-10 -3.2485364e-06 0)
(3.2914428e-10 -3.2492994e-06 0)
(2.7280353e-10 -3.2499434e-06 0)
(2.1762517e-10 -3.2504737e-06 0)
(1.6362459e-10 -3.2508847e-06 0)
(1.1081736e-10 -3.2511821e-06 0)
(5.9217025e-11 -3.2513605e-06 0)
(8.8396418e-12 -3.2514259e-06 0)
(-4.0311907e-11 -3.2513725e-06 0)
(-8.8184543e-11 -3.2512072e-06 0)
(-1.3493989e-10 -3.2509236e-06 0)
(-1.7984052e-10 -3.2505297e-06 0)
(-2.259322e-10 -3.2500131e-06 0)
(-2.743169e-10 -3.2493139e-06 0)
(-3.2240426e-10 -3.2484e-06 0)
(-3.6950354e-10 -3.2473287e-06 0)
(-4.1445218e-10 -3.246113e-06 0)
(-4.5710613e-10 -3.2447723e-06 0)
(-4.9749838e-10 -3.2433026e-06 0)
(-5.3567833e-10 -3.2417174e-06 0)
(-5.7170165e-10 -3.2400147e-06 0)
(-6.0563798e-10 -3.2382105e-06 0)
(-6.3755659e-10 -3.236302e-06 0)
(-6.6752694e-10 -3.2343044e-06 0)
(-6.956115e-10 -3.2322142e-06 0)
(-7.2187467e-10 -3.2300463e-06 0)
(-7.4637544e-10 -3.2277967e-06 0)
(-7.6917538e-10 -3.2254802e-06 0)
(-7.9032986e-10 -3.2230924e-06 0)
(-8.0989695e-10 -3.2206477e-06 0)
(-8.2792826e-10 -3.2181413e-06 0)
(-8.4447858e-10 -3.2155874e-06 0)
(-8.5959594e-10 -3.2129806e-06 0)
(-8.7333191e-10 -3.2103351e-06 0)
(-8.8573108e-10 -3.2076452e-06 0)
(-8.968419e-10 -3.2049247e-06 0)
(-9.0670564e-10 -3.2021674e-06 0)
(-9.1536771e-10 -3.1993873e-06 0)
(-9.2286626e-10 -3.1965776e-06 0)
(-9.2924381e-10 -3.1937522e-06 0)
(-9.3453549e-10 -3.190904e-06 0)
(-9.3878108e-10 -3.1880467e-06 0)
(-9.4201291e-10 -3.185173e-06 0)
(-9.4426814e-10 -3.1822963e-06 0)
(-9.4557642e-10 -3.179409e-06 0)
(-9.4597249e-10 -3.1765247e-06 0)
(-9.4548351e-10 -3.1736352e-06 0)
(-9.4414189e-10 -3.170754e-06 0)
(-9.4197251e-10 -3.1678729e-06 0)
(-9.3900561e-10 -3.1650052e-06 0)
(-9.3526396e-10 -3.1621423e-06 0)
(-9.307758e-10 -3.1592975e-06 0)
(-9.2556191e-10 -3.1564621e-06 0)
(-9.196487e-10 -3.1536492e-06 0)
(-9.1305517e-10 -3.1508499e-06 0)
(-9.0580601e-10 -3.1480773e-06 0)
(-8.979186e-10 -3.1453222e-06 0)
(-8.8941608e-10 -3.1425977e-06 0)
(-8.8031437e-10 -3.1398944e-06 0)
(-8.7063518e-10 -3.1372255e-06 0)
(-8.6039314e-10 -3.1345812e-06 0)
(-8.4960865e-10 -3.1319747e-06 0)
(-8.3829522e-10 -3.129396e-06 0)
(-8.2647207e-10 -3.1268584e-06 0)
(-8.1415171e-10 -3.1243518e-06 0)
(-8.0135231e-10 -3.1218893e-06 0)
(-7.8808552e-10 -3.1194606e-06 0)
(-7.7436858e-10 -3.1170788e-06 0)
(-7.6021241e-10 -3.1147336e-06 0)
(-7.4563341e-10 -3.112438e-06 0)
(-7.3064188e-10 -3.1101815e-06 0)
(-7.1525351e-10 -3.1079772e-06 0)
(-6.9947809e-10 -3.1058143e-06 0)
(-6.8333063e-10 -3.103706e-06 0)
(-6.6682057e-10 -3.1016414e-06 0)
(-6.4996234e-10 -3.0996335e-06 0)
(-6.3276504e-10 -3.0976715e-06 0)
(-6.1524264e-10 -3.0957683e-06 0)
(-5.97404e-10 -3.0939129e-06 0)
(-5.7926264e-10 -3.0921182e-06 0)
(-5.6082727e-10 -3.0903732e-06 0)
(-5.4211103e-10 -3.0886906e-06 0)
(-5.2312256e-10 -3.0870594e-06 0)
(-5.0387463e-10 -3.0854924e-06 0)
(-4.8437583e-10 -3.0839783e-06 0)
(-4.6463866e-10 -3.0825298e-06 0)
(-4.446717e-10 -3.0811357e-06 0)
(-4.2448719e-10 -3.0798087e-06 0)
(-4.0409375e-10 -3.0785375e-06 0)
(-3.8350336e-10 -3.0773345e-06 0)
(-3.6272473e-10 -3.0761884e-06 0)
(-3.4176962e-10 -3.0751118e-06 0)
(-3.2064683e-10 -3.0740932e-06 0)
(-2.9936791e-10 -3.073145e-06 0)
(-2.779418e-10 -3.072256e-06 0)
(-2.5637983e-10 -3.0714376e-06 0)
(-2.3469112e-10 -3.0706813e-06 0)
(-2.1288673e-10 -3.0699894e-06 0)
(-1.9097618e-10 -3.0693834e-06 0)
(-1.6896943e-10 -3.068766e-06 0)
(-1.4687883e-10 -3.0684878e-06 0)
(-1.2470572e-10 -3.0673549e-06 0)
(-1.0248547e-10 -3.0693285e-06 0)
(-8.0160103e-11 -3.0610656e-06 0)
(-5.7890946e-11 -3.0857656e-06 0)
(-3.5604531e-11 -2.9932419e-06 0)
(-1.2315401e-11 -3.2390052e-06 0)
(-1.2896804e-13 -2.8289811e-06 0)
)
;
    }
    bottomWall
    {
        type            calculated;
        value           nonuniform List<vector> 
449
(
(-38.291265 -0.65222074 0)
(-24.18004 -0.54362598 0)
(-14.908844 -0.27472528 0)
(-10.431423 -0.061225337 0)
(-8.8698078 0.027426114 0)
(-8.4204534 0.031754915 0)
(-8.2228945 0.015517606 0)
(-8.0755383 0.010720196 0)
(-8.0857248 0.024563008 0)
(-8.5369884 0.058366803 0)
(-9.7406134 0.07773623 0)
(-10.830599 0.065904181 0)
(-11.715326 0.048718842 0)
(-12.369529 0.034411095 0)
(-12.813394 0.023399082 0)
(-13.090368 0.014406093 0)
(-13.222608 0.0072774317 0)
(-13.258358 0.0023080415 0)
(-13.223548 -0.001285906 0)
(-13.138095 -0.0035272876 0)
(-13.029321 -0.004493949 0)
(-12.912571 -0.0048196129 0)
(-12.793783 -0.0048832886 0)
(-12.675819 -0.0048294032 0)
(-12.560089 -0.004731807 0)
(-12.447295 -0.0045991312 0)
(-12.338146 -0.0044321872 0)
(-12.233079 -0.0042629533 0)
(-12.131819 -0.0040969956 0)
(-12.034638 -0.0039168689 0)
(-11.941636 -0.0037548652 0)
(-11.851793 -0.0036404054 0)
(-11.764412 -0.0035262465 0)
(-11.679403 -0.0033889361 0)
(-11.597459 -0.003251327 0)
(-11.518727 -0.0031094313 0)
(-11.44338 -0.0029677022 0)
(-11.371179 -0.0028360273 0)
(-11.301975 -0.002715271 0)
(-11.235509 -0.0026063319 0)
(-11.171424 -0.0025130148 0)
(-11.109414 -0.0024341526 0)
(-11.049251 -0.0023623934 0)
(-10.990873 -0.0022870293 0)
(-10.934387 -0.0022082579 0)
(-10.879739 -0.0021339181 0)
(-10.826836 -0.0020638482 0)
(-10.775581 -0.0019930212 0)
(-10.726038 -0.0019246345 0)
(-10.677989 -0.0018676787 0)
(-10.631214 -0.0018197776 0)
(-10.585559 -0.0017740185 0)
(-10.541037 -0.001727981 0)
(-10.497618 -0.0016828026 0)
(-10.455298 -0.0016376022 0)
(-10.414055 -0.0015916595 0)
(-10.373912 -0.0015463126 0)
(-10.334816 -0.0015087669 0)
(-10.29652 -0.0014790925 0)
(-10.258948 -0.0014497775 0)
(-10.222113 -0.001418381 0)
(-10.186053 -0.0013868336 0)
(-10.150735 -0.0013552932 0)
(-10.116186 -0.0013221259 0)
(-10.082422 -0.001288382 0)
(-10.049438 -0.0012567041 0)
(-10.017175 -0.0012281481 0)
(-9.9855558 -0.0012021889 0)
(-9.9545385 -0.0011776763 0)
(-9.9240865 -0.001155007 0)
(-9.8941674 -0.0011329975 0)
(-9.8647783 -0.0011101643 0)
(-9.8359419 -0.0010863492 0)
(-9.8076636 -0.0010627394 0)
(-9.7799352 -0.0010404296 0)
(-9.7527107 -0.0010201559 0)
(-9.7259533 -0.0010009331 0)
(-9.699641 -0.00098270302 0)
(-9.6737472 -0.0009659262 0)
(-9.6482445 -0.00094952388 0)
(-9.6231385 -0.00093222951 0)
(-9.5984499 -0.00091408442 0)
(-9.5741846 -0.00089659167 0)
(-9.5503214 -0.00088020639 0)
(-9.5268323 -0.00086519757 0)
(-9.5036862 -0.00085064153 0)
(-9.4808847 -0.00083667205 0)
(-9.4583999 -0.00082359914 0)
(-9.4362245 -0.00081078582 0)
(-9.4143509 -0.00079742716 0)
(-9.3928047 -0.00078324505 0)
(-9.3715874 -0.00076969677 0)
(-9.3506809 -0.0007573256 0)
(-9.3300531 -0.00074590005 0)
(-9.3096929 -0.00073454916 0)
(-9.2896006 -0.00072347779 0)
(-9.2697615 -0.00071308262 0)
(-9.2501658 -0.000702926 0)
(-9.2308105 -0.00069223086 0)
(-9.2117186 -0.0006809067 0)
(-9.1928876 -0.00067024767 0)
(-9.1743013 -0.00066055065 0)
(-9.1559321 -0.00065166665 0)
(-9.1377726 -0.00064263844 0)
(-9.1198305 -0.00063344789 0)
(-9.1020988 -0.00062492215 0)
(-9.0845656 -0.00061657935 0)
(-9.0672303 -0.00060804452 0)
(-9.0501005 -0.00059908404 0)
(-9.0331845 -0.00059037134 0)
(-9.016465 -0.00058252793 0)
(-8.9999253 -0.00057525475 0)
(-8.9835535 -0.00056807592 0)
(-8.9673558 -0.00056061903 0)
(-8.9513328 -0.00055338099 0)
(-8.9354785 -0.00054632476 0)
(-8.9197912 -0.00053930878 0)
(-8.9042696 -0.00053218998 0)
(-8.8889205 -0.00052505907 0)
(-8.8737333 -0.00051852364 0)
(-8.8586977 -0.00051243964 0)
(-8.8438009 -0.00050661896 0)
(-8.8290437 -0.00050057594 0)
(-8.8144331 -0.00049426045 0)
(-8.7999709 -0.00048818325 0)
(-8.7856513 -0.00048229086 0)
(-8.7714693 -0.00047666477 0)
(-8.7574198 -0.00047094123 0)
(-8.74351 -0.0004652118 0)
(-8.7297291 -0.00046001737 0)
(-8.7160711 -0.00045502112 0)
(-8.7025274 -0.00045017383 0)
(-8.689102 -0.00044493746 0)
(-8.6758061 -0.00043946057 0)
(-8.6626367 -0.00043445339 0)
(-8.6495847 -0.00042965854 0)
(-8.6366442 -0.0004250992 0)
(-8.6238114 -0.00042043964 0)
(-8.611093 -0.00041573599 0)
(-8.5984812 -0.0004115039 0)
(-8.5859688 -0.00040732642 0)
(-8.5735563 -0.00040310887 0)
(-8.5612457 -0.00039867844 0)
(-8.5490452 -0.00039414158 0)
(-8.5369489 -0.00039000059 0)
(-8.5249504 -0.00038604706 0)
(-8.5130434 -0.0003822718 0)
(-8.5012265 -0.00037838332 0)
(-8.4895053 -0.0003743653 0)
(-8.477878 -0.00037054307 0)
(-8.4663423 -0.00036679152 0)
(-8.4548948 -0.00036316549 0)
(-8.4435343 -0.00035944823 0)
(-8.4322656 -0.00035567327 0)
(-8.4210844 -0.00035219126 0)
(-8.4099853 -0.00034886553 0)
(-8.3989639 -0.00034565498 0)
(-8.3880195 -0.00034229905 0)
(-8.3771592 -0.00033876935 0)
(-8.3663823 -0.000335423 0)
(-8.3556852 -0.00033222283 0)
(-8.3450638 -0.00032911771 0)
(-8.3345164 -0.000326044 0)
(-8.3240437 -0.0003229064 0)
(-8.3136465 -0.00031987594 0)
(-8.30332 -0.00031698585 0)
(-8.2930638 -0.00031409553 0)
(-8.2828756 -0.0003112286 0)
(-8.272759 -0.00030825929 0)
(-8.2627132 -0.00030531497 0)
(-8.252741 -0.00030253595 0)
(-8.2428264 -0.00030001421 0)
(-8.2329865 -0.0002968344 0)
(-8.2237616 -0.00029367352 0)
(-8.2150742 -0.00029198421 0)
(-8.2063632 -0.00028917414 0)
(-8.1976361 -0.00028681432 0)
(-8.1888867 -0.00028462687 0)
(-8.1801114 -0.00028243997 0)
(-8.1713122 -0.00028015981 0)
(-8.1624925 -0.00027784606 0)
(-8.1536506 -0.00027568929 0)
(-8.1447835 -0.00027358542 0)
(-8.1358914 -0.00027145693 0)
(-8.1269754 -0.00026925456 0)
(-8.1180388 -0.00026698473 0)
(-8.1090828 -0.00026474591 0)
(-8.1001062 -0.00026260027 0)
(-8.0911072 -0.00026048731 0)
(-8.0820854 -0.00025840836 0)
(-8.0730406 -0.0002562607 0)
(-8.0639771 -0.00025406034 0)
(-8.0548934 -0.00025195755 0)
(-8.0457894 -0.00024987362 0)
(-8.0366634 -0.00024782504 0)
(-8.0275171 -0.00024567032 0)
(-8.0183548 -0.00024347764 0)
(-8.0091743 -0.00024144437 0)
(-7.9999731 -0.00023945037 0)
(-7.99075 -0.00023746124 0)
(-7.9815075 -0.0002353524 0)
(-7.9722501 -0.00023322445 0)
(-7.9629757 -0.00023121554 0)
(-7.9536832 -0.00022922265 0)
(-7.9443714 -0.00022724826 0)
(-7.9350419 -0.00022521874 0)
(-7.9256969 -0.0002231897 0)
(-7.9163355 -0.00022123425 0)
(-7.9069563 -0.00021930591 0)
(-7.8975594 -0.00021734175 0)
(-7.8881483 -0.00021531612 0)
(-7.8787234 -0.00021337035 0)
(-7.8692823 -0.00021148525 0)
(-7.8598237 -0.00020963726 0)
(-7.8503477 -0.00020766141 0)
(-7.8408629 -0.0002060022 0)
(-7.8313424 -0.0002048396 0)
(-7.8217825 -0.00020346542 0)
(-7.8121983 -0.00020170664 0)
(-7.8026005 -0.00019978438 0)
(-7.7929915 -0.00019790542 0)
(-7.7833692 -0.00019608249 0)
(-7.7737327 -0.00019426617 0)
(-7.764084 -0.00019239465 0)
(-7.7544253 -0.00019055796 0)
(-7.744754 -0.00018880209 0)
(-7.7350685 -0.00018704272 0)
(-7.7253712 -0.00018522399 0)
(-7.7156646 -0.00018342602 0)
(-7.7059473 -0.00018169777 0)
(-7.6962173 -0.00017997679 0)
(-7.6864763 -0.00017822068 0)
(-7.6767264 -0.00017646701 0)
(-7.6669668 -0.00017478132 0)
(-7.6571954 -0.00017310358 0)
(-7.6474147 -0.0001713768 0)
(-7.6376267 -0.00016967349 0)
(-7.6278292 -0.00016804862 0)
(-7.6180207 -0.00016640344 0)
(-7.6082042 -0.00016472276 0)
(-7.5983813 -0.0001630806 0)
(-7.5885493 -0.00016149134 0)
(-7.5787083 -0.00015987896 0)
(-7.5688604 -0.00015824793 0)
(-7.5590068 -0.00015666222 0)
(-7.5491443 -0.00015512409 0)
(-7.5392741 -0.00015353698 0)
(-7.5293995 -0.00015195008 0)
(-7.5195185 -0.00015044167 0)
(-7.5096297 -0.00014891521 0)
(-7.4997355 -0.00014737346 0)
(-7.4898372 -0.00014585331 0)
(-7.4799328 -0.00014439366 0)
(-7.4700212 -0.00014289842 0)
(-7.4601072 -0.00014139111 0)
(-7.4501883 -0.00013995091 0)
(-7.4402642 -0.00013854864 0)
(-7.4303308 -0.00013727001 0)
(-7.4203809 -0.0001360033 0)
(-7.4104224 -0.00013464425 0)
(-7.4004602 -0.0001332186 0)
(-7.3904966 -0.00013179189 0)
(-7.3805304 -0.00013043874 0)
(-7.370559 -0.0001290582 0)
(-7.3605872 -0.00012766374 0)
(-7.3506133 -0.00012632376 0)
(-7.3406364 -0.00012499054 0)
(-7.3306574 -0.0001236405 0)
(-7.3206783 -0.00012231463 0)
(-7.3106966 -0.00012102381 0)
(-7.3007133 -0.00011970675 0)
(-7.2907308 -0.00011840801 0)
(-7.2807465 -0.00011715834 0)
(-7.2707604 -0.00011587353 0)
(-7.2607766 -0.00011459992 0)
(-7.2507916 -0.0001133845 0)
(-7.2408056 -0.00011213663 0)
(-7.2308219 -0.00011089171 0)
(-7.2208385 -0.00010970625 0)
(-7.210854 -0.00010849642 0)
(-7.2008726 -0.00010728861 0)
(-7.1908915 -0.00010612806 0)
(-7.1809111 -0.00010494823 0)
(-7.1709336 -0.00010377361 0)
(-7.1609577 -0.00010264627 0)
(-7.1509821 -0.0001014994 0)
(-7.1410108 -0.00010035427 0)
(-7.1310411 -9.9257882e-05 0)
(-7.1210729 -9.8140999e-05 0)
(-7.1111092 -9.7028287e-05 0)
(-7.1011479 -9.5960919e-05 0)
(-7.0911885 -9.4874614e-05 0)
(-7.0812344 -9.3797651e-05 0)
(-7.0712826 -9.2754239e-05 0)
(-7.0613346 -9.1694782e-05 0)
(-7.0513913 -9.0656269e-05 0)
(-7.0414513 -8.9638616e-05 0)
(-7.0315155 -8.8608173e-05 0)
(-7.0215852 -8.7602334e-05 0)
(-7.0116582 -8.660893e-05 0)
(-7.001737 -8.5609096e-05 0)
(-6.9918204 -8.4639045e-05 0)
(-6.9819085 -8.3666521e-05 0)
(-6.9720027 -8.269618e-05 0)
(-6.9621024 -8.1756583e-05 0)
(-6.9522068 -8.0806991e-05 0)
(-6.9423185 -7.9873349e-05 0)
(-6.9324348 -7.8957067e-05 0)
(-6.9225582 -7.8032094e-05 0)
(-6.9126878 -7.7133074e-05 0)
(-6.9028236 -7.6237642e-05 0)
(-6.8929663 -7.5342276e-05 0)
(-6.8831162 -7.4473076e-05 0)
(-6.8732719 -7.3598377e-05 0)
(-6.8634363 -7.2736165e-05 0)
(-6.8536065 -7.1888939e-05 0)
(-6.8437855 -7.1038011e-05 0)
(-6.8339711 -7.0212108e-05 0)
(-6.8241645 -6.9380505e-05 0)
(-6.8143665 -6.8558853e-05 0)
(-6.8045762 -6.7758184e-05 0)
(-6.7947938 -6.6949798e-05 0)
(-6.7850203 -6.6162853e-05 0)
(-6.7752542 -6.5376169e-05 0)
(-6.7654982 -6.4595393e-05 0)
(-6.7557498 -6.3832723e-05 0)
(-6.7460115 -6.3066814e-05 0)
(-6.7362812 -6.2320206e-05 0)
(-6.7265608 -6.1572102e-05 0)
(-6.7168493 -6.0834708e-05 0)
(-6.7071478 -6.0110975e-05 0)
(-6.6974549 -5.9383722e-05 0)
(-6.6877733 -5.8676114e-05 0)
(-6.6780996 -5.7967845e-05 0)
(-6.6684379 -5.7270626e-05 0)
(-6.6587841 -5.6580464e-05 0)
(-6.649143 -5.5894582e-05 0)
(-6.6395098 -5.5222561e-05 0)
(-6.6298895 -5.4550465e-05 0)
(-6.6202775 -5.3892746e-05 0)
(-6.6106784 -5.3236292e-05 0)
(-6.6010881 -5.2588488e-05 0)
(-6.5915112 -5.1950909e-05 0)
(-6.5819427 -5.131468e-05 0)
(-6.5723885 -5.0691243e-05 0)
(-6.5628423 -5.0070407e-05 0)
(-6.5533111 -4.9459804e-05 0)
(-6.5437874 -4.8853374e-05 0)
(-6.5342801 -4.8253461e-05 0)
(-6.5247794 -4.7662059e-05 0)
(-6.5152972 -4.7071777e-05 0)
(-6.5058188 -4.6494423e-05 0)
(-6.4963672 -4.5899686e-05 0)
(-6.4869084 -4.5409502e-05 0)
(-6.4764096 -4.4752299e-05 0)
(-6.4649754 -4.4051796e-05 0)
(-6.4537126 -4.3446264e-05 0)
(-6.4425978 -4.2796278e-05 0)
(-6.4316488 -4.2183562e-05 0)
(-6.4208453 -4.1576543e-05 0)
(-6.4101989 -4.0989625e-05 0)
(-6.3996905 -4.041385e-05 0)
(-6.3893325 -3.9853517e-05 0)
(-6.3791053 -3.930645e-05 0)