/*--------------------------------*- C++ -*----------------------------------*\
| =========                 |                                                 |
| \\      /  F ield         | OpenFOAM: The Open Source CFD Toolbox           |
|  \\    /   O peration     | Version:  5.x                                   |
|   \\  /    A nd           | Web:      www.OpenFOAM.org                      |
|    \\/     M anipulation  |                                                 |
\*---------------------------------------------------------------------------*/
FoamFile
{
    version     2.0;
    format      ascii;
    class       volScalarField;
    location    "5000";
    object      yPlus;
}
// * * * * * * * * * * * * * * * * * * * * * * * * * * * * * * * * * * * * * //

dimensions      [0 0 0 0 0 0 0];

internalField   uniform 0;

boundaryField
{
    inlet
    {
        type            calculated;
        value           uniform 0;
    }
    outlet
    {
        type            calculated;
        value           uniform 0;
    }
    topWall
    {
        type            calculated;
        value           nonuniform List<scalar> 
545
(
0.05931495
0.10227649
0.13121131
0.1542383
0.17373316
0.19079157
0.20602884
0.21983264
0.23246667
0.24412046
0.25493598
0.26502306
0.27446895
0.28334439
0.29170787
0.29960838
0.30708758
0.31418126
0.32092047
0.32733239
0.33344101
0.33926761
0.34483124
0.35014898
0.35523631
0.3601072
0.36477445
0.3692497
0.37354368
0.37766623
0.38162646
0.38543277
0.38909298
0.39261434
0.39600363
0.39926716
0.40241085
0.40544022
0.40836047
0.41117649
0.41389287
0.41651393
0.41904377
0.42148624
0.42384499
0.42612348
0.42832498
0.43045258
0.43250925
0.43449777
0.43642081
0.43828089
0.44008044
0.44182174
0.44350699
0.44513826
0.44671757
0.44824681
0.4497278
0.45116229
0.45255193
0.45389832
0.45520299
0.45646739
0.45769293
0.45888095
0.46003275
0.46114954
0.46223254
0.46328286
0.46430161
0.46528983
0.46623606
0.46715169
0.46806004
0.4689612
0.46985525
0.47074224
0.47162226
0.47249537
0.47336164
0.47422115
0.47507396
0.47592013
0.47675973
0.47759282
0.47841948
0.47923976
0.48005372
0.48086143
0.48166295
0.48245833
0.48324764
0.48403093
0.48480826
0.48557967
0.48627478
0.48689661
0.48751836
0.48814004
0.48876165
0.48938318
0.49000464
0.49062601
0.49124731
0.49186851
0.49248962
0.49311064
0.49373157
0.49435239
0.49497311
0.49559371
0.49621421
0.49683459
0.49745485
0.49807498
0.498695
0.49931488
0.49993462
0.50055423
0.5011737
0.50179302
0.50241219
0.5030312
0.50365007
0.50426876
0.5048873
0.50550566
0.50612385
0.50674186
0.5073597
0.50797734
0.5085948
0.50921206
0.50982913
0.51044599
0.51106265
0.5116791
0.51229533
0.51291134
0.51352713
0.51414269
0.51475802
0.51537311
0.51598797
0.51660257
0.51721693
0.51783103
0.51844487
0.51905845
0.51967176
0.5202848
0.52089756
0.52151003
0.52212223
0.52273413
0.52334573
0.52395703
0.52456803
0.52517872
0.52578909
0.52639914
0.52700887
0.52761826
0.52822732
0.52883604
0.52944442
0.53005244
0.53066011
0.53126742
0.53187436
0.53248093
0.53308713
0.53369294
0.53429838
0.53490341
0.53550806
0.53611229
0.53671613
0.53731955
0.53792255
0.53852512
0.53912728
0.53972899
0.54033027
0.54093109
0.54153147
0.54213139
0.54273085
0.54332984
0.54392836
0.5445264
0.54512396
0.54572102
0.54631759
0.54691365
0.54750922
0.54810426
0.54869879
0.54929278
0.54988626
0.55047918
0.55107158
0.55166341
0.5522547
0.55284542
0.55343558
0.55402516
0.55461417
0.55520258
0.55579041
0.55637764
0.55696427
0.55755028
0.55813568
0.55872045
0.5593046
0.55988811
0.56047099
0.5610532
0.56163478
0.56221568
0.56279592
0.56337549
0.56395438
0.56453257
0.56511008
0.56568689
0.56626299
0.56683838
0.56741305
0.56798699
0.5685602
0.56913267
0.5697044
0.57027537
0.57084558
0.57141503
0.5719837
0.57255159
0.57311871
0.57368501
0.57425053
0.57481524
0.57537913
0.5759422
0.57650445
0.57706585
0.57762643
0.57818614
0.57874501
0.579303
0.57986014
0.58041639
0.58097177
0.58152624
0.58207983
0.5826325
0.58318427
0.58373511
0.58428503
0.58483401
0.58538206
0.58592915
0.5864753
0.58702047
0.58756469
0.58810792
0.58865015
0.58916127
0.58964354
0.59012919
0.59061824
0.59111069
0.59160655
0.5921058
0.59260846
0.59311451
0.59362397
0.59413681
0.59465305
0.59517265
0.59569565
0.59622199
0.59675172
0.59728478
0.5978212
0.59836094
0.59890402
0.59945038
0.60000006
0.60055301
0.60110924
0.6016687
0.60223141
0.60279732
0.60336644
0.60393872
0.60451416
0.60509272
0.60567441
0.60625916
0.60684698
0.6074378
0.60803165
0.60862844
0.60922818
0.60983081
0.61043633
0.61104466
0.6116558
0.61226968
0.6128863
0.61350557
0.6141275
0.61475198
0.61537904
0.61600855
0.61664054
0.6172749
0.61791162
0.6185506
0.61919183
0.61983521
0.62048072
0.62112826
0.62177781
0.62242925
0.62308258
0.62373766
0.62439449
0.62505292
0.62571296
0.62637445
0.62703739
0.62770162
0.62836714
0.62903378
0.62970154
0.63037025
0.6310399
0.63171031
0.63238148
0.63305321
0.6337255
0.63439816
0.63507117
0.63574435
0.63641766
0.63709091
0.63776409
0.63843697
0.63910955
0.6397816
0.64045311
0.64112384
0.64179379
0.64246271
0.64313058
0.64379717
0.64446245
0.64512617
0.64578832
0.64644862
0.64710707
0.6477634
0.64841758
0.64906934
0.64971866
0.65036526
0.65100912
0.65164995
0.65228773
0.65292216
0.65355323
0.65418063
0.65480434
0.65542405
0.65603975
0.65665111
0.65725813
0.65786048
0.65845814
0.65905078
0.65963841
0.66022066
0.66079756
0.66136873
0.6619342
0.66249359
0.66304693
0.66359384
0.66413435
0.66466807
0.66519505
0.66571488
0.66622762
0.66673287
0.66723068
0.66772064
0.66820283
0.66867682
0.6691427
0.66960004
0.67004894
0.67048897
0.67092023
0.67134228
0.67175526
0.67215871
0.67255277
0.67293699
0.67331154
0.67367595
0.67403039
0.6743744
0.67470819
0.67503127
0.67534387
0.6756455
0.67593641
0.67621611
0.67648488
0.67674221
0.6769884
0.67722294
0.67744617
0.67765756
0.67785749
0.67804541
0.67822173
0.6783859
0.67853836
0.67867856
0.67880695
0.678923
0.67902718
0.67911894
0.67919882
0.67926623
0.67932176
0.67936481
0.67939601
0.67941475
0.67942169
0.67941623
0.67939905
0.67936957
0.67932843
0.67927539
0.67920217
0.6791055
0.67899399
0.67886739
0.67872731
0.67857358
0.67840779
0.67822972
0.67804097
0.67784124
0.6776321
0.67741318
0.67718605
0.67695028
0.67670741
0.67645696
0.67620044
0.67593734
0.67566915
0.67539529
0.67511725
0.67483441
0.67454824
0.67425807
0.67396537
0.67366943
0.67337169
0.67307142
0.67277005
0.67246681
0.67216312
0.67185818
0.67155339
0.67124794
0.67094322
0.67063836
0.67033478
0.67003157
0.66973015
0.66942958
0.66913127
0.66883426
0.66853996
0.66824738
0.66795793
0.66767061
0.66738681
0.66710552
0.66682813
0.66655359
0.66628331
0.66601622
0.66575372
0.66549473
0.66524064
0.66499036
0.66474529
0.6645043
0.66426879
0.66403764
0.66381224
0.66359144
0.66337663
0.66316666
0.66296292
0.66276424
0.662572
0.66238503
0.6622047
0.66202983
0.66186179
0.66169939
0.66154399
0.6613944
0.66125197
0.66111549
0.66098632
0.66086323
0.66074759
0.66063815
0.66053627
0.66044071
0.66035281
0.66027132
0.66019757
0.66013031
0.66007088
0.66001801
0.659973
0.65993463
0.65990414
0.65988042
0.6598643
0.65985585
0.65985272
)
;
    }
    bottomWall
    {
        type            calculated;
        value           nonuniform List<scalar> 
449
(
10.991217
8.7349981
6.8592388
5.7373572
5.2901577
5.1541977
5.0933636
5.047598
5.0508735
5.189929
5.5436355
5.8454974
6.0795548
6.2470071
6.3581115
6.4264688
6.4588537
6.467585
6.4590937
6.4381943
6.4114902
6.3827019
6.3532761
6.3239186
6.2949839
6.2666548
6.2391185
6.2124966
6.1867311
6.1619021
6.1380466
6.1149131
6.0923295
6.0702781
6.0489458
6.0283785
6.0086295
5.9896442
5.97139
5.9538056
5.9368014
5.9203015
5.9042491
5.8886311
5.8734797
5.8587842
5.8445224
5.8306719
5.8172526
5.8042083
5.7914816
5.7790327
5.7668666
5.7549775
5.7433655
5.7320265
5.720968
5.7101777
5.6995882
5.6891799
5.6789571
5.6689316
5.6590952
5.6494561
5.6400204
5.6307875
5.6217414
5.612862
5.6041379
5.5955595
5.5871184
5.5788144
5.5706545
5.5626409
5.5547719
5.5470351
5.5394205
5.5319223
5.5245335
5.5172466
5.5100636
5.5029909
5.4960306
5.489177
5.4824225
5.4757585
5.4691858
5.4626966
5.4562891
5.4499615
5.4437214
5.4375695
5.4315009
5.4255067
5.4195836
5.4137321
5.4079482
5.4022291
5.3965743
5.3909906
5.3854775
5.3800305
5.3746418
5.3693092
5.3640353
5.3588181
5.3536543
5.3485439
5.3434893
5.3384931
5.3335502
5.3286561
5.3238072
5.3190055
5.3142514
5.3095431
5.3048803
5.3002627
5.2956924
5.2911665
5.2866819
5.282235
5.2778261
5.2734573
5.2691293
5.2648405
5.2605895
5.2563748
5.2521987
5.248058
5.243951
5.2398752
5.2358318
5.2318244
5.2278521
5.2239122
5.220003
5.2161235
5.2122757
5.2084574
5.2046663
5.2009029
5.1971676
5.1934631
5.1897876
5.1861392
5.1825161
5.178918
5.1753465
5.1718012
5.1682814
5.1647861
5.1613151
5.1578698
5.154449
5.1510511
5.1476747
5.1443198
5.1409884
5.1376805
5.134395
5.1311306
5.127887
5.1246642
5.1214627
5.118281
5.115119
5.111976
5.1088532
5.1057504
5.1026684
5.0996024
5.0965577
5.0937016
5.0910104
5.0883105
5.0856042
5.0828895
5.0801654
5.0774323
5.0746914
5.0719421
5.0691835
5.0664156
5.0636387
5.0608539
5.0580615
5.0552612
5.0524522
5.0496347
5.0468083
5.0439745
5.0411328
5.0382831
5.035425
5.0325588
5.029686
5.0268059
5.0239176
5.0210207
5.0181161
5.0152051
5.0122871
5.0093616
5.0064284
5.0034879
5.0005408
4.9975867
4.9946253
4.9916565
4.9886815
4.9857003
4.9827122
4.9797168
4.976714
4.9737067
4.9706862
4.9676513
4.9646069
4.9615563
4.9585003
4.9554381
4.9523695
4.9492951
4.9462157
4.9431302
4.9400384
4.9369408
4.9338383
4.9307304
4.9276165
4.9244971
4.9213729
4.9182435
4.9151085
4.9119683
4.9088239
4.9056744
4.9025193
4.8993597
4.8961958
4.8930271
4.8898534
4.8866754
4.8834934
4.8803066
4.8771151
4.8739201
4.870721
4.8675173
4.8643096
4.8610986
4.8578834
4.8546638
4.8514412
4.8482149
4.8449848
4.8417495
4.8385066
4.8352588
4.8320075
4.8287537
4.8254967
4.8222359
4.8189727
4.8157067
4.8124374
4.8091653
4.8058908
4.8026133
4.799333
4.7960508
4.7927657
4.7894777
4.7861883
4.7828962
4.7796014
4.7763052
4.7730068
4.7697058
4.7664035
4.763099
4.7597924
4.7564845
4.7531749
4.749863
4.7465503
4.7432357
4.7399194
4.7366022
4.7332835
4.7299631
4.7266422
4.7233196
4.7199961
4.7166717
4.7133461
4.7100195
4.7066925
4.7033642
4.7000355
4.696706
4.6933756
4.690045
4.6867139
4.683382
4.6800501
4.6767175
4.6733849
4.670052
4.6667188
4.6633855
4.6600523
4.6567187
4.6533856
4.6500521
4.6467192
4.6433862
4.6400534
4.6367212
4.6333892
4.6300575
4.6267263
4.6233954
4.6200655
4.6167358
4.6134071
4.6100787
4.6067514
4.6034247
4.600099
4.5967739
4.5934502
4.5901268
4.5868052
4.5834838
4.5801645
4.5768455
4.5735285
4.5702119
4.5668974
4.5635835
4.5602719
4.5569607
4.5536522
4.5503439
4.5470385
4.5437333
4.5404313
4.5371293
4.5338313
4.5305322
4.52724
4.523943
4.5202806
4.5162885
4.5123528
4.5084655
4.5046329
4.500848
4.497115
4.4934273
4.4897895
4.4861948
4.4826478
4.4791417
4.4756815
4.4722601
4.4688828
4.4655423
4.4622446
4.4589817
4.45576
4.4525714
4.4494227
4.4463055
4.4432268
4.4401782
4.4371666
4.4341836
4.4312365
4.4283166
4.4254314
4.422572
4.4197463
4.4169451
4.4141768
4.4114318
4.4087187
4.4060279
4.403368
4.4007293
4.3981207
4.3955323
4.3929733
4.3904333
4.387922
4.3854288
4.3829637
4.3805157
4.3780951
4.3756907
4.3733132
4.370951
4.3686152
4.3662937
4.3639983
4.3617163
4.3594598
4.357216
4.3549975
4.3527904
4.3506086
4.3484372
4.3462911
4.3441542
4.3420426
4.3399389
4.3378612
4.3357894
4.3337446
4.3317038
4.329691
4.3276797
4.3256986
4.3237153
4.3217652
4.3198087
4.3178891
4.3159576
4.3140685
4.3121603
4.3103011
4.3084144
4.3065848
4.3047178
4.3029164
4.3010694
4.2992895
4.2974713
4.2956879
4.2939372
4.2919098
4.2902884
4.2878157
4.2870552
4.28315
4.2846601
4.2790833
)
;
    }
    symmetry
    {
        type            symmetryPlane;
    }
    frontAndBack
    {
        type            empty;
    }
}


// ************************************************************************* //
