/*--------------------------------*- C++ -*----------------------------------*\
| =========                 |                                                 |
| \\      /  F ield         | OpenFOAM: The Open Source CFD Toolbox           |
|  \\    /   O peration     | Version:  5.x                                   |
|   \\  /    A nd           | Web:      www.OpenFOAM.org                      |
|    \\/     M anipulation  |                                                 |
\*---------------------------------------------------------------------------*/
FoamFile
{
    version     2.0;
    format      ascii;
    class       volScalarField;
    location    "0.9";
    object      p;
}
// * * * * * * * * * * * * * * * * * * * * * * * * * * * * * * * * * * * * * //

dimensions      [0 2 -2 0 0 0 0];

internalField   nonuniform List<scalar> 
21600
(
0.018505682
0.016049437
0.01269626
0.0099160112
0.007721967
0.0057888572
0.0039661496
0.0023245939
0.0010359754
0.0002225917
-0.00012869244
-0.00013694256
4.9182493e-05
0.00030882306
0.00056521023
0.00077928756
0.00093904701
0.0010486187
0.0011190707
0.0011623255
0.0011883526
0.0012044289
0.0012153508
0.0012239751
0.0012318022
0.0012394727
0.0012471405
0.0012547202
0.0012620429
0.0012689379
0.0012752712
0.001280954
0.0012859419
0.0012902253
0.0012938212
0.0012967632
0.0012990958
0.0013008663
0.0013021241
0.0013029143
0.0013032799
0.0013032576
0.0013028811
0.0013021778
0.0013011729
0.0012998863
0.0012983368
0.0012965389
0.0012945074
0.0012922533
0.0012897886
0.001287122
0.001284264
0.0012812217
0.0012780044
0.0012746181
0.0012710714
0.001267369
0.0012635188
0.0012595249
0.0012553944
0.0012511305
0.00124674
0.0012422251
0.0012375923
0.0012328431
0.0012279836
0.0012230146
0.0012179421
0.0012127663
0.0012074929
0.0012021216
0.0011966579
0.0011911011
0.0011854567
0.0011797233
0.0011739065
0.0011680043
0.0011620225
0.0011559586
0.0011498185
0.001143599
0.0011373063
0.0011309367
0.0011244965
0.0011179816
0.0011113985
0.0011047425
0.0010980203
0.0010912268
0.001084369
0.0010774412
0.0010704506
0.0010633912
0.0010562704
0.0010490816
0.0010418327
0.0010345164
0.0010271412
0.001019699
0.0010121987
0.0010046318
0.00099700767
0.00098931697
0.00098156977
0.00097375596
0.00096588625
0.00095794976
0.00094995788
0.00094189891
0.00093378501
0.00092560356
0.00091736759
0.0009090635
0.00090070526
0.00089227819
0.00088379734
0.00087524685
0.00086664293
0.00085796843
0.00084924089
0.00084044172
0.00083158993
0.00082266534
0.00081368864
0.00080463782
0.00079553549
0.00078635762
0.00077712894
0.00076782317
0.00075846745
0.00074903291
0.0007395495
0.00072998539
0.0007203737
0.00071067923
0.00070093876
0.00069111325
0.00068124364
0.00067128647
0.00066128751
0.0006511982
0.00064106987
0.0006308481
0.00062059063
0.00061023624
0.00059985013
0.0005893632
0.00057884927
0.00056823014
0.0005575896
0.0005468389
0.00053607343
0.00052519213
0.00051430393
0.00050329343
0.0004922853
0.00048114747
0.00047002294
0.0004587602
0.00044752365
0.00043613904
0.00042479583
0.00041329315
0.0004018498
0.00039023371
0.0003786981
0.00036697428
0.00035535591
0.00034353123
0.00033184152
0.00031992426
0.00030817694
0.00029617706
0.00028438862
0.00027231808
0.00026050836
0.00024838152
0.00023657447
0.00022440862
0.00021263325
0.00020044923
0.00018874085
0.00017656394
0.0001649659
0.00015282689
0.00014139282
0.00012932947
0.00011812658
0.00010618552
9.529929e-05
8.3538632e-05
7.308054e-05
6.1572941e-05
5.1692443e-05
4.0527473e-05
3.144013e-05
2.0718287e-05
1.2787022e-05
2.492065e-06
0.0159815
0.01465962
0.012206115
0.0097272855
0.0076067796
0.0057593657
0.0040585528
0.002531537
0.0013119621
0.00050505142
0.00011959766
6.5464345e-05
0.00020827549
0.0004303897
0.00065680748
0.00084825136
0.00099208181
0.0010910523
0.0011545717
0.0011932037
0.0012159887
0.0012296198
0.0012385516
0.0012454576
0.0012517496
0.0012580304
0.001264437
0.0012708737
0.0012771628
0.0012831241
0.0012886132
0.001293531
0.0012978234
0.0013014718
0.0013044858
0.0013068921
0.0013087298
0.0013100417
0.0013108731
0.0013112659
0.0013112603
0.0013108907
0.0013101885
0.0013091793
0.0013078869
0.0013063294
0.0013045247
0.001302486
0.0013002269
0.0012977575
0.001295089
0.0012922293
0.001289188
0.0012859717
0.001282589
0.0012790454
0.0012753488
0.0012715036
0.0012675173
0.0012633934
0.0012591388
0.0012547563
0.0012502523
0.0012456288
0.001240892
0.0012360431
0.001231088
0.0012260274
0.0012208669
0.0012156065
0.0012102519
0.0012048024
0.0011992636
0.0011936345
0.0011879204
0.0011821199
0.0011762385
0.001170274
0.0011642321
0.0011581102
0.001151914
0.0011456405
0.0011392955
0.0011328754
0.0011263864
0.0011198243
0.0011131955
0.0011064953
0.0010997303
0.0010928954
0.0010859974
0.0010790307
0.0010720025
0.0010649064
0.0010577502
0.001050527
0.0010432448
0.0010358961
0.0010284894
0.0010210166
0.0010134867
0.001005891
0.00099823885
0.00099052088
0.00098274725
0.00097490765
0.00096701295
0.00095905204
0.00095103653
0.00094295442
0.00093481813
0.00092661474
0.00091835756
0.00091003264
0.00090165428
0.00089320743
0.0008847075
0.0008761382
0.00086751616
0.00085882377
0.00085007902
0.00084126281
0.00083239468
0.00082345385
0.00081446161
0.0008053953
0.0007962782
0.00078708554
0.00077784281
0.00076852291
0.00075915383
0.00074970579
0.00074020966
0.00073063262
0.00072100883
0.00071130199
0.00070155001
0.00069171263
0.00068183207
0.00067186351
0.00066185413
0.00065175389
0.00064161566
0.00063138337
0.00062111648
0.00061075198
0.00060035692
0.00058986024
0.00057933782
0.00056870928
0.00055806069
0.0005473009
0.00053652779
0.00052563772
0.00051474227
0.00050372328
0.00049270831
0.00048156224
0.00047043125
0.00045916051
0.00044791788
0.00043652549
0.00042517656
0.00041366631
0.00040221759
0.00039059412
0.0003790535
0.00036732247
0.00035569943
0.00034386769
0.00033217366
0.00032024949
0.00030849818
0.00029649151
0.00028469943
0.00027262221
0.00026080919
0.00024867577
0.00023686576
0.00022469343
0.00021291544
0.00020072502
0.00018901438
0.00017683116
0.0001652312
0.00015308596
0.00014165035
0.00012958086
0.00011837681
0.00010642972
9.5542736e-05
8.3776187e-05
7.331779e-05
6.1804492e-05
5.1924205e-05
4.0753777e-05
3.1667381e-05
2.0940265e-05
1.3011406e-05
2.715349e-06
0.014311958
0.013532488
0.011754117
0.0096113388
0.0075960405
0.0058288498
0.0042614862
0.0028829067
0.001757081
0.00095875945
0.00051258765
0.00036956285
0.00042976733
0.00058763993
0.00076516281
0.00092256469
0.0010452563
0.0011324307
0.0011898052
0.0012251983
0.0012460104
0.0012580934
0.0012655276
0.0012708593
0.001275495
0.0012800844
0.0012848246
0.0012896701
0.0012944782
0.001299086
0.0013033531
0.0013071754
0.0013104892
0.0013132642
0.0013154977
0.001317205
0.0013184143
0.0013191589
0.0013194759
0.0013194003
0.0013189663
0.0013182032
0.0013171385
0.0013157943
0.0013141912
0.001312345
0.0013102714
0.0013079815
0.0013054877
0.0013027983
0.0012999235
0.0012968697
0.0012936459
0.0012902575
0.0012867125
0.0012830153
0.0012791736
0.0012751908
0.0012710742
0.0012668264
0.0012624542
0.0012579597
0.0012533492
0.0012486241
0.0012437905
0.001238849
0.0012338057
0.0012286605
0.0012234192
0.0012180814
0.0012126527
0.0012071321
0.0012015253
0.0011958306
0.0011900538
0.0011841928
0.0011782533
0.0011722329
0.0011661373
0.0011599635
0.0011537175
0.0011473958
0.0011410045
0.0011345396
0.0011280075
0.0011214036
0.0011147346
0.0011079954
0.0011011929
0.0010943215
0.0010873884
0.0010803875
0.0010733264
0.0010661984
0.0010590114
0.0010517581
0.0010444469
0.0010370699
0.001029636
0.0010221366
0.0010145812
0.0010069603
0.00099928407
0.00099154244
0.00098374607
0.00097588412
0.00096796797
0.00095998593
0.00095195014
0.00094384804
0.00093569259
0.00092747026
0.00091919496
0.00091085207
0.00090245656
0.00089399266
0.00088547648
0.00087689098
0.00086825355
0.00085954575
0.00085078641
0.00084195553
0.00083307355
0.00082411875
0.00081511337
0.00080603374
0.00079690416
0.00078769879
0.00077844422
0.00076911216
0.00075973184
0.00075027218
0.00074076538
0.00073117721
0.00072154328
0.00071182578
0.00070206417
0.00069221656
0.00068232687
0.00067234848
0.00066233044
0.00065222074
0.00064207429
0.0006318329
0.00062155823
0.00061118495
0.00060078251
0.00059027736
0.00057974796
0.00056911124
0.00055845606
0.00054768833
0.00053690901
0.00052601124
0.00051510995
0.00050408347
0.00049306302
0.00048190965
0.00047077354
0.00045949567
0.00044824826
0.00043684889
0.00042549554
0.00041397843
0.00040252564
0.00039089542
0.00037935107
0.00036761338
0.00035598696
0.00034414862
0.00033245157
0.00032052084
0.00030876688
0.00029675366
0.00028495929
0.00027287552
0.0002610606
0.0002489206
0.00023710909
0.00022493011
0.00021315104
0.00020095389
0.00018924262
0.00017705252
0.00016545242
0.00015330015
0.0001418649
0.00012978818
0.00011858506
0.00010663051
9.5745058e-05
8.3970774e-05
7.3514597e-05
6.1993238e-05
5.2115955e-05
4.0937069e-05
3.1854612e-05
2.1118693e-05
1.3191313e-05
2.8840393e-06
0.013145008
0.012575076
0.011241172
0.0094372569
0.0075914683
0.0059288423
0.0044816296
0.0032343415
0.0022041438
0.001434373
0.0009512614
0.00073251235
0.0007094217
0.00079578922
0.00091978819
0.0010391409
0.0011355805
0.0012050821
0.0012506769
0.0012780887
0.0012932359
0.0013010027
0.0013048773
0.0013070702
0.0013088205
0.0013107083
0.0013129181
0.0013154234
0.0013180981
0.001320783
0.00132333
0.0013256189
0.001327567
0.0013291233
0.0013302666
0.0013309942
0.0013313195
0.0013312624
0.0013308493
0.0013301056
0.0013290585
0.0013277306
0.0013261445
0.0013243176
0.0013222671
0.0013200055
0.0013175457
0.0013148963
0.0013120677
0.0013090658
0.0013058994
0.0013025729
0.0012990941
0.0012954666
0.0012916976
0.0012877899
0.0012837505
0.0012795815
0.0012752895
0.0012708762
0.0012663479
0.0012617056
0.0012569554
0.0012520978
0.0012471388
0.0012420781
0.0012369217
0.0012316689
0.0012263253
0.00122089
0.0012153684
0.0012097591
0.0012040678
0.0011982922
0.0011924383
0.0011865033
0.0011804932
0.0011744049
0.0011682445
0.0011620084
0.0011557028
0.0011493237
0.0011428774
0.0011363595
0.0011297766
0.0011231236
0.0011164076
0.0011096228
0.0011027767
0.001095863
0.0010888894
0.0010818492
0.0010747504
0.0010675856
0.0010603634
0.0010530759
0.0010457319
0.0010383229
0.0010308583
0.0010233289
0.0010157446
0.0010080956
0.0010003924
0.00099262439
0.00098480271
0.00097691591
0.00096897598
0.00096097054
0.00095291239
0.00094478822
0.00093661172
0.00092836856
0.00092007341
0.00091171085
0.00090329662
0.0008948141
0.00088628025
0.00087767711
0.00086902299
0.00086029847
0.00085152335
0.00084267661
0.0008337797
0.00082480983
0.00081579031
0.00080669636
0.0007975534
0.00078833438
0.00077906714
0.00076972209
0.00076032975
0.00075085769
0.0007413395
0.0007317395
0.00072209478
0.00071236595
0.00070259412
0.00069273567
0.00068283628
0.0006728475
0.00066282027
0.00065270061
0.00064254546
0.0006322945
0.00062201158
0.00061162909
0.00060121886
0.00059070484
0.00058016807
0.00056952278
0.00055886064
0.00054808463
0.00053729876
0.00052639296
0.00051548551
0.00050445124
0.00049342499
0.00048226406
0.00047112252
0.00045983727
0.0004485848
0.00043717823
0.00042582016
0.000414296
0.00040283885
0.0003912017
0.00037965335
0.00036790882
0.00035627876
0.00034443367
0.00033273332
0.00032079589
0.00030903899
0.00029701912
0.00028522216
0.00027313174
0.00026131461
0.00024916794
0.0002373546
0.0002251689
0.0002133884
0.00020118445
0.00018947215
0.00017727516
0.00016567445
0.00015351515
0.00014207973
0.00012999582
0.00011879297
0.00010683103
9.5946329e-05
8.4164415e-05
7.3709453e-05
6.2180216e-05
5.2304556e-05
4.1117586e-05
3.2036847e-05
2.1293387e-05
1.3357892e-05
3.0378736e-06
0.012211455
0.011724717
0.010671241
0.0091795989
0.0075480209
0.0060186519
0.0046823653
0.0035430205
0.0025980586
0.0018659331
0.0013668494
0.0010933016
0.0010003766
0.0010218021
0.0010950259
0.0011773447
0.0012471429
0.0012974846
0.0013293285
0.0013468407
0.0013547158
0.0013569073
0.0013562438
0.0013545082
0.0013526942
0.0013512652
0.0013503685
0.0013499766
0.0013499731
0.0013502044
0.0013505192
0.0013507863
0.0013509072
0.0013508132
0.0013504648
0.0013498418
0.0013489416
0.0013477694
0.0013463388
0.0013446636
0.0013427614
0.0013406462
0.0013383337
0.0013358348
0.0013331618
0.0013303221
0.0013273249
0.0013241749
0.0013208796
0.0013174419
0.0013138682
0.0013101605
0.0013063248
0.0013023625
0.0012982795
0.0012940766
0.0012897597
0.0012853294
0.0012807915
0.0012761461
0.0012713989
0.0012665497
0.0012616042
0.0012565617
0.0012514277
0.0012462011
0.0012408876
0.0012354855
0.0012300005
0.0012244305
0.0012187812
0.0012130501
0.0012072431
0.0012013571
0.0011953982
0.0011893629
0.0011832573
0.0011770775
0.00117083
0.0011645104
0.0011581251
0.0011516695
0.0011451503
0.0011385622
0.0011319123
0.0011251948
0.0011184172
0.001111573
0.00110467
0.0010977015
0.0010906754
0.0010835844
0.0010764371
0.0010692253
0.0010619582
0.001054627
0.0010472412
0.0010397916
0.0010322882
0.001024721
0.0010171007
0.0010094164
0.0010016796
0.00099387858
0.00098602547
0.00097810786
0.00097013854
0.00096210424
0.00095401858
0.00094586734
0.00093766506
0.00092939647
0.00092107714
0.00091269066
0.00090425372
0.00089574869
0.00088719349
0.00087856912
0.00086989491
0.00086115036
0.00085235632
0.00084349065
0.00083457591
0.00082558813
0.0008165518
0.00080744088
0.00079828206
0.00078904695
0.00077976473
0.00077040441
0.00076099792
0.00075151134
0.00074197978
0.00073236597
0.0007227086
0.00071296662
0.00070318283
0.00069331184
0.00068340113
0.00067340039
0.00066336245
0.00065323135
0.00064306607
0.00063280415
0.00062251166
0.00061211867
0.00060169938
0.00059117529
0.00058062996
0.00056997498
0.00055930476
0.00054851943
0.00053772593
0.00052681114
0.0005158965
0.00050485355
0.00049382054
0.00048265119
0.0004715033
0.0004602099
0.00044895147
0.00043753697
0.00042617334
0.00041464145
0.00040317911
0.00039153441
0.00037998123
0.00036822931
0.00035659479
0.00034474244
0.00033303799
0.00032109341
0.00030933277
0.00029730582
0.00028550549
0.00027340804
0.00026158788
0.00024943422
0.00023761821
0.00022542552
0.0002136427
0.00020143175
0.00018971747
0.00017751344
0.00016591108
0.00015374468
0.00014230793
0.00013021683
0.00011901294
0.00010704372
9.6158188e-05
8.4368906e-05
7.3913191e-05
6.2376549e-05
5.2499903e-05
4.1305762e-05
3.2222668e-05
2.1474158e-05
1.3516355e-05
3.1839498e-06
0.011415781
0.010970574
0.01010221
0.0088710831
0.0074651599
0.0060889912
0.0048605063
0.0038102064
0.0029368571
0.0022449484
0.0017449075
0.0014344877
0.0012858521
0.0012504779
0.0012763601
0.0013229981
0.0013667701
0.0013981308
0.0014160515
0.0014232898
0.0014234785
0.0014197408
0.0014142795
0.0014084397
0.0014029411
0.0013981004
0.0013940025
0.0013906015
0.0013877837
0.0013854013
0.0013833048
0.0013813573
0.0013794504
0.0013775014
0.0013754564
0.0013732799
0.0013709555
0.0013684746
0.0013658391
0.0013630519
0.001360121
0.001357052
0.0013538536
0.00135053
0.0013470884
0.001343531
0.0013398633
0.0013360858
0.0013322028
0.0013282141
0.0013241236
0.0013199304
0.0013156387
0.0013112473
0.0013067605
0.0013021771
0.0012975017
0.0012927329
0.0012878755
0.0012829281
0.0012778956
0.0012727761
0.0012675749
0.0012622898
0.0012569261
0.0012514813
0.0012459609
0.001240362
0.0012346902
0.0012289423
0.001223124
0.0012172317
0.0012112714
0.0012052391
0.0011991409
0.0011929724
0.0011867401
0.0011804391
0.001174076
0.0011676456
0.0011611548
0.0011545978
0.0011479821
0.0011413011
0.0011345627
0.00112776
0.0011209011
0.0011139786
0.0011070009
0.0010999602
0.0010928653
0.0010857078
0.0010784969
0.0010712237
0.0010638979
0.0010565098
0.0010490699
0.0010415676
0.0010340139
0.0010263978
0.0010187309
0.0010110012
0.001003221
0.00099537775
0.00098748436
0.00097952736
0.00097152053
0.00096344948
0.00095532886
0.00094714328
0.00093890836
0.00093060765
0.00092225782
0.00091384126
0.00090537579
0.00089684255
0.00088826063
0.00087960978
0.00087091053
0.00086214108
0.00085332354
0.00084443444
0.00083549765
0.00082648779
0.00081743073
0.00080829898
0.00079912066
0.0007898659
0.00078056532
0.00077118641
0.00076176264
0.00075225847
0.00074271062
0.00073308014
0.00072340741
0.00071364963
0.00070385135
0.00069396535
0.00068404097
0.00067402595
0.00066397511
0.00065383042
0.00064365296
0.0006333781
0.0006230741
0.00061266876
0.00060223861
0.00059170271
0.00058114712
0.00057048085
0.00055980094
0.00054900479
0.00053820215
0.00052727698
0.00051635372
0.00050530078
0.00049425964
0.00048308069
0.00047192515
0.00046062247
0.00044935684
0.00043793337
0.00042656298
0.00041502241
0.00040355373
0.00039190059
0.00038034148
0.00036858136
0.00035694129
0.00034508093
0.00033337132
0.0003214189
0.00030965345
0.00029761882
0.00028581403
0.00027370903
0.00026188475
0.00024972363
0.00023790382
0.00022570375
0.00021391742
0.00020169915
0.00018998163
0.00017777032
0.00016616494
0.00015399128
0.00014255166
0.00013045335
0.00011924662
0.00010727024
9.6381725e-05
8.4585381e-05
7.4126213e-05
6.2582787e-05
5.2701478e-05
4.1501508e-05
3.2410027e-05
2.16602e-05
1.366135e-05
3.317945e-06
0.010720739
0.010306233
0.0095703571
0.00854699
0.0073505687
0.006133773
0.0050140087
0.0040427664
0.0032299945
0.0025763524
0.0020843878
0.0017516875
0.0015606346
0.0014770394
0.0014595923
0.0014721123
0.0014906152
0.0015034906
0.0015077308
0.0015046627
0.0014969328
0.0014869515
0.001476389
0.0014662016
0.0014568456
0.0014484785
0.0014411016
0.0014346332
0.0014289499
0.0014239036
0.0014193446
0.0014151308
0.0014111434
0.0014072862
0.0014034906
0.0013997059
0.0013959014
0.0013920552
0.0013881572
0.0013841992
0.00138018
0.0013760965
0.0013719506
0.00136774
0.0013634667
0.0013591282
0.001354726
0.0013502569
0.0013457225
0.001341119
0.0013364485
0.0013317073
0.0013268977
0.0013220162
0.0013170659
0.0013120432
0.0013069518
0.0013017882
0.0012965567
0.0012912537
0.0012858837
0.0012804433
0.0012749373
0.0012693618
0.0012637222
0.0012580142
0.0012522435
0.0012464057
0.0012405064
0.0012345411
0.0012285158
0.0012224255
0.0012162764
0.0012100634
0.0012037929
0.0011974593
0.0011910694
0.0011846172
0.0011781098
0.0011715408
0.0011649177
0.0011582336
0.0011514963
0.0011446985
0.0011378484
0.0011309381
0.0011239764
0.0011169547
0.0011098823
0.0011027501
0.0010955678
0.0010883258
0.0010810342
0.0010736828
0.0010662824
0.0010588219
0.0010513128
0.0010437434
0.0010361257
0.0010284473
0.0010207209
0.0010129333
0.001005098
0.00099720092
0.00098925624
0.00098124912
0.00097319456
0.00096507679
0.00095691171
0.00094868254
0.00094040617
0.00093206474
0.00092367623
0.00091522159
0.00090672
0.00089815111
0.00088953542
0.00088085118
0.00087212033
0.00086331955
0.00085447244
0.00084555392
0.0008365894
0.0008275519
0.00081846884
0.00080931109
0.00080010836
0.00079082912
0.00078150562
0.00077210362
0.00076265831
0.00075313236
0.00074356425
0.0007339132
0.00072422141
0.00071444418
0.00070462794
0.00069472354
0.00068478225
0.00067474981
0.00066468302
0.0006545218
0.00064432931
0.00063403876
0.00062372058
0.00061330033
0.0006028568
0.00059230671
0.00058173851
0.00057105871
0.0005603669
0.00054955785
0.00053874397
0.00052780648
0.00051687261
0.00050580789
0.00049475674
0.0004835665
0.00047240151
0.000461088
0.00044981347
0.00043837959
0.0004270008
0.0004154502
0.0004039736
0.0003923108
0.00038074422
0.00036897476
0.00035732765
0.00034545825
0.000333742
0.0003217808
0.0003100091
0.00029796592
0.00028615523
0.0002740419
0.00026221203
0.00025004278
0.00023821765
0.00022600963
0.0002142182
0.00020199214
0.00019026967
0.00017805074
0.00016644046
0.00015425935
0.00014281475
0.00013070917
0.00011949717
0.00010751377
9.6619332e-05
8.4816389e-05
7.4349987e-05
6.2800758e-05
5.2909513e-05
4.1705908e-05
3.259716e-05
2.1851518e-05
1.3788394e-05
3.437912e-06
0.010108064
0.0097220016
0.0090872452
0.0082272355
0.007211896
0.0061485838
0.0051385056
0.0042429505
0.0034842866
0.0028660165
0.0023869548
0.0020428682
0.0018212815
0.0016983119
0.0016424332
0.0016230073
0.0016172244
0.0016122112
0.0016031431
0.0015898802
0.0015740969
0.0015575814
0.0015415794
0.0015267365
0.0015132816
0.0015012145
0.0014904391
0.0014808196
0.0014722087
0.0014644486
0.0014573843
0.0014508662
0.0014447647
0.0014389689
0.001433395
0.0014279763
0.0014226676
0.0014174329
0.0014122502
0.0014070998
0.0014019713
0.0013968528
0.001391739
0.001386621
0.0013814957
0.0013763553
0.0013711978
0.0013660157
0.0013608079
0.0013555674
0.001350294
0.0013449813
0.0013396299
0.001334234
0.0013287952
0.0013233078
0.0013177747
0.0013121904
0.0013065583
0.0013008732
0.0012951392
0.001289351
0.0012835133
0.0012776207
0.0012716782
0.0012656804
0.0012596328
0.0012535295
0.0012473767
0.001241168
0.0012349101
0.0012285963
0.0012222336
0.0012158151
0.0012093481
0.0012028253
0.0011962545
0.0011896279
0.0011829538
0.0011762239
0.0011694469
0.0011626142
0.0011557348
0.0011487996
0.001141818
0.0011347806
0.0011276973
0.0011205578
0.0011133727
0.0011061314
0.0010988446
0.0010915012
0.0010841127
0.0010766672
0.0010691768
0.0010616288
0.0010540361
0.0010463852
0.0010386898
0.0010309356
0.0010231368
0.0010152786
0.0010073759
0.00099941287
0.00099140535
0.00098333673
0.00097522356
0.00096704833
0.00095882854
0.00095054565
0.00094221819
0.0009338265
0.00092539023
0.00091688852
0.00090834226
0.00089972927
0.00089107177
0.00088234617
0.00087357617
0.00086473658
0.00085585277
0.0008468978
0.00083789888
0.00082882712
0.00081971178
0.0008105218
0.00080128877
0.00079197918
0.00078262722
0.00077319665
0.00076372457
0.00075417169
0.00074457841
0.00073490195
0.00072518648
0.00071538525
0.00070554673
0.00069561965
0.00068565737
0.00067560347
0.00066551691
0.00065533539
0.00064512425
0.00063481446
0.00062447871
0.00061404022
0.0006035801
0.0005930127
0.00058242884
0.00057173261
0.00056102602
0.00055020133
0.00053937349
0.00052842112
0.00051747406
0.00050639516
0.00049533155
0.00048412777
0.000472951
0.00046162457
0.00045033889
0.00043889265
0.00042750331
0.00041594088
0.00040445429
0.00039278014
0.00038120409
0.00036942372
0.00035776763
0.00034588774
0.00033416294
0.00032219165
0.00031041179
0.00029835888
0.00028654037
0.00027441765
0.00026258025
0.00025040192
0.00023856948
0.00022635269
0.00021455407
0.00020231956
0.00019058989
0.00017836283
0.00016674519
0.0001545563
0.00014310394
0.00013099102
0.00011977048
0.00010778032
9.6875946e-05
8.5067133e-05
7.4588299e-05
6.3034836e-05
5.3126266e-05
4.1922457e-05
3.2784055e-05
2.2049955e-05
1.3895846e-05
3.5454218e-06
0.0095653488
0.0092068944
0.0086530617
0.007921333
0.0070568054
0.0061333021
0.0052311584
0.0044110577
0.0037039913
0.0031190848
0.0026553389
0.0023074367
0.0020652271
0.0019115015
0.0018228066
0.0017743284
0.0017455789
0.0017233476
0.0017013781
0.0016781205
0.0016542709
0.0016310389
0.0016093295
0.0015895575
0.0015717729
0.0015558335
0.001541539
0.0015286849
0.0015170851
0.0015065613
0.0014969475
0.0014880837
0.001479829
0.0014720576
0.0014646705
0.0014575847
0.0014507406
0.0014440879
0.0014375928
0.0014312243
0.0014249627
0.001418787
0.0014126851
0.0014066409
0.0014006465
0.0013946883
0.0013887607
0.0013828517
0.0013769577
0.0013710677
0.0013651798
0.0013592841
0.00135338
0.0013474587
0.0013415209
0.0013355584
0.0013295732
0.0013235575
0.0013175145
0.0013114367
0.001305328
0.0012991811
0.0012930008
0.0012867797
0.0012805232
0.0012742239
0.0012678878
0.0012615072
0.0012550887
0.0012486244
0.0012421215
0.0012355717
0.0012289828
0.001222346
0.0012156697
0.0012089448
0.0012021801
0.0011953661
0.0011885122
0.0011816083
0.0011746644
0.00116767
0.0011606354
0.0011535497
0.0011464239
0.0011392464
0.0011320286
0.0011247586
0.0011174484
0.0011100852
0.0011026817
0.0010952247
0.0010877272
0.0010801755
0.0010725834
0.0010649362
0.0010572484
0.0010495048
0.0010417205
0.0010338794
0.0010259976
0.001018058
0.0010100775
0.0010020382
0.00099395791
0.00098581779
0.00097763641
0.00096939411
0.00096111039
0.00095276454
0.00094437712
0.00093592629
0.00092743378
0.0009188765
0.00091027745
0.00090161221
0.00089290514
0.00088413039
0.00087531381
0.00086642796
0.00085750038
0.00084850185
0.00083946177
0.00083034896
0.00082119491
0.00081196624
0.00080269677
0.00079335069
0.00078396443
0.00077449942
0.00076499504
0.00075540964
0.00074578593
0.00073607874
0.00072633458
0.00071650432
0.00070663874
0.0006966842
0.00068669639
0.00067661651
0.00066650587
0.00065629974
0.00064606587
0.00063573276
0.00062537554
0.00061491494
0.00060443454
0.00059384618
0.00058324314
0.000572527
0.00056180228
0.00055095869
0.0005401137
0.00052914335
0.00051818006
0.00050708406
0.00049600507
0.00048478502
0.00047359367
0.00046225173
0.00045095222
0.0004394912
0.00042808873
0.00041651218
0.0004050131
0.00039332547
0.00038173752
0.00036994427
0.00035827681
0.0003463846
0.00033464891
0.00032266582
0.00031087548
0.00029881128
0.00028698262
0.0002748491
0.00026300179
0.00025081314
0.00023897091
0.00022674428
0.00021493587
0.000202692
0.00019095235
0.00017871646
0.00016708837
0.00015489129
0.00014342762
0.00013130729
0.00012007399
0.00010807748
9.7157951e-05
8.5344387e-05
7.4846253e-05
6.3290919e-05
5.3355183e-05
4.2156024e-05
3.2971898e-05
2.2258117e-05
1.398455e-05
3.6442886e-06
0.009082364
0.0087503567
0.0082629064
0.0076333004
0.0068926612
0.0060920124
0.005292442
0.0045477014
0.0038920484
0.0033399103
0.0028928977
0.0025462145
0.0022910913
0.0021144358
0.0019988135
0.0019247725
0.0018747681
0.0018361114
0.0018016643
0.0017686625
0.0017368472
0.0017068554
0.0016792929
0.0016544042
0.0016321112
0.0016121558
0.0015942381
0.0015780765
0.0015634338
0.001550101
0.001537895
0.0015266426
0.0015161912
0.0015064009
0.001497158
0.0014883639
0.0014799446
0.0014718359
0.0014639923
0.0014563713
0.0014489446
0.0014416817
0.001434564
0.0014275681
0.0014206808
0.0014138829
0.0014071651
0.0014005107
0.0013939132
0.001387358
0.0013808409
0.0013743486
0.0013678793
0.0013614209
0.0013549732
0.0013485252
0.0013420784
0.0013356224
0.0013291599
0.0013226813
0.0013161903
0.0013096774
0.0013031475
0.0012965912
0.0012900142
0.001283407
0.0012767763
0.0012701122
0.0012634222
0.0012566963
0.0012499426
0.0012431509
0.0012363298
0.0012294688
0.0012225773
0.0012156443
0.0012086797
0.0012016722
0.0011946323
0.0011875482
0.0011804311
0.0011732685
0.0011660724
0.0011588297
0.001151553
0.0011442287
0.00113687
0.0011294626
0.0011220203
0.0011145284
0.0011070014
0.0010994236
0.0010918103
0.0010841453
0.0010764444
0.0010686908
0.001060901
0.0010530573
0.0010451772
0.001037242
0.0010292701
0.0010212419
0.0010131767
0.001005054
0.000996894
0.00098867528
0.00098041888
0.00097210247
0.00096374809
0.00095533234
0.00094687836
0.00093836158
0.00092980633
0.00092118678
0.00091252858
0.00090380452
0.00089504167
0.00088621135
0.00087734214
0.00086840377
0.00085942652
0.00085037832
0.00084129134
0.00083213155
0.00082293322
0.00081366009
0.00080434879
0.00079496063
0.00078553484
0.00077602998
0.00076648825
0.00075686509
0.00074720606
0.0007374631
0.00072768555
0.00071782136
0.0007079242
0.00069793749
0.00068791981
0.00067780941
0.00066767048
0.0006574354
0.00064717474
0.00063681415
0.00062643156
0.00061594486
0.00060544043
0.00059482726
0.00058420145
0.00057346174
0.00056271542
0.00055184941
0.00054098394
0.00052999226
0.00051900952
0.00050789322
0.00049679576
0.00048555638
0.00047434748
0.00046298712
0.0004516709
0.00044019233
0.00042877392
0.00041718065
0.00040566635
0.00039396277
0.00038236025
0.00037055179
0.00035887033
0.00034696361
0.00033521442
0.00032321751
0.00031141407
0.00029933671
0.00028749525
0.00027534921
0.00026348928
0.00025128877
0.00023943393
0.00022719612
0.00021537489
0.00020312058
0.00019136762
0.00017912211
0.00016747984
0.00015527411
0.00014379482
0.00013166707
0.00012041585
0.00010841363
9.747244e-05
8.565577e-05
7.512968e-05
6.3575765e-05
5.3600494e-05
4.2412179e-05
3.3163004e-05
2.2478797e-05
1.4057739e-05
3.7398605e-06
0.0086503408
0.0083432221
0.0079111682
0.0073644616
0.006725643
0.0060308022
0.005325577
0.0046544704
0.0040506106
0.0035317239
0.0031027445
0.0027607547
0.0024984843
0.002305542
0.0021687012
0.0020729464
0.0020037951
0.0019497153
0.0019032826
0.0018608347
0.0018212473
0.0017845845
0.0017511573
0.0017210706
0.0016941604
0.0016700858
0.0016484625
0.0016289328
0.0016112017
0.001595021
0.0015801843
0.0015665028
0.0015538119
0.0015419585
0.0015308154
0.001520269
0.0015102318
0.0015006256
0.0014913939
0.0014824827
0.0014738547
0.0014654708
0.0014573053
0.0014493275
0.0014415192
0.0014338553
0.0014263227
0.0014188998
0.0014115774
0.0014043366
0.0013971713
0.0013900648
0.0013830136
0.0013760025
0.0013690304
0.0013620832
0.001355162
0.0013482536
0.0013413605
0.0013344704
0.0013275873
0.0013206991
0.001313811
0.0013069112
0.0013000061
0.0012930837
0.0012861515
0.0012791975
0.00127223
0.0012652367
0.0012582268
0.0012511878
0.0012441298
0.0012370398
0.0012299286
0.001222783
0.0012156144
0.0012084092
0.0012011795
0.0011939111
0.0011866171
0.0011792826
0.0011719214
0.001164518
0.001157087
0.0011496122
0.001142109
0.0011345605
0.0011269829
0.0011193586
0.0011117045
0.0011040023
0.0010962696
0.0010884875
0.0010806745
0.0010728105
0.0010649151
0.0010569675
0.0010489878
0.0010409546
0.0010328888
0.001024768
0.0010166142
0.0010084041
0.0010001604
0.00099185892
0.00098352356
0.00097512879
0.00096669978
0.00095820983
0.00094968527
0.00094109817
0.00093247614
0.00092378994
0.00091506853
0.00090628126
0.00089745855
0.00088856824
0.00087964233
0.00087064701
0.00086161603
0.00085251375
0.00084337585
0.00083416469
0.00082491807
0.00081559612
0.00080623903
0.00079680445
0.00078733522
0.00077778622
0.00076820328
0.00075853814
0.00074884
0.00073905709
0.00072924241
0.00071934021
0.00070940779
0.00069938489
0.00068933372
0.00067918887
0.00066901814
0.00065875023
0.00064845937
0.00063806751
0.0006276562
0.00061713971
0.00060660798
0.00059596641
0.00058531464
0.00057454785
0.00056377684
0.00055288502
0.00054199603
0.00053097973
0.00051997459
0.00050883481
0.000497716
0.00048645421
0.00047522493
0.00046384319
0.0004525075
0.00044100852
0.00042957147
0.00041795874
0.00040642655
0.00039470441
0.00038308467
0.00037125851
0.00035956042
0.00034763684
0.00033587151
0.00032385855
0.00031203933
0.00029994675
0.00028808973
0.0002759293
0.00026405385
0.0002518398
0.00023996926