/*--------------------------------*- C++ -*----------------------------------*\
| =========                 |                                                 |
| \\      /  F ield         | OpenFOAM: The Open Source CFD Toolbox           |
|  \\    /   O peration     | Version:  5.x                                   |
|   \\  /    A nd           | Web:      www.OpenFOAM.org                      |
|    \\/     M anipulation  |                                                 |
\*---------------------------------------------------------------------------*/
FoamFile
{
    version     2.0;
    format      ascii;
    class       surfaceScalarField;
    location    "0.9";
    object      phi;
}
// * * * * * * * * * * * * * * * * * * * * * * * * * * * * * * * * * * * * * //

dimensions      [0 3 -1 0 0 0 0];

internalField   nonuniform List<scalar> 
42870
(
3.6478001e-08
3.0076808e-09
-3.9485682e-08
3.2670314e-08
3.807687e-09
2.8879389e-08
3.7909251e-09
2.5282765e-08
3.5966241e-09
2.1877049e-08
3.4057159e-09
1.8729784e-08
3.1472652e-09
1.5966626e-08
2.763158e-09
1.3680821e-08
2.2858042e-09
1.1891292e-08
1.7895298e-09
1.0564848e-08
1.3264434e-09
9.6156668e-09
9.4918137e-10
8.9446902e-09
6.7097652e-10
8.4647581e-09
4.7993211e-10
8.1088803e-09
3.5587782e-10
7.8295183e-09
2.7936196e-10
7.5936031e-09
2.3591523e-10
7.380779e-09
2.1282409e-10
7.1805681e-09
2.002109e-10
6.9887272e-09
1.9184088e-10
6.804273e-09
1.8445429e-10
6.6275732e-09
1.7669972e-10
6.4592916e-09
1.6828159e-10
6.2999013e-09
1.5939032e-10
6.1495305e-09
1.5037079e-10
6.0079812e-09
1.4154932e-10
5.8748144e-09
1.3316681e-10
5.7494497e-09
1.2536474e-10
5.631242e-09
1.1820763e-10
5.519545e-09
1.1169702e-10
5.4137473e-09
1.0579769e-10
5.3132944e-09
1.0045291e-10
5.2176924e-09
9.5602037e-11
5.1265092e-09
9.1183158e-11
5.0393672e-09
8.7142017e-11
4.9559389e-09
8.3428268e-11
4.8759375e-09
8.0001396e-11
4.7991131e-09
7.6824433e-11
4.7252437e-09
7.3869414e-11
4.6541337e-09
7.1110027e-11
4.5856061e-09
6.8527569e-11
4.5195031e-09
6.6103036e-11
4.4556791e-09
6.3823913e-11
4.3940033e-09
6.1675803e-11
4.3343532e-09
5.9650141e-11
4.2766179e-09
5.7735313e-11
4.2206926e-09
5.5925301e-11
4.1664824e-09
5.4210171e-11
4.1138968e-09
5.2585647e-11
4.0628539e-09
5.1042855e-11
4.0132751e-09
4.957883e-11
3.9650896e-09
4.8185473e-11
3.9182287e-09
4.6860915e-11
3.8726311e-09
4.5597599e-11
3.8282365e-09
4.4394609e-11
3.7849917e-09
4.3244819e-11
3.7428435e-09
4.2148185e-11
3.7017456e-09
4.1097889e-11
3.6616509e-09
4.0094683e-11
3.622519e-09
3.9131968e-11
3.5843078e-09
3.8211206e-11
3.5469818e-09
3.7325936e-11
3.5105035e-09
3.6478266e-11
3.4748418e-09
3.5661783e-11
3.4399626e-09
3.4879197e-11
3.4058385e-09
3.4124076e-11
3.3724388e-09
3.3399686e-11
3.3397393e-09
3.2699517e-11
3.3077119e-09
3.2027352e-11
3.2763354e-09
3.137657e-11
3.2455839e-09
3.0751437e-11
3.2154387e-09
3.0145174e-11
3.1858762e-09
2.9562527e-11
3.1568797e-09
2.8996528e-11
3.1284273e-09
2.8452374e-11
3.1005044e-09
2.7922884e-11
3.0730907e-09
2.7413698e-11
3.0461733e-09
2.6917405e-11
3.0197333e-09
2.6440067e-11
2.9937592e-09
2.597403e-11
2.9682335e-09
2.5525771e-11
2.9431461e-09
2.508738e-11
2.9184803e-09
2.4665734e-11
2.8942277e-09
2.4252658e-11
2.8703723e-09
2.3855425e-11
2.8469067e-09
2.3465585e-11
2.8238159e-09
2.309079e-11
2.8010936e-09
2.2722321e-11
2.7787254e-09
2.2368196e-11
2.7567059e-09
2.2019421e-11
2.7350216e-09
2.1684371e-11
2.7136678e-09
2.1353782e-11
2.6926314e-09
2.1036367e-11
2.6719088e-09
2.0722602e-11
2.6514873e-09
2.0421522e-11
2.6313639e-09
2.0123349e-11
2.6115265e-09
1.9837424e-11
2.5919728e-09
1.9553728e-11
2.5726909e-09
1.9281885e-11
2.5536793e-09
1.9011652e-11
2.5349263e-09
1.8752915e-11
2.5164311e-09
1.8495223e-11
2.4981824e-09
1.82487e-11
2.4801797e-09
1.8002709e-11
2.4624121e-09
1.7767588e-11
2.4448796e-09
1.753253e-11
2.4275715e-09
1.7308065e-11
2.4104883e-09
1.708324e-11
2.3936195e-09
1.6868747e-11
2.376966e-09
1.6653512e-11
2.3605177e-09
1.6448364e-11
2.3442755e-09
1.624213e-11
2.3282298e-09
1.6045748e-11
2.3123818e-09
1.5847975e-11
2.296722e-09
1.5659828e-11
2.281252e-09
1.5470017e-11
2.2659623e-09
1.5289615e-11
2.250855e-09
1.5107307e-11
2.2359208e-09
1.4934196e-11
2.2211619e-09
1.4758967e-11
2.2065691e-09
1.4592732e-11
2.1921449e-09
1.4424189e-11
2.1778805e-09
1.4264442e-11
2.1637783e-09
1.4102222e-11
2.1498297e-09
1.3948609e-11
2.1360373e-09
1.3792371e-11
2.1223927e-09
1.3644564e-11
2.1088987e-09
1.3493992e-11
2.0955471e-09
1.3351688e-11
2.0823406e-09
1.3206485e-11
2.0692712e-09
1.3069409e-11
2.0563419e-09
1.2929296e-11
2.0435447e-09
1.2797194e-11
2.0308828e-09
1.2661906e-11
2.0183482e-09
1.2534548e-11
2.0059444e-09
1.2403832e-11
1.9936634e-09
1.228101e-11
1.9815087e-09
1.2154626e-11
1.9694726e-09
1.2036156e-11
1.9575587e-09
1.1913867e-11
1.9457591e-09
1.1799589e-11
1.934078e-09
1.1681166e-11
1.922507e-09
1.157094e-11
1.9110509e-09
1.1456156e-11
1.899701e-09
1.134987e-11
1.8884625e-09
1.1238497e-11
1.8773264e-09
1.1136064e-11
1.8662986e-09
1.1027869e-11
1.8553693e-09
1.0929231e-11
1.8445454e-09
1.0823975e-11
1.8338162e-09
1.0729105e-11
1.8231897e-09
1.0626537e-11
1.8126543e-09
1.0535443e-11
1.802219e-09
1.0435296e-11
1.7918709e-09
1.0348026e-11
1.7816209e-09
1.0250011e-11
1.7714543e-09
1.0166656e-11
1.7613838e-09
1.0070459e-11
1.7513927e-09
9.9911634e-12
1.7414962e-09
9.8964317e-12
1.7316748e-09
9.8214004e-12
1.7219471e-09
9.7277408e-12
1.7122898e-09
9.6572489e-12
1.7027256e-09
9.5642128e-12
1.693227e-09
9.4986205e-12
1.6838213e-09
9.4056937e-12
1.6744758e-09
9.3454608e-12
1.6652238e-09
9.2520478e-12
1.656026e-09
9.1977559e-12
1.6469229e-09
9.1031598e-12
1.6378673e-09
9.0555381e-12
1.6289084e-09
8.9589398e-12
1.6199895e-09
8.9188971e-12
1.6111702e-09
8.8193249e-12
1.6023822e-09
8.7879936e-12
1.5936979e-09
8.6842862e-12
1.5850348e-09
8.6630765e-12
1.576481e-09
8.553838e-12
1.5679365e-09
8.5445101e-12
1.5595084e-09
8.4280486e-12
1.5510756e-09
8.4328104e-12
1.5427685e-09
8.3070582e-12
1.5344398e-09
8.3286977e-12
1.5262487e-09
8.1911053e-12
1.5180156e-09
8.2331723e-12
1.509935e-09
8.0805622e-12
1.5017874e-09
8.1476375e-12
1.4938114e-09
7.9759968e-12
1.4857373e-09
8.0740845e-12
1.477859e-09
7.8782616e-12
1.4698436e-09
8.0154105e-12
1.462055e-09
7.7886462e-12
1.454079e-09
7.9759843e-12
1.4463698e-09
7.7091307e-12
1.4384071e-09
7.9627259e-12
1.4307643e-09
7.6427897e-12
1.422777e-09
7.9873483e-12
1.4151829e-09
7.5940336e-12
1.407111e-09
8.071987e-12
1.3995421e-09
7.5688146e-12
8.6732416e-12
4.2105105e-08
2.7426755e-09
-4.1840099e-08
4.194281e-08
3.9699813e-09
4.1257206e-08
4.47653e-09
4.029477e-08
4.5590593e-09
3.9154519e-08
4.5459668e-09
3.7831939e-08
4.4698457e-09
3.6344517e-08
4.2505802e-09
3.4753006e-08
3.8773151e-09
3.3143383e-08
3.3991527e-09
3.1585123e-08
2.8847033e-09
3.0125055e-08
2.4092493e-09
2.8781513e-08
2.0145188e-09
2.7554574e-08
1.7068712e-09
2.64377e-08
1.4727514e-09
2.5427417e-08
1.2896451e-09
2.4513003e-08
1.1503289e-09
2.3682646e-08
1.0431811e-09
2.2925186e-08
9.576713e-10
2.2230813e-08
8.8621376e-10
2.1591218e-08
8.2404915e-10
2.0999503e-08
7.6841532e-10
2.0449986e-08
7.1779875e-10
1.9937963e-08
6.7141262e-10
1.9459473e-08
6.2886063e-10
1.9011111e-08
5.8991175e-10
1.8589904e-08
5.543736e-10
1.8193233e-08
5.2203545e-10
1.7818767e-08
4.9267363e-10
1.7464435e-08
4.660297e-10
1.7128397e-08
4.4183567e-10
1.6809028e-08
4.1982182e-10
1.6504891e-08
3.9973932e-10
1.6214718e-08
3.8135616e-10
1.5937388e-08
3.6447165e-10
1.5671912e-08
3.4890456e-10
1.5417408e-08
3.3450462e-10
1.5173096e-08
3.211368e-10
1.4938273e-08
3.0869273e-10
1.471231e-08
2.9707315e-10
1.4494637e-08
2.8620074e-10
1.4284738e-08
2.7600149e-10
1.4082142e-08
2.6641966e-10
1.388642e-08
2.573982e-10
1.3697174e-08
2.48896e-10
1.3514042e-08
2.4086723e-10
1.3336687e-08
2.332808e-10
1.3164798e-08
2.2609842e-10
1.2998088e-08
2.1929622e-10
1.283629e-08
2.1284116e-10
1.2679153e-08
2.0671488e-10
1.2526451e-08
2.0088837e-10
1.2377964e-08
1.9534776e-10
1.2233494e-08
1.9006704e-10
1.2092853e-08
1.850361e-10
1.1955866e-08
1.8023135e-10
1.1822368e-08
1.7564597e-10
1.1692208e-08
1.7125822e-10
1.1565239e-08
1.6706413e-10
1.1441327e-08
1.6304341e-10
1.1320344e-08
1.5919456e-10
1.1202171e-08
1.5549841e-10
1.1086694e-08
1.5195558e-10
1.0973808e-08
1.4854769e-10
1.086341e-08
1.452773e-10
1.0755408e-08
1.4212653e-10
1.0649708e-08
1.3909965e-10
1.0546228e-08
1.3617909e-10
1.0444885e-08
1.3337067e-10
1.0345604e-08
1.3065697e-10
1.0248311e-08
1.280452e-10
1.0152938e-08
1.2551794e-10
1.0059417e-08
1.2308374e-10
9.9676881e-09
1.2072508e-10
9.8776887e-09
1.1845169e-10
9.7893657e-09
1.162459e-10
9.7026609e-09
1.1411855e-10
9.6175265e-09
1.1205175e-10
9.5339092e-09
1.1005737e-10
9.451766e-09
1.0811725e-10
9.3710475e-09
1.0624422e-10
9.2917151e-09
1.0441986e-10
9.2137229e-09
1.0265786e-10
9.1370361e-09
1.0093951e-10
9.0616122e-09
9.9279317e-11
8.9874195e-09
9.7658272e-11
8.9144187e-09
9.6091619e-11
8.8425809e-09
9.4560086e-11
8.7718695e-09
9.3079557e-11
8.7022584e-09
9.1630529e-11
8.6337133e-09
9.0229445e-11
8.5662105e-09
8.8856613e-11
8.4997179e-09
8.7528945e-11
8.4342139e-09
8.6226619e-11
8.3696685e-09
8.4966912e-11
8.3060619e-09
8.3729952e-11
8.2433661e-09
8.2533261e-11
8.1815628e-09
8.1357007e-11
8.1206259e-09
8.0218831e-11
8.0605385e-09
7.9099056e-11
8.0012761e-09
7.8015299e-11
7.9428231e-09
7.6948159e-11
7.8851567e-09
7.5915079e-11
7.8282624e-09
7.4897076e-11
7.7721187e-09
7.3911256e-11
7.716712e-09
7.2939196e-11
7.6620226e-09
7.1997493e-11
7.6080374e-09
7.106847e-11
7.5547381e-09
7.0168003e-11
7.5021123e-09
6.9279354e-11
7.4501432e-09
6.8417474e-11
7.3988185e-09
6.756676e-11
7.3481233e-09
6.6741021e-11
7.2980452e-09
6.5926013e-11
7.2485709e-09
6.5134154e-11
7.1996881e-09
6.4352808e-11
7.151385e-09
6.3592738e-11
7.1036491e-09
6.2843176e-11
7.0564704e-09
6.2112955e-11
7.0098359e-09
6.1393457e-11
6.9637373e-09
6.0691285e-11
6.9181612e-09
6.0000266e-11
6.8731012e-09
5.9324467e-11
6.828543e-09
5.8660472e-11
6.7844821e-09
5.8009487e-11
6.7409033e-09
5.7371176e-11
6.6978043e-09
5.6743545e-11
6.6551686e-09
5.6129686e-11
6.6129962e-09
5.552405e-11
6.5712692e-09
5.4933508e-11
6.52999e-09
5.4348594e-11
6.489139e-09
5.3780323e-11
6.4487213e-09
5.3214939e-11
6.4087152e-09
5.2667974e-11
6.3691287e-09
5.2121006e-11
6.3299381e-09
5.1594455e-11
6.2911543e-09
5.1064858e-11
6.252751e-09
5.0557899e-11
6.2147424e-09
5.0044697e-11
6.1770997e-09
4.9556563e-11
6.1398405e-09
4.9058846e-11
6.1029328e-09
4.8588829e-11
6.066398e-09
4.8105745e-11
6.030201e-09
4.7653181e-11
5.9943669e-09
4.7183946e-11
5.9588572e-09
4.6748213e-11
5.9237012e-09
4.6292101e-11
5.8888564e-09
4.5872614e-11
5.8543567e-09
4.5428962e-11
5.8201555e-09
4.5025158e-11
5.7862912e-09
4.4593374e-11
5.752713e-09
4.4204712e-11
5.7194642e-09
4.3784271e-11
5.6864893e-09
4.341022e-11
5.6538366e-09
4.3000678e-11
5.6214459e-09
4.264071e-11
5.5893709e-09
4.2241709e-11
5.5575461e-09
4.1895283e-11
5.5260307e-09
4.1506566e-11
5.494754e-09
4.117312e-11
5.4637808e-09
4.0794543e-11
5.4330351e-09
4.0473477e-11
5.4025873e-09
4.0105031e-11
5.3723558e-09
3.9795689e-11
5.3424169e-09
3.9437529e-11
5.3126834e-09
3.9139177e-11
5.2832372e-09
3.8791652e-11
5.2539858e-09
3.8503451e-11
5.2250164e-09
3.8167149e-11
5.1962315e-09
3.7888121e-11
5.1677231e-09
3.7563925e-11
5.1393891e-09
3.7292916e-11
5.1113259e-09
3.6982075e-11
5.0834276e-09
3.6717698e-11
5.0557936e-09
3.6421925e-11
5.0283154e-09
3.6162495e-11
5.0010944e-09
3.5884093e-11
4.9740207e-09
3.5627544e-11
4.9471956e-09
3.536957e-11
4.9205103e-09
3.5113343e-11
4.8940633e-09
3.4879842e-11
4.8677496e-09
3.4620741e-11
4.8416613e-09
3.4417061e-11
4.8157013e-09
3.4151054e-11
4.7899502e-09
3.3984289e-11
4.7643245e-09
3.3706247e-11
4.7388863e-09
3.358589e-11
4.713573e-09
3.3289217e-11
4.688419e-09
3.3228122e-11
4.663393e-09
3.290424e-11
4.6384883e-09
3.292013e-11
4.6137192e-09
3.2557735e-11
4.5890195e-09
3.2675668e-11
4.564469e-09
3.2259658e-11
4.5399155e-09
3.2516244e-11
4.5155321e-09
3.2026147e-11
4.4910425e-09
3.2476973e-11
4.4667524e-09
3.1884105e-11
4.4422033e-09
3.2621131e-11
4.4178929e-09
3.1879186e-11
3.4219171e-11
4.4025948e-08
2.5882752e-09
-4.3871548e-08
4.4407773e-08
3.5881564e-09
4.4608386e-08
4.275917e-09
4.4658421e-08
4.5090243e-09
4.4624839e-08
4.5795497e-09
4.4504202e-08
4.5904825e-09
4.424222e-08
4.5125623e-09
4.3817982e-08
4.3015528e-09
4.3251766e-08
3.9653684e-09
4.2578938e-08
3.557532e-09
4.1841181e-08
3.1470059e-09
4.1070786e-08
2.7849138e-09
4.0287247e-08
2.4904105e-09
3.9502714e-08
2.2572836e-09
3.8722607e-08
2.0697525e-09
3.7953962e-08
1.9189738e-09
3.7200837e-08
1.7963062e-09
3.6465165e-08
1.6933436e-09
3.5747923e-08
1.6034555e-09
3.5049749e-08
1.5222232e-09
3.4371149e-08
1.4470153e-09
3.3712544e-08
1.3764037e-09
3.3074266e-08
1.3096908e-09
3.2456527e-08
1.2465991e-09
3.1859392e-08
1.1870468e-09
3.1282765e-08
1.1310009e-09
3.0726396e-08
1.0784042e-09
3.0189882e-08
1.0291875e-09
2.96727e-08
9.8321237e-10
2.9174229e-08
9.403068e-10
2.8693782e-08
9.002679e-10
2.8230629e-08
8.6289246e-10
2.7784015e-08
8.2797041e-10
2.7353177e-08
7.9530929e-10
2.6937363e-08
7.647194e-10
2.6535832e-08
7.3603538e-10
2.6147873e-08
7.0909612e-10
2.5772799e-08
6.8376608e-10
2.5409961e-08
6.5991173e-10
2.5058737e-08
6.3742419e-10
2.4718546e-08
6.16193e-10
2.4388834e-08
5.9613101e-10
2.4069087e-08
5.7714593e-10
2.3758815e-08
5.5916774e-10
2.3457564e-08
5.4211814e-10
2.3164904e-08
5.2594066e-10
2.2880435e-08
5.105678e-10
2.2603777e-08
4.95954e-10
2.2334578e-08
4.8204019e-10
2.2072503e-08
4.6878982e-10
2.1817241e-08
4.5615078e-10
2.1568494e-08
4.4409413e-10
2.1325988e-08
4.3257324e-10
2.1089458e-08
4.2156566e-10
2.085866e-08
4.110293e-10
2.0633359e-08
4.0094734e-10
2.0413336e-08
3.9128125e-10
2.0198381e-08
3.8201914e-10
1.9988299e-08
3.7312538e-10
1.9782901e-08
3.6459229e-10
1.9582013e-08
3.5638657e-10
1.9385465e-08
3.485042e-10
1.9193099e-08
3.4091363e-10
1.9004762e-08
3.3361414e-10
1.8820313e-08
3.265755e-10
1.8639613e-08
3.1979988e-10
1.8462534e-08
3.1325805e-10
1.828895e-08
3.0695469e-10
1.8118745e-08
3.0086139e-10
1.7951805e-08
2.9498504e-10
1.7788026e-08
2.8929776e-10
1.7627301e-08
2.8380856e-10
1.7469536e-08
2.7848991e-10
1.7314635e-08
2.7335261e-10
1.7162511e-08
2.6836942e-10
1.7013077e-08
2.6355278e-10
1.6866253e-08
2.5887565e-10
1.6721959e-08
2.5435186e-10
1.6580122e-08
2.4995456e-10
1.6440667e-08
2.4569885e-10
1.6303529e-08
2.4155803e-10
1.6168638e-08
2.375482e-10
1.6035935e-08
2.3364291e-10
1.5905355e-08
2.2985911e-10
1.5776843e-08
2.2617057e-10
1.565034e-08
2.225949e-10
1.5525793e-08
2.1910624e-10
1.540315e-08
2.157226e-10
1.5282362e-08
2.124186e-10
1.5163379e-08
2.0921242e-10
1.5046157e-08
2.0607934e-10
1.4930648e-08
2.0303744e-10
1.4816812e-08
2.0006283e-10
1.4704606e-08
1.9717324e-10
1.459399e-08
1.9434586e-10
1.4484925e-08
1.9159768e-10
1.4377375e-08
1.8890728e-10
1.4271303e-08
1.862906e-10
1.4166674e-08
1.8372788e-10
1.4063456e-08
1.8123363e-10
1.3961614e-08
1.7879011e-10
1.3861119e-08
1.7640997e-10
1.3761938e-08
1.7407794e-10
1.3664045e-08
1.7180431e-10
1.3567408e-08
1.6957669e-10
1.3472003e-08
1.6740255e-10
1.3377798e-08
1.6527291e-10
1.3284774e-08
1.6319182e-10
1.31929e-08
1.6115426e-10
1.3102157e-08
1.5916027e-10
1.3012514e-08
1.5720939e-10
1.2923958e-08
1.5529697e-10
1.2836456e-08
1.5342783e-10
1.2749999e-08
1.5159189e-10
1.2664551e-08
1.4979995e-10
1.2580108e-08
1.4803575e-10
1.2496635e-08
1.4631686e-10
1.2414128e-08
1.4461998e-10
1.2332551e-08
1.4297034e-10
1.2251906e-08
1.4133665e-10
1.2172153e-08
1.3975277e-10
1.2093299e-08
1.3817842e-10
1.2015302e-08
1.3665712e-10
1.1938173e-08
1.3513851e-10
1.1861868e-08
1.3367685e-10
1.1786401e-08
1.3221057e-10
1.1711724e-08
1.3080589e-10
1.163786e-08
1.2938875e-10
1.1564755e-08
1.2803862e-10
1.1492436e-08
1.2666759e-10
1.1420846e-08
1.2536978e-10
1.1350019e-08
1.2404202e-10
1.1279893e-08
1.2279452e-10
1.1210506e-08
1.215073e-10
1.1141792e-08
1.2030829e-10
1.1073798e-08
1.1905904e-10
1.1006449e-08
1.1790686e-10
1.0939801e-08
1.1669313e-10
1.0873771e-08
1.1558629e-10
1.0808424e-08
1.1440574e-10
1.074367e-08
1.1334292e-10
1.0679583e-08
1.1219329e-10
1.0616062e-08
1.1117332e-10
1.0553194e-08
1.1005247e-10
1.0490868e-08
1.0907431e-10
1.042918e-08
1.0798016e-10
1.0368009e-08
1.0704291e-10
1.0307465e-08
1.0597348e-10
1.0247414e-08
1.0507635e-10
1.0187977e-08
1.0402975e-10
1.012901e-08
1.0317209e-10
1.0070648e-08
1.0214649e-10
1.001273e-08
1.0132773e-10
9.9554095e-09
1.0032139e-10
9.8985092e-09
9.9541087e-11
9.8421985e-09
9.8552359e-11
9.7862837e-09
9.7810146e-11
9.7309527e-09
9.6837479e-11
9.6759928e-09
9.6133072e-11
9.6216123e-09
9.5175024e-11
9.5675776e-09
9.4508211e-11
9.5141191e-09
9.3563476e-11
9.4609807e-09
9.2934096e-11
9.4084167e-09
9.200153e-11
9.3561464e-09
9.140946e-11
9.30445e-09
9.048812e-11
9.2530202e-09
8.993325e-11
9.2021649e-09
8.9022448e-11
9.1515483e-09
8.850465e-11
9.1015082e-09
8.7604029e-11
9.051678e-09
8.712313e-11
9.0024273e-09
8.6232751e-11
8.9533566e-09
8.5788479e-11
8.9048695e-09
8.4908961e-11
8.8565311e-09
8.4500882e-11
8.8087816e-09
8.3633577e-11
8.7611482e-09
8.326102e-11
8.7141095e-09
8.2408258e-11
8.6671526e-09
8.2070202e-11
8.6207968e-09
8.1235628e-11
8.574487e-09
8.0930564e-11
8.5287844e-09
8.0119625e-11
8.4830901e-09
7.9845351e-11
8.4380085e-09
7.9065967e-11
8.3928954e-09
7.8819337e-11
8.3483983e-09
7.8082932e-11
8.3038281e-09
7.7859486e-11
8.2598737e-09
7.71825e-11
8.2158019e-09
7.6975998e-11
8.1723398e-09
7.6382273e-11
8.1287134e-09
7.6184085e-11
8.0856803e-09
7.5708762e-11
8.0424327e-09
7.5507234e-11
7.9997456e-09
7.5203357e-11
7.9567885e-09
7.4983318e-11
7.9143317e-09
7.4933721e-11
7.8715425e-09
7.4673293e-11
7.8291295e-09
7.5034122e-11
7.7863676e-09
7.4641073e-11
7.7727165e-11
4.5951811e-08
2.5157883e-09
-4.5879324e-08
4.6264403e-08
3.2755647e-09
4.6598628e-08
3.9416915e-09
4.6849416e-08
4.2582369e-09
4.7064296e-08
4.3646692e-09
4.7268783e-08
4.3859962e-09
4.7429579e-08
4.3517654e-09
4.7505865e-08
4.2252673e-09
4.7478365e-08
3.9928679e-09
4.7350441e-08
3.685456e-09
4.7141941e-08
3.3555065e-09
4.6876057e-08
3.0507973e-09
4.6570722e-08
2.7957464e-09
4.6236035e-08
2.5919702e-09
4.5876385e-08
2.4294023e-09
4.5497321e-08
2.2980379e-09
4.5103416e-08
2.190211e-09
4.4697415e-08
2.0993452e-09
4.4280892e-08
2.0199777e-09
4.3855013e-08
1.9481025e-09
4.3420909e-08
1.8811192e-09
4.297979e-08
1.8175229e-09
4.253295e-08
1.7565307e-09
4.2081737e-08
1.6978125e-09
4.162751e-08
1.6412734e-09
4.1171589e-08
1.5869223e-09
4.0715213e-08
1.5347804e-09
4.0259527e-08
1.4848728e-09
3.9805568e-08
1.4371716e-09
3.9354254e-08
1.3916212e-09
3.8906393e-08
1.348129e-09
3.8462685e-08
1.3065997e-09
3.8023735e-08
1.266921e-09
3.759005e-08
1.2289937e-09
3.7162059e-08
1.1927103e-09
3.6740112e-08
1.1579833e-09
3.6324489e-08
1.1247183e-09
3.5915412e-08
1.0928434e-09
3.5513046e-08
1.0622779e-09
3.5117506e-08
1.0329638e-09
3.4728868e-08
1.0048315e-09
3.4347165e-08
9.7783364e-10
3.3972403e-08
9.519084e-10
3.3604554e-08
9.2701629e-10
3.3243572e-08
9.0310057e-10
3.2889385e-08
8.8012759e-10
3.2541909e-08
8.5804415e-10
3.2201041e-08
8.3682127e-10
3.1866673e-08
8.1640827e-10
3.1538683e-08
7.9678026e-10
3.1216945e-08
7.7788907e-10
3.0901325e-08
7.5971367e-10
3.059169e-08
7.4220793e-10
3.0287901e-08
7.2535457e-10
2.9989821e-08
7.0910951e-10
2.9697309e-08
6.934592e-10
2.9410229e-08
6.7836128e-10
2.9128443e-08
6.638059e-10
2.8851816e-08
6.4975237e-10
2.8580214e-08
6.3619419e-10
2.8313508e-08
6.2309229e-10
2.8051569e-08
6.1044324e-10
2.7794273e-08
5.9820929e-10
2.7541497e-08
5.8639004e-10
2.7293124e-08
5.7494883e-10
2.7049036e-08
5.6388801e-10
2.6809122e-08
5.5317185e-10
2.6573272e-08
5.4280512e-10
2.634138e-08
5.3275308e-10
2.6113342e-08
5.2302258e-10
2.5889061e-08
5.1357964e-10
2.5668436e-08
5.0443316e-10
2.5451376e-08
4.9554987e-10
2.5237788e-08
4.869403e-10
2.5027586e-08
4.7857191e-10
2.4820682e-08
4.7045667e-10
2.4616995e-08
4.625628e-10
2.4416443e-08
4.5490334e-10
2.421895e-08
4.4744739e-10
2.402444e-08
4.4020881e-10
2.3832841e-08
4.3315767e-10
2.3644081e-08
4.2630826e-10
2.3458092e-08
4.1963183e-10
2.3274808e-08
4.1314281e-10
2.3094165e-08
4.0681378e-10
2.2916101e-08
4.0065892e-10
2.2740555e-08
3.9465245e-10
2.2567469e-08
3.8880783e-10
2.2396787e-08
3.8310128e-10
2.2228454e-08
3.7754508e-10
2.2062416e-08
3.7211779e-10
2.1898623e-08
3.6683003e-10
2.1737023e-08
3.6166315e-10
2.157757e-08
3.5662553e-10
2.1420214e-08
3.5170185e-10
2.1264915e-08
3.4689758e-10
2.1111621e-08
3.4220132e-10
2.0960296e-08
3.3761496e-10
2.0810892e-08
3.331317e-10
2.0663377e-08
3.2874904e-10
2.0517702e-08
3.2446553e-10
2.0373838e-08
3.2027344e-10
2.0231738e-08
3.1617756e-10
2.0091379e-08
3.1216395e-10
1.9952711e-08
3.0824454e-10
1.9815715e-08
3.0439818e-10
1.9680343e-08
3.0064502e-10
1.954658e-08
2.969555e-10
1.9414375e-08
2.9335919e-10
1.9283718e-08
2.8981687e-10
1.9154559e-08
2.8636876e-10
1.9026891e-08
2.8296464e-10
1.8900662e-08
2.796568e-10
1.8775871e-08
2.7638249e-10
1.8652464e-08
2.7320764e-10
1.8530444e-08
2.7005529e-10
1.8409754e-08
2.6700672e-10
1.8290405e-08
2.6396898e-10
1.8172335e-08
2.6104056e-10
1.8055561e-08
2.5811053e-10
1.7940017e-08
2.5529664e-10
1.7825728e-08
2.5246781e-10
1.7712622e-08
2.4976329e-10
1.7600731e-08
2.4702954e-10
1.7489978e-08
2.4442969e-10
1.7380403e-08
2.417852e-10
1.7271923e-08
2.3928573e-10
1.7164587e-08
2.3672499e-10
1.7058304e-08
2.3432202e-10
1.6953132e-08
2.3183977e-10
1.6848972e-08
2.2952978e-10
1.6745893e-08
2.27121e-10
1.6643786e-08
2.2490083e-10
1.6542733e-08
2.2256071e-10
1.6442614e-08
2.2042754e-10
1.6343521e-08
2.1815145e-10
1.6245325e-08
2.1610277e-10
1.6148132e-08
2.1388625e-10
1.6051799e-08
2.1191987e-10
1.5956446e-08
2.097586e-10
1.5861916e-08
2.0787263e-10
1.5768347e-08
2.0576238e-10
1.5675565e-08
2.0395523e-10
1.5583726e-08
2.0189191e-10
1.5492638e-08
2.0016226e-10
1.5402476e-08
1.9814185e-10
1.531303e-08
1.9648867e-10
1.5224496e-08
1.9450721e-10
1.5136643e-08
1.9292975e-10
1.5049689e-08
1.9098337e-10
1.496338e-08
1.8948113e-10
1.4877961e-08
1.8756598e-10
1.479315e-08
1.8613876e-10
1.470922e-08
1.8425104e-10
1.4625862e-08
1.828989e-10
1.454338e-08
1.8103485e-10
1.4461432e-08
1.7975811e-10
1.4380355e-08
1.7791401e-10
1.4299775e-08
1.7671328e-10
1.4220065e-08
1.7488544e-10
1.4140811e-08
1.737616e-10
1.4062429e-08
1.7194639e-10
1.3984462e-08
1.7090057e-10
1.3907369e-08
1.6909444e-10
1.3830651e-08
1.6812807e-10
1.3754811e-08
1.6632758e-10
1.3679302e-08
1.6544234e-10
1.360468e-08
1.6364419e-10
1.3530343e-08
1.6284203e-10
1.3456904e-08
1.610432e-10
1.33837e-08
1.6032633e-10
1.3311409e-08
1.5852409e-10
1.3239303e-08
1.5789496e-10
1.3168125e-08
1.560871e-10
1.3097077e-08
1.5554837e-10
1.3026977e-08
1.5373338e-10
1.295695e-08
1.5328786e-10
1.2887893e-08
1.5146525e-10
1.2818848e-08
1.5111587e-10
1.2750797e-08
1.4928658e-10
1.2682691e-08
1.4903629e-10
1.2615607e-08
1.4720336e-10
1.2548398e-08
1.4705496e-10
1.2482239e-08
1.4522444e-10
1.2415878e-08
1.451804e-10
1.2350598e-08
1.4336275e-10
1.2285033e-08
1.4342494e-10
1.2220578e-08
1.4163723e-10
1.2155748e-08
1.4180653e-10
1.2092054e-08
1.4007585e-10
1.2027886e-08
1.4035167e-10
1.1964874e-08
1.3872103e-10
1.1901281e-08
1.3910071e-10
1.1838844e-08
1.3763968e-10
1.1775711e-08
1.3811676e-10
1.17137e-08
1.3694495e-10
1.1650882e-08
1.3749094e-10
1.1589025e-08
1.3689099e-10
1.1526401e-08
1.3726543e-10
1.4060186e-10
4.7969448e-08
2.4583595e-09
-4.7912019e-08
4.8196169e-08
3.048843e-09
4.8513126e-08
3.6247348e-09
4.8794897e-08
3.9764659e-09
4.9038587e-08
4.1209791e-09
4.9275698e-08
4.1488857e-09
4.9505498e-08
4.1219654e-09
4.9700411e-08
4.0303537e-09
4.9834848e-08
3.8584308e-09
4.9899273e-08
3.6210311e-09
4.9901626e-08
3.3531538e-09
4.9858502e-08
3.0939208e-09
4.9784166e-08
2.8700828e-09
4.9686962e-08
2.6891742e-09
4.9570577e-08
2.5457877e-09
4.9437892e-08
2.4307226e-09
4.9291556e-08
2.3365469e-09
4.9133193e-08
2.2577086e-09
4.8963392e-08
2.1897783e-09
4.8782184e-08
2.1293108e-09
4.8589465e-08
2.0738384e-09
4.838521e-08
2.0217774e-09
4.8169552e-08
1.9721886e-09
4.7942786e-08
1.9245784e-09
4.7705355e-08
1.8787042e-09
4.7457806e-08
1.8344716e-09
4.7200754e-08
1.7918319e-09
4.6934863e-08
1.7507638e-09
4.6660816e-08
1.7112189e-09
4.6379296e-08
1.6731409e-09
4.6090983e-08
1.6364425e-09
4.5796539e-08
1.6010433e-09
4.5496615e-08
1.5668458e-09
4.5191836e-08
1.5337726e-09
4.488281e-08
1.5017362e-09
4.4570119e-08
1.4706744e-09
4.4254321e-08
1.4405155e-09
4.393595e-08
1.411215e-09
4.3615511e-08
1.3827166e-09
4.3293484e-08
1.3549913e-09
4.297032e-08
1.3279948e-09
4.2646444e-08
1.3017094e-09
4.2322254e-08
1.2760988e-09
4.1998117e-08
1.2511533e-09
4.1674377e-08
1.226841e-09
4.1351347e-08
1.2031571e-09
4.1029319e-08
1.1800719e-09
4.0708557e-08
1.1575838e-09
4.0389301e-08
1.1356638e-09
4.0071769e-08
1.1143123e-09
3.9756158e-08
1.0935006e-09
3.9442641e-08
1.0732305e-09
3.9131376e-08
1.0534731e-09
3.8822499e-08
1.0342313e-09
3.8516133e-08
1.0154759e-09
3.8212381e-08
9.9721106e-10
3.7911335e-08
9.7940694e-10
3.7613072e-08
9.6206908e-10
3.7317657e-08
9.4516714e-10
3.7025144e-08
9.2870771e-10
3.6735576e-08
9.1266028e-10
3.6448986e-08
8.9703235e-10
3.6165403e-08
8.8179317e-10
3.5884841e-08
8.6695133e-10
3.5607314e-08
8.5247591e-10
3.5332826e-08
8.3837643e-10
3.5061376e-08
8.2462194e-10
3.4792958e-08
8.1122271e-10
3.4527563e-08
7.9814817e-10
3.4265177e-08
7.85409e-10
3.4005781e-08
7.7297505e-10
3.3749357e-08
7.6085759e-10
3.349588e-08
7.4902705e-10
3.3245325e-08
7.3749482e-10
3.2997665e-08
7.2623228e-10
3.2752871e-08
7.1525076e-10
3.251091e-08
7.0452287e-10
3.2271754e-08
6.9405939e-10
3.2035367e-08
6.8383461e-10
3.1801718e-08
6.7385845e-10
3.1570768e-08
6.641072e-10
3.1342487e-08
6.5458941e-10
3.1116835e-08
6.4528388e-10
3.089378e-08
6.3619733e-10
3.0673283e-08
6.273115e-10
3.0455311e-08
6.1863065e-10
3.0239823e-08
6.1014019e-10
3.002679e-08
6.0184117e-10
2.9816168e-08
5.9372331e-10
2.9607929e-08
5.8578374e-10
2.940203e-08
5.7801723e-10
2.9198444e-08
5.7041615e-10
2.8997126e-08
5.6298116e-10
2.8798052e-08
5.5569893e-10
2.8601177e-08
5.48577e-10
2.8406479e-08
5.4159523e-10
2.8213911e-08
5.3476916e-10
2.8023456e-08
5.280706e-10
2.7835063e-08
5.2152435e-10
2.7648719e-08
5.1509286e-10
2.7464373e-08
5.0881151e-10
2.7282015e-08
5.0263191e-10
2.7101591e-08
4.966016e-10
2.6923095e-08
4.906597e-10
2.6746472e-08
4.8486748e-10
2.657172e-08
4.7914987e-10
2.6398782e-08
4.7358382e-10
2.6227659e-08
4.6807791e-10
2.6058292e-08
4.6272687e-10
2.5890688e-08
4.5742083e-10
2.5724782e-08
4.5227447e-10
2.5560589e-08
4.4715711e-10
2.539804e-08
4.4220588e-10
2.5237156e-08
4.3726662e-10
2.5077862e-08
4.3250168e-10
2.4920187e-08
4.277305e-10
2.476405e-08
4.2314369e-10
2.4609488e-08
4.185311e-10
2.4456414e-08
4.1411489e-10
2.4304872e-08
4.0965186e-10
2.415477e-08
4.0539932e-10
2.400616e-08
4.0107724e-10
2.3858941e-08
3.9698205e-10
2.3713178e-08
3.927927e-10
2.3568759e-08
3.8884904e-10
2.342576e-08
3.8478454e-10
2.3284058e-08
3.8098716e-10
2.3143743e-08
3.7703992e-10
2.3004681e-08
3.7338406e-10
2.2866974e-08
3.6954679e-10
2.2730476e-08
3.6602818e-10
2.2595303e-08
3.622938e-10
2.2461295e-08
3.5890866e-10
2.2328585e-08
3.5527029e-10
2.2196998e-08
3.5201529e-10
2.2066683e-08
3.4846624e-10
2.1937447e-08
3.4533851e-10
2.1809461e-08
3.4187222e-10
2.1682512e-08
3.3886933e-10
2.1556791e-08
3.3547937e-10
2.1432064e-08
3.3259936e-10
2.1308547e-08
3.2927933e-10
2.1185982e-08
3.2652066e-10
2.106461e-08
3.2326427e-10
2.0944146e-08
3.2062585e-10
2.0824861e-08
3.1742681e-10
2.0706442e-08
3.1490801e-10
2.0589189e-08
3.1176004e-10
2.0472758e-08
3.0936067e-10
2.0357484e-08
3.0625746e-10
2.0242987e-08
3.0397781e-10
2.012964e-08
3.00913e-10
2.0017025e-08
2.9875383e-10
1.9905555e-08
2.9572101e-10
1.979477e-08
2.9368357e-10
1.9685129e-08
2.9067622e-10
1.9576125e-08
2.8876228e-10
1.9468265e-08
2.857738e-10
1.9360993e-08
2.8398565e-10
1.9254869e-08
2.8100932e-10
1.9149281e-08
2.793498e-10
1.9044848e-08
2.7637877e-10
1.8940897e-08
2.7485133e-10
1.8838113e-08
2.7187866e-10
1.8735754e-08
2.7048734e-10
1.8634576e-08
2.6750597e-10
1.8533762e-08
2.6625546e-10
1.8434148e-08
2.6325832e-10
1.8334836e-08
2.6215397e-10
1.8236746e-08
2.5913399e-10
1.813889e-08
2.5818188e-10
1.8042282e-08
2.5513209e-10
1.7945838e-08
2.5433905e-10
1.7850672e-08
2.5125278e-10
1.7755594e-08
2.5062638e-10
1.766183e-08
2.474975e-10
1.7568072e-08
2.4704611e-10
1.7475668e-08
2.4386936e-10
1.7383182e-08
2.4360212e-10
1.7292094e-08
2.4037369e-10
1.720083e-08
2.4030051e-10
1.7111015e-08
2.3701883e-10
1.7020919e-08
2.3715028e-10
1.6932327e-08
2.3381724e-10
1.6843343e-08
2.341644e-10
1.6755918e-08
2.3078732e-10
1.6667981e-08
2.3136149e-10
1.6581663e-08
2.2795613e-10
1.6494701e-08
2.2876831e-10
1.6409413e-08
2.2536399e-10
1.632334e-08
2.2642391e-10
1.6238989e-08
2.2307263e-10
1.6153703e-08
2.243864e-10
1.6070162e-08
2.2118121e-10
1.5985536e-08
2.2274267e-10
1.5902616e-08
2.1986435e-10
1.5818505e-08
2.2160178e-10
1.5735856e-08
2.1954026e-10
1.5652137e-08
2.2098499e-10
2.2402921e-10
5.0054072e-08
2.3981031e-09
-4.9993816e-08
5.0228462e-08
2.8744529e-09
5.0500774e-08
3.352423e-09
5.0776071e-08
3.7011688e-09
5.1020213e-08
3.8768376e-09
5.1245153e-08
3.9239459e-09
5.1464303e-08
3.9028151e-09
5.1665655e-08
3.8290019e-09
5.1828592e-08
3.6954932e-09
5.1941178e-08
3.5084458e-09
5.2005111e-08
3.28922e-09
5.2031971e-08
3.0670611e-09
5.2034797e-08
2.8672568e-09
5.2022091e-08
2.7018801e-09
5.1998214e-08
2.5696651e-09
5.1965382e-08
2.4635543e-09
5.1925318e-08
2.3766115e-09
5.1879243e-08
2.303783e-09
5.1827642e-08
2.2413789e-09
5.1770382e-08
2.1865711e-09
5.1707014e-08
2.137207e-09
5.1637015e-08
2.0917761e-09
5.1559924e-08
2.0492793e-09
5.1475388e-08
2.0091148e-09
5.1383171e-08
1.9709209e-09
5.128314e-08
1.9345027e-09
5.1175244e-08
1.8997283e-09
5.1059496e-08
1.8665119e-09
5.0935958e-08
1.8347564e-09
5.0804726e-08
1.8043729e-09
5.0665923e-08
1.775246e-09
5.0519692e-08
1.7472742e-09
5.0366199e-08
1.7203384e-09
5.0205627e-08
1.694345e-09
5.0038175e-08
1.6691882e-09
4.9864057e-08
1.6447927e-09
4.9683501e-08
1.6210714e-09
4.9496746e-08
1.5979694e-09
4.9304045e-08
1.5754179e-09
4.9105656e-08
1.5533804e-09
4.8901848e-08
1.5318032e-09
4.8692893e-08
1.5106645e-09
4.8479069e-08
1.489922e-09
4.8260658e-08
1.469565e-09
4.803794e-08
1.4495588e-09
4.7811196e-08
1.4299006e-09
4.7580707e-08
1.4105611e-09
4.7346748e-08
1.3915427e-09