/*--------------------------------*- C++ -*----------------------------------*\
| =========                 |                                                 |
| \\      /  F ield         | OpenFOAM: The Open Source CFD Toolbox           |
|  \\    /   O peration     | Version:  5.x                                   |
|   \\  /    A nd           | Web:      www.OpenFOAM.org                      |
|    \\/     M anipulation  |                                                 |
\*---------------------------------------------------------------------------*/
FoamFile
{
    version     2.0;
    format      ascii;
    class       volVectorField;
    location    "0.9";
    object      U;
}
// * * * * * * * * * * * * * * * * * * * * * * * * * * * * * * * * * * * * * //

dimensions      [0 1 -1 0 0 0 0];

internalField   nonuniform List<vector> 
21600
(
(0.44561521 0.0096597201 0)
(0.40260157 0.013137719 0)
(0.36167563 0.013390364 0)
(0.32010921 0.01230939 0)
(0.27850699 0.011030054 0)
(0.23875809 0.0096292901 0)
(0.20300228 0.0079010597 0)
(0.1730319 0.0058437708 0)
(0.14933224 0.0036686476 0)
(0.13152802 0.0018308197 0)
(0.11856017 0.00060917148 0)
(0.10924687 -4.4741549e-05 0)
(0.10257121 -0.00031940081 0)
(0.097690925 -0.00036978322 0)
(0.093974283 -0.00030772527 0)
(0.090953913 -0.00019937366 0)
(0.088320318 -8.70185e-05 0)
(0.085894911 5.8690771e-06 0)
(0.083590814 7.1861816e-05 0)
(0.081377021 0.00011290599 0)
(0.079250598 0.00013455472 0)
(0.077218373 0.00014280663 0)
(0.075287622 0.00014272161 0)
(0.073462133 0.00013801743 0)
(0.071741682 0.00013114208 0)
(0.07012251 0.00012355 0)
(0.068598689 0.00011601621 0)
(0.067162933 0.0001089207 0)
(0.065807681 0.00010240077 0)
(0.064525452 9.6472648e-05 0)
(0.063309444 9.1093098e-05 0)
(0.062153412 8.6205403e-05 0)
(0.061051983 8.1745599e-05 0)
(0.060000316 7.7660034e-05 0)
(0.058994351 7.3896733e-05 0)
(0.05803039 7.0417174e-05 0)
(0.057105371 6.7183658e-05 0)
(0.056216424 6.4170818e-05 0)
(0.055361198 6.1351701e-05 0)
(0.054537395 5.8710298e-05 0)
(0.053743158 5.6226791e-05 0)
(0.052976584 5.3891325e-05 0)
(0.052236172 5.1688421e-05 0)
(0.051520298 4.9612049e-05 0)
(0.050827727 4.7649168e-05 0)
(0.050157044 4.5796111e-05 0)
(0.049507225 4.4041162e-05 0)
(0.048877017 4.2382214e-05 0)
(0.048265572 4.0808293e-05 0)
(0.047671769 3.9318569e-05 0)
(0.047094911 3.7902653e-05 0)
(0.046533985 3.6560753e-05 0)
(0.045988424 3.5282839e-05 0)
(0.045457302 3.4070103e-05 0)
(0.044940169 3.2912846e-05 0)
(0.04443617 3.1813205e-05 0)
(0.043944957 3.0761736e-05 0)
(0.043465729 2.976145e-05 0)
(0.042998232 2.8803076e-05 0)
(0.042541706 2.7890426e-05 0)
(0.042095979 2.7014318e-05 0)
(0.041660324 2.6179296e-05 0)
(0.041234646 2.5376194e-05 0)
(0.040818235 2.4610222e-05 0)
(0.04041107 2.3872167e-05 0)
(0.040012452 2.3167853e-05 0)
(0.039622429 2.2487968e-05 0)
(0.039240305 2.1838906e-05 0)
(0.038866193 2.1211212e-05 0)
(0.038499394 2.0611815e-05 0)
(0.038140086 2.0031091e-05 0)
(0.037787557 1.9476476e-05 0)
(0.037442052 1.8938148e-05 0)
(0.03710284 1.842402e-05 0)
(0.036770232 1.7924052e-05 0)
(0.036443473 1.7446617e-05 0)
(0.03612294 1.6981447e-05 0)
(0.035807846 1.6537352e-05 0)
(0.035498638 1.6103824e-05 0)
(0.035194492 1.5690093e-05 0)
(0.034895927 1.5285405e-05 0)
(0.034602073 1.4899391e-05 0)
(0.034313525 1.4521046e-05 0)
(0.034029361 1.4160386e-05 0)
(0.033750259 1.3806155e-05 0)
(0.033475233 1.3468737e-05 0)
(0.033205048 1.3136623e-05 0)
(0.032938652 1.2820551e-05 0)
(0.032676902 1.2508763e-05 0)
(0.032418667 1.2212333e-05 0)
(0.032164905 1.1919256e-05 0)
(0.031914397 1.1640932e-05 0)
(0.031668211 1.1365113e-05 0)
(0.031425029 1.1103508e-05 0)
(0.031186038 1.0843631e-05 0)
(0.030949808 1.059749e-05 0)
(0.030717658 1.0352364e-05 0)
(0.030488035 1.0120547e-05 0)
(0.030262399 9.8890919e-06 0)
(0.03003906 9.6705645e-06 0)
(0.029819633 9.4517954e-06 0)
(0.029602276 9.2456162e-06 0)
(0.029388776 9.0386369e-06 0)
(0.029177118 8.8439471e-06 0)
(0.028969282 8.6479387e-06 0)
(0.02876306 8.4639542e-06 0)
(0.028560641 8.2781676e-06 0)
(0.028359607 8.1041717e-06 0)
(0.028162378 7.9279196e-06 0)
(0.027966298 7.7632559e-06 0)
(0.027774045 7.5959069e-06 0)
(0.027582699 7.4399742e-06 0)
(0.027395223 7.2809473e-06 0)
(0.027208403 7.1331938e-06 0)
(0.027025517 6.9819524e-06 0)
(0.026843027 6.841872e-06 0)
(0.026664559 6.6979198e-06 0)
(0.02648621 6.5650476e-06 0)
(0.026311998 6.4279245e-06 0)
(0.026137613 6.3018339e-06 0)
(0.025967506 6.1711122e-06 0)
(0.025796915 6.0514116e-06 0)
(0.025630773 5.9266926e-06 0)
(0.025463812 5.8130229e-06 0)
(0.025301504 5.6939334e-06 0)
(0.025138019 5.5859651e-06 0)
(0.024979423 5.4721549e-06 0)
(0.024819262 5.3695873e-06 0)
(0.024664267 5.2607264e-06 0)
(0.024507285 5.1632854e-06 0)
(0.024355787 5.0590617e-06 0)
(0.024201841 4.9664981e-06 0)
(0.024053746 4.8666145e-06 0)
(0.0239027 4.7787033e-06 0)
(0.023757919 4.682876e-06 0)
(0.023609639 4.5994154e-06 0)
(0.023468095 4.5073714e-06 0)
(0.023322446 4.4281823e-06 0)
(0.023184068 4.3396577e-06 0)
(0.023040921 4.264583e-06 0)
(0.022905647 4.17932e-06 0)
(0.02276487 4.1082249e-06 0)
(0.022632646 4.0259706e-06 0)
(0.02249411 3.9587421e-06 0)
(0.02236489 3.8792457e-06 0)
(0.022228463 3.8157939e-06 0)
(0.02210221 3.7388047e-06 0)
(0.021967761 3.6790627e-06 0)
(0.021844446 3.6043277e-06 0)
(0.021711839 3.5482528e-06 0)
(0.021591443 3.4755139e-06 0)
(0.02146054 3.4230895e-06 0)
(0.021343055 3.3520805e-06 0)
(0.021213714 3.3033176e-06 0)
(0.021099139 3.233762e-06 0)
(0.020971212 3.1887011e-06 0)
(0.02085956 3.1203076e-06 0)
(0.020732892 3.079023e-06 0)
(0.020624186 3.0114813e-06 0)
(0.020498616 2.9740831e-06 0)
(0.020392891 2.9070607e-06 0)
(0.020268247 2.8737008e-06 0)
(0.020165554 2.8068354e-06 0)
(0.020041653 2.777713e-06 0)
(0.019942055 2.7106081e-06 0)
(0.019818703 2.6859754e-06 0)
(0.019722279 2.6181918e-06 0)
(0.019599265 2.5983645e-06 0)
(0.019506115 2.5294107e-06 0)
(0.019383211 2.5147779e-06 0)
(0.019293452 2.4440997e-06 0)
(0.019170409 2.4351376e-06 0)
(0.019084179 2.3621041e-06 0)
(0.018960726 2.3593938e-06 0)
(0.018878189 2.2832791e-06 0)
(0.018754026 2.2875293e-06 0)
(0.018675371 2.2074921e-06 0)
(0.018550165 2.2195667e-06 0)
(0.018475613 2.1346211e-06 0)
(0.018348993 2.1555798e-06 0)
(0.018278797 2.0645584e-06 0)
(0.018150347 2.0957078e-06 0)
(0.018084799 1.9972117e-06 0)
(0.017954047 2.0401774e-06 0)
(0.017893481 1.9325075e-06 0)
(0.017759893 1.9893402e-06 0)
(0.017704692 1.8703975e-06 0)
(0.017567649 1.9437286e-06 0)
(0.017518254 1.8108644e-06 0)
(0.017377034 1.9041555e-06 0)
(0.017333951 1.753929e-06 0)
(0.017187697 1.8719002e-06 0)
(0.017151516 1.6996468e-06 0)
(0.016999177 1.8490876e-06 0)
(0.016970601 1.6480255e-06 0)
(0.016810816 1.8395906e-06 0)
(0.016790768 1.5983986e-06 0)
(0.016621537 1.851837e-06 0)
(0.0166117 1.5473414e-06 0)
(0.016427799 2.0558147e-06 0)
(0.47652816 0.016892606 0)
(0.47441605 0.02359619 0)
(0.47062225 0.025575264 0)
(0.46346218 0.025284216 0)
(0.45233498 0.024408228 0)
(0.43784172 0.023243328 0)
(0.42106958 0.02151816 0)
(0.40325232 0.019078798 0)
(0.38516695 0.016048185 0)
(0.36746428 0.012847861 0)
(0.35053744 0.0099291964 0)
(0.33460915 0.0075389338 0)
(0.31987861 0.0057131588 0)
(0.30641303 0.0043747142 0)
(0.29423666 0.0034411749 0)
(0.28326365 0.0028199468 0)
(0.27335413 0.002415745 0)
(0.26436049 0.0021468196 0)
(0.25614935 0.0019550454 0)
(0.24860829 0.0018047012 0)
(0.24164646 0.001676146 0)
(0.23519094 0.0015597652 0)
(0.22918317 0.0014516054 0)
(0.22357461 0.0013505819 0)
(0.2183245 0.0012567618 0)
(0.21339723 0.001170448 0)
(0.20876187 0.0010917236 0)
(0.20439054 0.001020395 0)
(0.20025875 0.00095598971 0)
(0.19634428 0.00089788296 0)
(0.19262782 0.00084537185 0)
(0.18909184 0.00079778127 0)
(0.18572131 0.00075447257 0)
(0.18250246 0.00071489726 0)
(0.17942363 0.00067856542 0)
(0.17647396 0.00064508005 0)
(0.17364435 0.00061408998 0)
(0.17092609 0.0005853215 0)
(0.16831198 0.0005585261 0)
(0.1657949 0.00053351612 0)
(0.16336905 0.00051011102 0)
(0.16102849 0.00048817905 0)
(0.15876849 0.00046758253 0)
(0.15658396 0.00044822547 0)
(0.15447105 0.00042999719 0)
(0.15242532 0.0004128253 0)
(0.1504436 0.0003966168 0)
(0.14852199 0.00038131601 0)
(0.14665787 0.00036684221 0)
(0.14484777 0.00035315243 0)
(0.14308955 0.00034017555 0)
(0.14138007 0.00032787909 0)
(0.13971762 0.00031619936 0)
(0.13809934 0.00030511271 0)
(0.13652385 0.00029456149 0)
(0.13498852 0.00028452967 0)
(0.1334923 0.00027496446 0)
(0.13203271 0.00026585639 0)
(0.13060899 0.00025715655 0)
(0.12921879 0.00024886109 0)
(0.12786162 0.00024092415 0)
(0.1265352 0.00023334675 0)
(0.12523928 0.0002260853 0)
(0.12397165 0.00021914505 0)
(0.12273228 0.00021248414 0)
(0.12151899 0.00020611148 0)
(0.12033197 0.00019998646 0)
(0.11916903 0.00019412123 0)
(0.11803059 0.00018847604 0)
(0.11691443 0.00018306593 0)
(0.11582117 0.00017785172 0)
(0.11474857 0.00017285107 0)
(0.11369742 0.00016802515 0)
(0.11266545 0.00016339395 0)
(0.11165366 0.00015891883 0)
(0.11065966 0.00015462186 0)
(0.1096847 0.00015046448 0)
(0.10872629 0.00014647067 0)
(0.10778587 0.0001426018 0)
(0.10686083 0.00013888362 0)
(0.10595286 0.00013527737 0)
(0.1050592 0.00013181036 0)
(0.10418177 0.0001284437 0)
(0.10331764 0.00012520609 0)
(0.102469 0.00012205848 0)
(0.10163272 0.00011903083 0)
(0.10081126 0.00011608391 0)
(0.10000128 0.00011324879 0)
(0.099205515 0.0001104861 0)
(0.098420392 0.00010782788 0)
(0.097648967 0.00010523464 0)
(0.096887379 0.00010273923 0)
(0.096139032 0.00010030214 0)
(0.095399752 9.7956852e-05 0)
(0.094673319 9.566388e-05 0)
(0.09395521 9.3457238e-05 0)
(0.093249612 9.1297522e-05 0)
(0.092551614 8.9219121e-05 0)
(0.091865852 8.7182812e-05 0)
(0.09118698 8.5223208e-05 0)
(0.090520124 8.3301363e-05 0)
(0.089859457 8.1451964e-05 0)
(0.089210645 7.9636449e-05 0)
(0.088567322 7.7889425e-05 0)
(0.087935751 7.6172826e-05 0)
(0.087308965 7.4521027e-05 0)
(0.086693887 7.2896577e-05 0)
(0.086082882 7.1333464e-05 0)
(0.085483599 6.9794974e-05 0)
(0.084887662 6.8314556e-05 0)
(0.084303525 6.6856357e-05 0)
(0.083721984 6.5453138e-05 0)
(0.083152386 6.407003e-05 0)
(0.082584606 6.2738958e-05 0)
(0.082028981 6.1426162e-05 0)
(0.081474363 6.0162589e-05 0)
(0.080932183 5.8915708e-05 0)
(0.080390156 5.7715352e-05 0)
(0.079860929 5.6530331e-05 0)
(0.079330949 5.538924e-05 0)
(0.078814216 5.4262339e-05 0)
(0.078295766 5.3176864e-05 0)
(0.0777911 5.2104622e-05 0)
(0.077283684 5.1071392e-05 0)
(0.076790687 5.0050603e-05 0)
(0.076293829 4.9066495e-05 0)
(0.075812134 4.8094186e-05 0)
(0.075325376 4.7156313e-05 0)
(0.074854641 4.622972e-05 0)
(0.074377539 4.5335406e-05 0)
(0.073917451 4.4451955e-05 0)
(0.073449574 4.3598724e-05 0)
(0.072999845 4.2756013e-05 0)
(0.072540775 4.1941568e-05 0)
(0.072101142 4.1137351e-05 0)
(0.071650468 4.0359569e-05 0)
(0.071220693 3.9591738e-05 0)
(0.070778012 3.8848656e-05 0)
(0.070357882 3.8115232e-05 0)
(0.069922795 3.7405036e-05 0)
(0.069512121 3.6704148e-05 0)
(0.069084232 3.6025167e-05 0)
(0.068682853 3.5355048e-05 0)
(0.068261764 3.4705747e-05 0)
(0.067869543 3.4064714e-05 0)
(0.067454857 3.3443691e-05 0)
(0.067071682 3.2830139e-05 0)
(0.066662996 3.223612e-05 0)
(0.066288783 3.1648504e-05 0)
(0.065885689 3.1080342e-05 0)
(0.065520381 3.0517171e-05 0)
(0.065122458 2.9973844e-05 0)
(0.064766031 2.9433667e-05 0)
(0.064372847 2.8914282e-05 0)
(0.064025305 2.8395674e-05 0)
(0.063636412 2.7899469e-05 0)
(0.063297793 2.7401019e-05 0)
(0.062912723 2.6927371e-05 0)
(0.062583102 2.6447667e-05 0)
(0.062201364 2.5996097e-05 0)
(0.061880852 2.5533712e-05 0)
(0.061501926 2.51039e-05 0)
(0.061190678 2.4657369e-05 0)
(0.060814011 2.4249171e-05 0)
(0.060512226 2.3816978e-05 0)
(0.060137228 2.3430439e-05 0)
(0.059845154 2.3010988e-05 0)
(0.059471188 2.264638e-05 0)
(0.059189128 2.2237967e-05 0)
(0.058815506 2.1895814e-05 0)
(0.058543823 2.1496596e-05 0)
(0.058169796 2.1177724e-05 0)
(0.057908918 2.0785676e-05 0)
(0.057533665 2.0491271e-05 0)
(0.057284097 2.0104133e-05 0)
(0.056906715 1.9835816e-05 0)
(0.056669042 1.9451035e-05 0)
(0.056288532 1.9210961e-05 0)
(0.056063431 1.8825603e-05 0)
(0.055678679 1.8616602e-05 0)
(0.055466933 1.8227249e-05 0)
(0.055076692 1.8053009e-05 0)
(0.054879202 1.7655614e-05 0)
(0.054482063 1.7520943e-05 0)
(0.054299861 1.7110639e-05 0)
(0.053894226 1.7021842e-05 0)
(0.053728498 1.6592671e-05 0)
(0.053312528 1.6558116e-05 0)
(0.053164636 1.6102638e-05 0)
(0.052736197 1.6133639e-05 0)
(0.052607711 1.5642334e-05 0)
(0.052164278 1.5754626e-05 0)
(0.052057026 1.5214941e-05 0)
(0.051595534 1.5431292e-05 0)
(0.05151169 1.4825942e-05 0)
(0.051028227 1.518107e-05 0)
(0.050970585 1.4484507e-05 0)
(0.050459593 1.5035625e-05 0)
(0.050432689 1.4216286e-05 0)
(0.049883464 1.5742656e-05 0)
(0.47978842 0.015745951 0)
(0.48110566 0.021484874 0)
(0.48390677 0.024576105 0)
(0.48658002 0.025587349 0)
(0.48784325 0.025703634 0)
(0.48726181 0.025403394 0)
(0.48487967 0.024570417 0)
(0.48090918 0.023002988 0)
(0.47553623 0.020778848 0)
(0.46896253 0.018210982 0)
(0.46144445 0.015688247 0)
(0.45323482 0.013478471 0)
(0.4446352 0.011674665 0)
(0.43588086 0.010235399 0)
(0.42717971 0.0090976869 0)
(0.41863192 0.0081939082 0)
(0.41027799 0.0074611782 0)
(0.40213139 0.0068479667 0)
(0.394196 0.0063173621 0)
(0.38647252 0.0058457403 0)
(0.37896237 0.0054190055 0)
(0.3716677 0.0050290626 0)
(0.36459189 0.004671286 0)
(0.35773766 0.0043429606 0)
(0.35110717 0.0040422479 0)
(0.34470035 0.0037676241 0)
(0.33851602 0.0035175433 0)
(0.33255048 0.0032902994 0)
(0.32679915 0.0030839865 0)
(0.32125546 0.0028966448 0)
(0.31591269 0.0027263099 0)
(0.31076263 0.0025711479 0)
(0.30579758 0.002429443 0)
(0.30100875 0.0022996801 0)
(0.29638832 0.0021804853 0)
(0.29192761 0.0020706859 0)
(0.28761919 0.001969229 0)
(0.28345485 0.0018752376 0)
(0.27942789 0.0017879185 0)
(0.27553073 0.0017066235 0)
(0.27175746 0.0016307524 0)
(0.26810119 0.0015598235 0)
(0.26455681 0.0014933734 0)
(0.2611181 0.001431038 0)
(0.25778069 0.00137245 0)
(0.25453894 0.001317329 0)
(0.25138919 0.0012653758 0)
(0.24832626 0.0012163716 0)
(0.24534714 0.0011700667 0)
(0.24244706 0.0011262889 0)
(0.23962356 0.0010848261 0)
(0.23687221 0.001045543 0)
(0.23419105 0.0010082566 0)
(0.23157593 0.00097286123 0)
(0.22902535 0.00093919731 0)
(0.22653535 0.00090718347 0)
(0.22410486 0.00087667857 0)
(0.22173008 0.00084762139 0)
(0.21941032 0.00081988549 0)
(0.21714191 0.00079342643 0)
(0.21492451 0.00076812943 0)
(0.21275452 0.00074396415 0)
(0.21063196 0.00072082506 0)
(0.20855324 0.00069869368 0)
(0.20651874 0.00067747186 0)
(0.20452486 0.00065715118 0)
(0.20257231 0.00063763938 0)
(0.20065743 0.00061893664 0)
(0.19878129 0.0006009554 0)
(0.19694014 0.00058370326 0)
(0.19513537 0.00056709638 0)
(0.19336315 0.00055114883 0)
(0.19162519 0.00053577985 0)
(0.18991752 0.0005210091 0)
(0.18824221 0.00050675831 0)
(0.18659509 0.00049305202 0)
(0.18497861 0.00047981404 0)
(0.1833884 0.00046707309 0)
(0.18182727 0.00045475478 0)
(0.1802906 0.00044289145 0)
(0.17878163 0.0004314103 0)
(0.17729543 0.00042034669 0)
(0.17583567 0.00040962931 0)
(0.17439711 0.00039929606 0)
(0.17298386 0.00038927706 0)
(0.17159032 0.00037961221 0)
(0.17022109 0.0003702331 0)
(0.16887014 0.00036118119 0)
(0.16754262 0.00035238958 0)
(0.16623204 0.00034390078 0)
(0.16494409 0.00033564958 0)
(0.16367179 0.00032767905 0)
(0.16242145 0.00031992586 0)
(0.1611855 0.00031243315 0)
(0.15997093 0.00030513972 0)
(0.15876953 0.00029808827 0)
(0.15758903 0.00029121999 0)
(0.15642051 0.00028457664 0)
(0.1552725 0.00027810216 0)
(0.15413529 0.00027183681 0)
(0.1530183 0.00026572766 0)
(0.15191093 0.00025981293 0)
(0.15082358 0.00025404321 0)
(0.14974468 0.00024845412 0)
(0.14868569 0.00024300025 0)
(0.14763396 0.00023771398 0)
(0.14660214 0.00023255442 0)
(0.14557638 0.00022755012 0)
(0.14457061 0.00022266519 0)
(0.14356966 0.00021792372 0)
(0.14258891 0.0002132954 0)
(0.14161169 0.00020879919 0)
(0.14065498 0.00020441097 0)
(0.13970046 0.00020014386 0)
(0.13876688 0.00019598057 0)
(0.1378341 0.00019192768 0)
(0.1369228 0.00018797538 0)
(0.13601082 0.00018412298 0)
(0.13512101 0.00018036885 0)
(0.13422895 0.00017670424 0)
(0.13335989 0.00017313645 0)
(0.13248691 0.0001696479 0)
(0.13163792 0.00016625553 0)
(0.13078321 0.00016293216 0)
(0.12995363 0.00015970515 0)
(0.12911641 0.00015653686 0)
(0.12830567 0.00015346587 0)
(0.12748518 0.00015044329 0)
(0.12669272 0.0001475197 0)
(0.12588824 0.0001446341 0)
(0.12511355 0.00014184992 0)
(0.12432438 0.00013909319 0)
(0.123567 0.00013644098 0)
(0.12279243 0.00013380554 0)
(0.12205194 0.00013127842 0)
(0.12129131 0.00012875723 0)
(0.12056733 0.00012634878 0)
(0.11981995 0.00012393524 0)
(0.11911214 0.0001216395 0)
(0.11837737 0.00011932745 0)
(0.11768543 0.00011713886 0)
(0.1169626 0.00011492255 0)
(0.11628627 0.00011283591 0)
(0.11557473 0.00011070998 0)
(0.11491379 0.00010872043 0)
(0.11421287 0.00010667987 0)
(0.11356715 0.00010478285 0)
(0.11287619 0.00010282297 0)
(0.11224557 0.00010101421 0)
(0.11156387 9.9130666e-05 0)
(0.11094827 9.7406151e-05 0)
(0.11027513 9.5594882e-05 0)
(0.10967452 9.3950806e-05 0)
(0.10900922 9.2208069e-05 0)
(0.10842363 9.0640834e-05 0)
(0.10776542 8.8963174e-05 0)
(0.10719491 8.746935e-05 0)
(0.10654301 8.5853613e-05 0)
(0.10598773 8.4429913e-05 0)
(0.10534131 8.2873242e-05 0)
(0.10480146 8.1516503e-05 0)
(0.10415964 8.0016356e-05 0)
(0.10363551 7.8723495e-05 0)
(0.10299737 7.7277665e-05 0)
(0.1024893 7.6045658e-05 0)
(0.10185384 7.4652294e-05 0)
(0.10136226 7.3478137e-05 0)
(0.10072842 7.2135788e-05 0)
(0.10025386 7.1016451e-05 0)
(0.099620479 6.9724122e-05 0)
(0.099163564 6.8656504e-05 0)
(0.098529385 6.7413722e-05 0)
(0.098090859 6.6394594e-05 0)
(0.097454504 6.5201514e-05 0)
(0.097035232 6.4227441e-05 0)
(0.096395188 6.3084976e-05 0)
(0.095996177 6.2152234e-05 0)
(0.095350768 6.1062228e-05 0)
(0.094973182 6.0166692e-05 0)
(0.094320547 5.9132178e-05 0)
(0.093965726 5.8269171e-05 0)
(0.093303781 5.729471e-05 0)
(0.092973267 5.6458818e-05 0)
(0.092299666 5.5550976e-05 0)
(0.091995226 5.4735795e-05 0)
(0.091307311 5.3903872e-05 0)
(0.091030969 5.3101668e-05 0)
(0.090325698 5.2358741e-05 0)
(0.090079781 5.1559998e-05 0)
(0.089353634 5.0924574e-05 0)
(0.089140814 5.0117391e-05 0)
(0.088389662 4.9616075e-05 0)
(0.088213035 4.8785447e-05 0)
(0.087431914 4.8457391e-05 0)
(0.087295128 4.7584591e-05 0)
(0.086477829 4.7488656e-05 0)
(0.086385394 4.6551554e-05 0)
(0.085523546 4.6783554e-05 0)
(0.085481689 4.57531e-05 0)
(0.084563156 4.7981529e-05 0)
(0.48225073 0.014729037 0)
(0.48328077 0.019052571 0)
(0.48587763 0.022167343 0)
(0.4893779 0.023692734 0)
(0.49279474 0.024194387 0)
(0.49556029 0.024158144 0)
(0.49751797 0.023671856 0)
(0.49864061 0.022638973 0)
(0.49889247 0.02107503 0)
(0.49821812 0.019169321 0)
(0.49663039 0.017197389 0)
(0.49422153 0.01539621 0)
(0.4911692 0.013882564 0)
(0.48766435 0.012664635 0)
(0.48387242 0.011686322 0)
(0.4798952 0.010886145 0)
(0.47578368 0.010214841 0)
(0.47155973 0.0096354096 0)
(0.46723334 0.0091207347 0)
(0.46281025 0.0086518748 0)
(0.45829765 0.008216381 0)
(0.45370452 0.0078066878 0)
(0.44904319 0.0074185762 0)
(0.44432703 0.0070500061 0)
(0.43957104 0.0067001222 0)
(0.43478929 0.006368633 0)
(0.42999615 0.0060553412 0)
(0.42520394 0.0057599319 0)
(0.4204248 0.0054818271 0)
(0.41566853 0.0052202971 0)
(0.41094485 0.0049744505 0)
(0.40626109 0.0047433837 0)
(0.40162475 0.0045261425 0)
(0.39704095 0.0043218426 0)
(0.39251534 0.0041295934 0)
(0.38805118 0.0039486035 0)
(0.3836526 0.0037780844 0)
(0.37932133 0.0036173542 0)
(0.37506029 0.0034657278 0)
(0.37086997 0.003322626 0)
(0.36675237 0.0031874554 0)
(0.36270697 0.0030597243 0)
(0.3587351 0.0029389155 0)
(0.35483544 0.0028246108 0)
(0.35100884 0.002716356 0)
(0.34725334 0.002613795 0)
(0.34356952 0.0025165269 0)
(0.33995493 0.0024242494 0)
(0.33640997 0.0023366078 0)
(0.33293183 0.0022533475 0)
(0.32952088 0.0021741535 0)
(0.32617401 0.0020988128 0)
(0.32289163 0.0020270449 0)
(0.3196704 0.0019586738 0)
(0.31651087 0.0018934491 0)
(0.31340948 0.0018312276 0)
(0.31036698 0.0017717848 0)
(0.3073796 0.0017150056 0)
(0.30444835 0.0016606875 0)
(0.30156928 0.0016087398 0)
(0.29874364 0.0015589786 0)
(0.29596733 0.0015113341 0)
(0.29324189 0.0014656377 0)
(0.29056303 0.0014218379 0)
(0.28793261 0.0013797789 0)
(0.28534612 0.0013394247 0)
(0.2828058 0.0013006303 0)
(0.28030689 0.0012633729 0)
(0.27785202 0.0012275169 0)
(0.27543616 0.0011930509 0)
(0.27306234 0.001159847 0)
(0.27072525 0.0011279035 0)
(0.26842836 0.0010970993 0)
(0.26616603 0.0010674412 0)
(0.26394219 0.0010388138 0)
(0.26175083 0.0010112311 0)
(0.2595964 0.00098458305 0)
(0.25747248 0.00095888939 0)
(0.25538405 0.00093404516 0)
(0.25332423 0.00091007477 0)
(0.25129859 0.00088687798 0)
(0.24929975 0.00086448286 0)
(0.24733391 0.0008427938 0)
(0.24539312 0.00082184153 0)
(0.24348425 0.00080153508 0)
(0.24159876 0.00078190685 0)
(0.23974424 0.00076287068 0)
(0.23791145 0.00074445967 0)
(0.2361088 0.00072659272 0)
(0.23432629 0.00070930263 0)
(0.23257319 0.00069251375 0)
(0.23083867 0.00067625756 0)
(0.22913295 0.00066046438 0)
(0.22744426 0.00064516335 0)
(0.22578387 0.00063029133 0)
(0.22413899 0.00061587402 0)
(0.22252202 0.00060185551 0)
(0.22091903 0.00058825699 0)
(0.21934368 0.00057503055 0)
(0.21778078 0.00056219167 0)
(0.21624534 0.00054970135 0)
(0.21472082 0.00053756815 0)
(0.21322372 0.00052576295 0)
(0.21173597 0.00051428611 0)
(0.21027571 0.00050311945 0)
(0.20882318 0.0004922538 0)
(0.20739836 0.00048168308 0)
(0.20597961 0.00047138719 0)
(0.20458891 0.00046137341 0)
(0.20320255 0.0004516092 0)
(0.20184473 0.00044211658 0)
(0.20048945 0.00043284901 0)
(0.19916334 0.00042384472 0)
(0.19783789 0.00041504148 0)
(0.19654239 0.00040649531 0)
(0.19524557 0.00039812659 0)
(0.19397967 0.00039001076 0)
(0.19271032 0.00038204896 0)
(0.19147305 0.00037433788 0)
(0.19023007 0.00036675746 0)
(0.18902054 0.00035942751 0)
(0.18780287 0.00035220479 0)
(0.18662024 0.00034523417 0)
(0.18542685 0.00033834712 0)
(0.18427033 0.00033171571 0)
(0.18310023 0.00032514386 0)
(0.1819691 0.00031883303 0)
(0.18082133 0.0003125573 0)
(0.17971492 0.00030654984 0)
(0.17858853 0.00030055241 0)
(0.17750622 0.00029483237 0)
(0.17640031 0.00028909661 0)
(0.17534152 0.00028364922 0)
(0.17425517 0.00027815958 0)
(0.17321941 0.00027297115 0)
(0.17215174 0.00026771302 0)
(0.17113853 0.00026277086 0)
(0.17008866 0.00025773058 0)
(0.1690976 0.00025302291 0)
(0.16806464 0.00024818762 0)
(0.16709537 0.00024370352 0)
(0.16607845 0.00023906113 0)
(0.16513067 0.00023479047 0)
(0.1641289 0.0002303296 0)
(0.16320237 0.00022626298 0)
(0.16221486 0.00022197291 0)
(0.16130939 0.00021810159 0)
(0.16033523 0.0002139722 0)
(0.15945069 0.00021028809 0)
(0.15848896 0.00020630983 0)
(0.15762529 0.00020280542 0)
(0.15667501 0.00019896928 0)
(0.15583221 0.00019563757 0)
(0.15489241 0.00019193505 0)
(0.15407057 0.00018876958 0)
(0.15314019 0.00018519266 0)
(0.15233946 0.00018218742 0)
(0.15141743 0.00017872854 0)
(0.15063805 0.00017587793 0)
(0.14972323 0.00017253002 0)
(0.14896551 0.00016982883 0)
(0.14805669 0.00016658526 0)
(0.14732108 0.00016402866 0)
(0.14641697 0.00016088327 0)
(0.14570398 0.00015846672 0)
(0.14480319 0.00015541386 0)
(0.14411348 0.00015313311 0)
(0.14321453 0.00015016766 0)
(0.14254887 0.00014801868 0)
(0.14165014 0.00014513613 0)
(0.14100946 0.00014311509 0)
(0.14010919 0.00014031157 0)
(0.13949457 0.00013841477 0)
(0.13859084 0.00013568726 0)
(0.13800353 0.00013391104 0)
(0.13709423 0.00013125749 0)
(0.13653568 0.00012959817 0)
(0.13561847 0.00012701775 0)
(0.13509036 0.00012547153 0)
(0.13416265 0.00012296497 0)
(0.13366689 0.00012152778 0)
(0.13272579 0.00011909787 0)
(0.13226459 0.00011776517 0)
(0.13130683 0.00011541745 0)
(0.13088271 0.00011418404 0)
(0.12990463 0.00011192785 0)
(0.12952045 0.00011078756 0)
(0.12851786 0.0001086376 0)
(0.12817691 0.0001075829 0)
(0.127145 0.00010556166 0)
(0.12685104 0.00010458331 0)
(0.1257842 0.00010272511 0)
(0.12554153 0.00010181194 0)
(0.12443315 0.00010016965 0)
(0.12424673 9.9308936e-05 0)
(0.12308876 9.7966295e-05 0)
(0.12296436 9.7140663e-05 0)
(0.12174673 9.6270281e-05 0)
(0.12169078 9.5356359e-05 0)
(0.12040252 9.760828e-05 0)
(0.48422642 0.01415296 0)
(0.48511832 0.017536966 0)
(0.48717098 0.02038099 0)
(0.49014018 0.022086703 0)
(0.49340036 0.022767963 0)
(0.49642827 0.022798238 0)
(0.49901578 0.02238566 0)
(0.50112922 0.021562085 0)
(0.50275326 0.020343254 0)
(0.50383112 0.018837637 0)
(0.50431404 0.017231155 0)
(0.50421276 0.015714494 0)
(0.50361715 0.014407053 0)
(0.50265793 0.013341395 0)
(0.50145943 0.01248472 0)
(0.50010596 0.011786307 0)
(0.49864052 0.011202667 0)
(0.49707632 0.010701722 0)
(0.49541257 0.010260033 0)
(0.49364224 0.0098604607 0)
(0.49175943 0.0094907756 0)
(0.48975967 0.0091428113 0)
(0.48764276 0.0088114844 0)
(0.48541006 0.0084939908 0)
(0.48306626 0.0081889229 0)
(0.48061611 0.0078957129 0)
(0.47806662 0.0076140662 0)
(0.47542375 0.0073438017 0)
(0.47269527 0.0070846209 0)
(0.46988731 0.0068361799 0)
(0.46700776 0.0065980044 0)
(0.46406249 0.0063696384 0)
(0.46105918 0.0061505611 0)
(0.45800322 0.0059403288 0)
(0.45490198 0.0057384622 0)
(0.45176026 0.0055445799 0)
(0.4485851 0.0053582667 0)
(0.44538066 0.0051792096 0)
(0.44215358 0.0050070536 0)
(0.43890737 0.0048415437 0)
(0.43564828 0.004682371 0)
(0.43237911 0.0045293238 0)
(0.4291057 0.0043821241 0)
(0.42583013 0.0042405897 0)
(0.42255787 0.0041044622 0)
(0.41929027 0.0039735795 0)
(0.41603244 0.0038476957 0)
(0.41278502 0.0037266638 0)
(0.40955283 0.0036102472 0)
(0.40633579 0.0034983123 0)
(0.4031385 0.0033906304 0)
(0.39996019 0.00328708 0)
(0.39680529 0.00318744 0)
(0.3936724 0.0030916018 0)
(0.39056583 0.0029993526 0)
(0.38748358 0.0029105968 0)
(0.38442992 0.0028251306 0)
(0.38140224 0.0027428713 0)
(0.37840489 0.0026636242 0)
(0.37543466 0.0025873193 0)
(0.37249601 0.0025137708 0)
(0.36958519 0.0024429212 0)
(0.36670683 0.0023745935 0)
(0.36385661 0.0023087416 0)
(0.36103941 0.0022451971 0)
(0.35825037 0.0021839246 0)
(0.35549468 0.0021247638 0)
(0.35276689 0.0020676892 0)
(0.35007258 0.0020125484 0)
(0.34740573 0.0019593244 0)
(0.34477233 0.0019078727 0)
(0.34216576 0.0018581839 0)
(0.33959251 0.0018101207 0)
(0.33704533 0.00176368 0)
(0.33453128 0.0017187319 0)
(0.3320424 0.0016752785 0)
(0.32958641 0.0016331973 0)
(0.32715462 0.0015924943 0)
(0.32475544 0.0015530546 0)
(0.32237941 0.0015148868 0)
(0.3200357 0.0014778838 0)
(0.31771403 0.0014420554 0)
(0.31542442 0.0014073028 0)
(0.31315566 0.0013736359 0)
(0.31091872 0.0013409643 0)
(0.3087014 0.0013092966 0)
(0.3065157 0.0012785517 0)
(0.30434834 0.0012487355 0)
(0.30221245 0.0012197768 0)
(0.30009356 0.001191677 0)
(0.29800605 0.0011643761 0)
(0.29593417 0.0011378695 0)
(0.29389365 0.0011121092 0)
(0.29186732 0.0010870829 0)
(0.28987241 0.0010627561 0)
(0.28789021 0.0010391068 0)
(0.28593957 0.0010161152 0)
(0.2840001 0.00099374804 0)
(0.28209243 0.00097200182 0)
(0.28019432 0.00095082975 0)
(0.27832836 0.00093024635 0)
(0.27647028 0.00091018929 0)
(0.2746448 0.00089069295 0)
(0.27282544 0.00087167716 0)
(0.27103929 0.00085319819 0)
(0.26925738 0.00083515567 0)
(0.26750942 0.00081762996 0)
(0.26576373 0.00080049792 0)
(0.26405287 0.0007838664 0)
(0.2623422 0.00076758679 0)
(0.26066741 0.00075179501 0)
(0.25899059 0.0007363141 0)
(0.25735088 0.0007213118 0)
(0.25570676 0.00070657974 0)
(0.2541012 0.00069232051 0)
(0.25248867 0.00067829105 0)
(0.25091636 0.00066473199 0)
(0.24933434 0.00065136215 0)
(0.24779442 0.00063846358 0)
(0.24624185 0.00062571334 0)
(0.24473353 0.00061343854 0)
(0.24320936 0.00060127059 0)
(0.24173188 0.00058958556 0)
(0.2402351 0.00057796508 0)
(0.23878776 0.00056683832 0)
(0.23731736 0.00055573276 0)
(0.23589951 0.00054513506 0)
(0.23445449 0.00053451396 0)
(0.23306551 0.00052441825 0)
(0.2316449 0.00051425304 0)
(0.23028423 0.00050463421 0)
(0.22888706 0.00049489808 0)
(0.22755419 0.00048573286 0)
(0.22617948 0.00047640059 0)
(0.22487395 0.00046766738 0)
(0.22352074 0.00045871523 0)
(0.22224215 0.000450394 0)
(0.22090945 0.00044179958 0)
(0.21965744 0.00043387179 0)
(0.21834428 0.00042561394 0)
(0.21711856 0.00041806239 0)
(0.21582394 0.00041012109 0)
(0.21462428 0.00040292987 0)
(0.21334718 0.00039528617 0)
(0.2121734 0.00038844057 0)
(0.21091279 0.00038107644 0)
(0.20976478 0.00037456287 0)
(0.20851959 0.00036746122 0)
(0.20739731 0.00036126714 0)
(0.20616644 0.00035441167 0)
(0.20506994 0.00034852554 0)
(0.20385224 0.00034190072 0)
(0.20278164 0.00033631195 0)
(0.20157591 0.00032990296 0)
(0.2005314 0.00032460185 0)
(0.19933639 0.00031839452 0)
(0.19831827 0.00031337223 0)
(0.19713265 0.00030735303 0)
(0.19614132 0.00030260151 0)
(0.19496369 0.00029675749 0)
(0.19399966 0.00029226947 0)
(0.19282851 0.00028658827 0)
(0.19189242 0.00028235721 0)
(0.19072615 0.00027682704 0)
(0.18981875 0.00027284711 0)
(0.18865564 0.00026745676 0)
(0.18777784 0.00026372278 0)
(0.18661602 0.00025846167 0)
(0.18576889 0.0002549691 0)
(0.18460633 0.00024982729 0)
(0.18379113 0.00024657221 0)
(0.18262562 0.00024154055 0)
(0.1818438 0.00023851958 0)
(0.18067292 0.00023358979 0)
(0.17992615 0.00023080006 0)
(0.17874722 0.00022596501 0)
(0.17803743 0.00022340409 0)
(0.17684752 0.00021865803 0)
(0.17617689 0.00021632387 0)
(0.17497275 0.00021166291 0)
(0.1743438 0.00020955371 0)
(0.17312176 0.00020497644 0)
(0.17253735 0.00020309051 0)
(0.17129335 0.00019859896 0)
(0.17075672 0.00019693452 0)
(0.16948616 0.00019253557 0)
(0.16900102 0.00019109049 0)
(0.1676987 0.0001867981 0)
(0.16726922 0.00018556953 0)
(0.1659292 0.00018140831 0)
(0.16556012 0.00018039219 0)
(0.16417559 0.00017640354 0)
(0.16387224 0.00017559395 0)
(0.16243529 0.00017184757 0)
(0.16220362 0.00017123393 0)
(0.160705 0.00016785516 0)
(0.16055142 0.00016739537 0)
(0.15898049 0.00016471349 0)
(0.1589106 0.00016407327 0)
(0.15725824 0.00016567529 0)
(0.48588445 0.013720157 0)
(0.48671436 0.016484321 0)
(0.48840355 0.018956435 0)
(0.49084563 0.020652463 0)
(0.49366243 0.021451769 0)
(0.49642912 0.021563857 0)
(0.49890024 0.021215831 0)
(0.50100876 0.020520109 0)
(0.50275269 0.019520941 0)
(0.50411472 0.018285289 0)
(0.50506561 0.016935149 0)
(0.50560159 0.015617855 0)