/*--------------------------------*- C++ -*----------------------------------*\
| =========                 |                                                 |
| \\      /  F ield         | OpenFOAM: The Open Source CFD Toolbox           |
|  \\    /   O peration     | Version:  5.x                                   |
|   \\  /    A nd           | Web:      www.OpenFOAM.org                      |
|    \\/     M anipulation  |                                                 |
\*---------------------------------------------------------------------------*/
FoamFile
{
    version     2.0;
    format      ascii;
    class       volScalarField;
    location    "0.9";
    object      p;
}
// * * * * * * * * * * * * * * * * * * * * * * * * * * * * * * * * * * * * * //

dimensions      [0 2 -2 0 0 0 0];

internalField   nonuniform List<scalar> 
21600
(
0.044238963
0.041653293
0.036675267
0.031980409
0.028409461
0.025796753
0.023671722
0.021635103
0.019464907
0.017081621
0.014492113
0.011757448
0.0089810506
0.006301632
0.0038814054
0.001883441
0.00042973075
-0.00043068872
-0.00073122938
-0.00057405426
-9.7266e-05
0.00056030298
0.0012829434
0.0019872098
0.0026213257
0.0031590179
0.0035922433
0.0039252573
0.0041697953
0.0043409454
0.004454168
0.0045235352
0.0045609919
0.0045761688
0.0045765381
0.0045676649
0.0045535512
0.0045369339
0.0045196016
0.0045026205
0.0044865646
0.0044716487
0.0044578772
0.0044451028
0.0044331186
0.0044216698
0.0044105128
0.0043993995
0.0043881221
0.0043764847
0.0043643413
0.0043515595
0.0043380559
0.0043237548
0.0043086257
0.0042926384
0.0042758022
0.004258119
0.0042396255
0.0042203434
0.0042003254
0.0041796032
0.0041582367
0.00413626
0.0041137338
0.0040906897
0.0040671856
0.0040432474
0.0040189282
0.0039942471
0.0039692518
0.0039439544
0.0039183974
0.0038925866
0.0038665602
0.0038403183
0.0038138959
0.0037872882
0.0037605281
0.003733607
0.0037065561
0.0036793638
0.0036520603
0.0036246315
0.0035971073
0.0035694711
0.0035417528
0.0035139339
0.0034860444
0.0034580636
0.0034300222
0.0034018975
0.0033737204
0.0033454665
0.0033171673
0.0032887962
0.0032603856
0.0032319068
0.0032033931
0.0031748136
0.0031462027
0.0031175272
0.0030888227
0.003060054
0.0030312578
0.0030023966
0.0029735087
0.0029445542
0.002915573
0.0028865229
0.0028574456
0.0028282964
0.0027991189
0.0027698659
0.0027405834
0.002711221
0.0026818275
0.0026523495
0.0026228386
0.0025932381
0.0025636027
0.0025338721
0.0025041048
0.0024742363
0.0024443292
0.0024143147
0.0023842599
0.002354091
0.0023238803
0.0022935485
0.0022631738
0.0022326706
0.0022021238
0.0021714409
0.0021407141
0.002109843
0.0020789286
0.0020478617
0.0020167523
0.0019854815
0.0019541705
0.0019226888
0.0018911699
0.0018594704
0.0018277382
0.0017958149
0.0017638647
0.0017317123
0.0016995402
0.001667154
0.0016347577
0.0016021342
0.0015695121
0.001536649
0.0015038014
0.0014706976
0.0014376263
0.001404282
0.0013709908
0.0013374081
0.0013039031
0.001270086
0.0012363759
0.0012023307
0.0011684273
0.0011341629
0.0011000815
0.0010656099
0.00103137
0.00099670682
0.00096233319
0.00092749841
0.00089302139
0.00085804004
0.00082349752
0.00078840096
0.00075383923
0.00071866621
0.0006841425
0.00064894126
0.00061452594
0.00057935609
0.00054513617
0.00051007218
0.00047615615
0.00044129117
0.00040781507
0.00037326708
0.00034040403
0.00030632387
0.0002742976
0.00024088157
0.0002099883
0.00017749652
0.00014814173
0.00011692498
8.9692886e-05
6.0211075e-05
3.6028304e-05
8.5553975e-06
0.039730801
0.038538481
0.035229125
0.031376538
0.028020375
0.025384359
0.023234625
0.021239372
0.019161248
0.016890343
0.01441509
0.011790856
0.0091197684
0.0065401065
0.0042090175
0.0022726347
0.00084167736
-3.3340667e-05
-0.00037432089
-0.00026869183
0.00015684359
0.00076871545
0.0014517227
0.0021217039
0.0027277195
0.0032437242
0.0036608926
0.0039825524
0.0042193041
0.0043851137
0.0044945669
0.0045611429
0.0045964067
0.0046097467
0.0046084865
0.0045981029
0.0045825522
0.0045645499
0.0045458799
0.0045276105
0.0045103219
0.0044942344
0.004479357
0.0044655442
0.00445259
0.0044402383
0.004428243
0.0044163514
0.0044043514
0.004392042
0.0043792733
0.0043659076
0.0043518582
0.0043370453
0.0043214355
0.004304995
0.0042877313
0.0042696434
0.0042507664
0.0042311198
0.0042107553
0.0041897026
0.0041680208
0.0041457425
0.0041229282
0.0040996077
0.004075839
0.0040516467
0.0040270838
0.0040021683
0.003976948
0.0039514338
0.0039256687
0.003899657
0.0038734376
0.0038470093
0.0038204076
0.0037936267
0.0037666998
0.0037396174
0.0037124112
0.0036850685
0.0036576202
0.0036300509
0.0036023914
0.0035746238
0.003546779
0.0035188369
0.0034908289
0.0034627327
0.0034345801
0.0034063469
0.0033780655
0.0033497095
0.0033213122
0.0032928451
0.0032643421
0.0032357728
0.003207172
0.0031785071
0.0031498141
0.0031210579
0.003092276
0.0030634309
0.0030345615
0.003005628
0.0029766709
0.0029476479
0.0029186013
0.0028894862
0.0028603469
0.002831136
0.0028018999
0.0027725882
0.00274325
0.0027138319
0.0026843857
0.0026548545
0.0026252936
0.0025956424
0.0025659596
0.0025361807
0.0025063684
0.0024764538
0.002446504
0.0024164454
0.00238635
0.0023561389
0.0023258897
0.0022955176
0.0022651062
0.0022345644
0.0022039828
0.0021732628
0.0021425029
0.0021115963
0.0020806505
0.0020495494
0.0020184102
0.0019871066
0.0019557673
0.001924254
0.0018927081
0.0018609783
0.0018292205
0.0017972679
0.0017652935
0.0017331127
0.0017009178
0.0016685042
0.0016360862
0.0016034363
0.0015707937
0.0015379049
0.001505038
0.0014719092
0.0014388196
0.0014054512
0.0013721428
0.0013385366
0.0013050155
0.0012711755
0.0012374503
0.0012033827
0.0011694653
0.001135179
0.0011010845
0.0010665916
0.0010323396
0.00099765546
0.00096327065
0.00092841535
0.0008939281
0.00085892657
0.00082437476
0.00078925835
0.00075468827
0.00071949568
0.00068496457
0.000649744
0.00061532223
0.00058013329
0.00054590787
0.00051082501
0.00047690445
0.00044202082
0.00040854117
0.00037397476
0.00034110919
0.00030701087
0.00027498315
0.00024154931
0.00021065572
0.00017814661
0.00014879279
0.00011755937
9.0329999e-05
6.0831909e-05
3.6653492e-05
9.1750471e-06
0.036506252
0.036029969
0.033917996
0.030890635
0.027818431
0.02515191
0.022912843
0.020896094
0.01887727
0.016719155
0.014386154
0.01192117
0.0094196308
0.0070091062
0.0048269929
0.0029970855
0.0016123858
0.00071872643
0.00030505673
0.00030568631
0.00061720185
0.0011232424
0.0017175982
0.0023179327
0.0028686058
0.0033408717
0.0037261106
0.004026889
0.0042517143
0.0044118927
0.0045195807
0.0045864432
0.0046228685
0.0046375515
0.0046374469
0.0046278587
0.0046126914
0.0045946728
0.004575638
0.0045567182
0.0045385628
0.0045214533
0.0045054549
0.0044904654
0.0044763155
0.0044627741
0.0044496175
0.0044366055
0.0044235383
0.0044102189
0.0043965019
0.0043822483
0.0043673715
0.0043517878
0.0043354626
0.004318357
0.0043004765
0.0042818149
0.0042624053
0.0042422622
0.0042214356
0.0041999505
0.0041778652
0.0041552075
0.0041320377
0.0041083817
0.0040842975
0.004059806
0.004034961
0.004009777
0.0039843027
0.0039585461
0.0039325511
0.0039063195
0.0038798911
0.0038532623
0.0038264699
0.0037995056
0.0037724043
0.0037451536
0.0037177873
0.0036902898
0.0036626942
0.0036349823
0.0036071868
0.0035792874
0.003551317
0.0035232528
0.0034951284
0.0034669189
0.0034386583
0.0034103197
0.0033819377
0.0033534835
0.0033249925
0.0032964336
0.0032678433
0.0032391881
0.0032105056
0.0031817602
0.0031529906
0.0031241589
0.0030953052
0.0030663891
0.0030374523
0.0030084519
0.0029794314
0.0029503453
0.0029212391
0.0028920644
0.002862869
0.0028336018
0.0028043127
0.0027749477
0.0027455596
0.0027160909
0.0026865975
0.0026570185
0.002627413
0.0025977163
0.0025679913
0.0025381691
0.0025083169
0.0024783611
0.0024483735
0.0024182756
0.0023881444
0.0023578959
0.0023276128
0.0022972049
0.0022667614
0.0022361854
0.0022055734
0.0021748207
0.002144032
0.002113094
0.0020821209
0.0020509897
0.0020198246
0.0019884921
0.0019571283
0.0019255872
0.0018940182
0.0018622616
0.0018304819
0.0017985035
0.0017665083
0.0017343027
0.0017020881
0.0016696505
0.001637214
0.0016045408
0.0015718808
0.0015389694
0.0015060861
0.0014729354
0.0014398305
0.0014064407
0.001373118
0.0013394909
0.0013059564
0.0012720961
0.0012383584
0.001204271
0.001170342
0.0011360362
0.0011019311
0.001067419
0.0010331573
0.00099845432
0.00096406074
0.00092918676
0.00089469166
0.00085967163
0.00082511288
0.00078997809
0.000755402
0.0007201911
0.00068565492
0.00065041606
0.00061599019
0.00058078291
0.00054655437
0.00051145308
0.00047753041
0.00044262819
0.00040914745
0.00037456227
0.00034169665
0.00030757932
0.0002755526
0.00024209948
0.00021120793
0.00017867925
0.00014932847
0.00011807522
9.0849742e-05
6.1333364e-05
3.7137217e-05
9.6252828e-06
0.034218823
0.034007195
0.032584088
0.030222944
0.027496122
0.024896968
0.022610309
0.020565569
0.018590414
0.016542267
0.014364389
0.012081397
0.0097732908
0.0075499889
0.0055283676
0.0038132143
0.0024834581
0.0015806421
0.0011017197
0.00099910939
0.0011910554
0.0015795973
0.0020698902
0.0025839156
0.0030666133
0.0034873158
0.0038348396
0.0041095007
0.0043174691
0.0044676166
0.0045698689
0.0046341029
0.0046694364
0.0046837307
0.0046834346
0.004673562
0.0046578743
0.0046390441
0.0046189118
0.0045986428
0.0045789412
0.0045601436
0.0045423721
0.0045255702
0.0045096096
0.004494285
0.004479396
0.0044647204
0.0044500746
0.0044352681
0.0044201612
0.0044046126
0.0043885355
0.0043718392
0.0043544864
0.0043364297
0.0043176707
0.0042981946
0.004278031
0.004257186
0.004235707
0.0042136115
0.0041909559
0.004167762
0.0041440888
0.0041199568
0.0040954239
0.0040705064
0.0040452584
0.0040196903
0.0039938519
0.0039677473
0.003941422
0.003914874
0.0038881451
0.0038612281
0.0038341618
0.0038069345
0.0037795831
0.0037520921
0.0037244973
0.0036967801
0.0036689755
0.0036410623
0.0036130756
0.0035849917
0.0035568459
0.0035286124
0.003500327
0.0034719617
0.0034435529
0.0034150708
0.0033865524
0.0033579657
0.0033293487
0.0033006672
0.0032719603
0.0032431915
0.0032144011
0.0031855502
0.0031566804
0.0031277505
0.0030988037
0.0030697962
0.0030407727
0.0030116869
0.0029825856
0.0029534197
0.002924238
0.0028949886
0.0028657226
0.0028363853
0.0028070301
0.0027775994
0.0027481493
0.0027186188
0.0026890673
0.00265943
0.0026297699
0.0026000183
0.002570242
0.002540368
0.0025104674
0.0024804626
0.0024504296
0.0024202854
0.0023901113
0.0023598189
0.0023294953
0.0022990457
0.0022685641
0.0022379486
0.0022073005
0.0021765102
0.0021456875
0.0021147136
0.0020837084
0.0020525431
0.0020213476
0.0019899824
0.00195859
0.0019270177
0.0018954216
0.0018636351
0.0018318299
0.0017998228
0.0017678035
0.0017355704
0.001703333
0.001670869
0.001638411
0.0016057123
0.001573032
0.0015400962
0.0015071938
0.0014740194
0.0014408965
0.0014074838
0.0013741442
0.001340495
0.0013069447
0.0012730628
0.0012393103
0.0012052019
0.0011712591
0.001136933
0.001102815
0.0010682829
0.0010340093
0.00099928677
0.00096488218
0.00092998904
0.00089548383
0.00086044493
0.00082587696
0.00079072355
0.00075613911
0.0007209098
0.00068636611
0.00065110898
0.00061667642
0.00058145099
0.00054721654
0.00051209716
0.00047816931
0.00044324903
0.00040976378
0.00037516053
0.00034229093
0.00030815552
0.00027612512
0.00024265392
0.00021175861
0.00017921193
0.00014985654
0.00011858596
9.1352459e-05
6.1825459e-05
3.7566002e-05
1.0012775e-05
0.03239417
0.032261238
0.03121329
0.029341884
0.026984937
0.024550382
0.022291455
0.020244097
0.018308315
0.016363024
0.014339669
0.012240668
0.010125129
0.0080833613
0.0062138973
0.0046066102
0.0033304169
0.0024241345
0.0018909426
0.0016974837
0.001780019
0.0020572778
0.0024460865
0.0028744408
0.0032892687
0.0036585341
0.0039680919
0.0042155236
0.0044047652
0.0045427182
0.0046375176
0.0046974898
0.0047305306
0.0047436096
0.0047425776
0.0047320658
0.0047156172
0.0046957905
0.0046743909
0.0046525906
0.0046311327
0.004610401
0.0045905739
0.0045716429
0.0045535269
0.0045360553
0.0045190613
0.0045023433
0.0044857385
0.0044690651
0.0044521932
0.004434981
0.0044173443
0.0043991871
0.0043804708
0.0043611401
0.0043411943
0.0043206094
0.0042994123
0.0042776001
0.0042552175
0.0042322739
0.0042088239
0.0041848814
0.0041605045
0.0041357071
0.0041105468
0.0040850335
0.0040592224
0.004033118
0.0040067716
0.0039801819
0.0039533961
0.0039264077
0.0038992603
0.0038719423
0.0038444948
0.0038169017
0.0037892023
0.0037613771
0.0037334641
0.0037054409
0.0036773451
0.0036491514
0.0036208977
0.0035925564
0.0035641656
0.0035356956
0.003507185
0.003478602
0.003449986
0.0034213033
0.0033925939
0.003363822
0.0033350287
0.003306176
0.0032773061
0.0032483788
0.0032194375
0.0031904397
0.0031614301
0.0031323639
0.0031032872
0.0030741529
0.0030450088
0.0030158052
0.0029865916
0.0029573159
0.0029280297
0.0028986778
0.0028693144
0.0028398813
0.0028104353
0.002780915
0.0027513801
0.0027217657
0.0026921349
0.0026624191
0.0026326847
0.0026028595
0.0025730136
0.0025430704
0.0025131046
0.0024830348
0.0024529405
0.0024227351
0.0023925036
0.0023621535
0.0023317759
0.002301272
0.0022707396
0.0022400726
0.0022093768
0.0021785379
0.0021476701
0.0021166504
0.0020856027
0.0020543938
0.0020231584
0.001991752
0.0019603218
0.0019287103
0.0018970786
0.0018652549
0.001833416
0.0018013735
0.0017693225
0.0017370556
0.0017047883
0.0016722921
0.0016398058
0.0016070764
0.0015743694
0.0015414041
0.0015084765
0.0014752739
0.0014421272
0.0014086875
0.0013753254
0.0013416502
0.0013080787
0.0012741718
0.0012403994
0.0012062669
0.0011723053
0.0011379558
0.0011038202
0.0010692656
0.0010349753
0.0010002309
0.0009658107
0.00093089632
0.00089637642
0.00086131687
0.00082673508
0.00079156154
0.00075696409
0.00072171513
0.00068715917
0.00065188283
0.00061743863
0.00058219439
0.00054794882
0.00051281101
0.00047887238
0.00044393407
0.00041043812
0.00037581724
0.00034293665
0.0003087841
0.0002767418
0.00024325409
0.0002123449
0.00017978274
0.00015040929
0.00011912626
9.1863074e-05
6.2338489e-05
3.7954012e-05
1.0355752e-05
0.030818665
0.030697658
0.029858466
0.028335094
0.026324351
0.024117886
0.021959277
0.019949352
0.018059904
0.016207237
0.01432468
0.012397389
0.01046217
0.0085888557
0.0068594239
0.0053515703
0.0041267386
0.003222036
0.0026454415
0.0023745334
0.0023602249
0.0025358523
0.0028295693
0.0031761921
0.003525345
0.0038442683
0.0041162263
0.0043360716
0.0045055781
0.0046299458
0.0047158483
0.0047702969
0.0048000672
0.0048112366
0.0048090089
0.0047975721
0.0047801973
0.0047592867
0.0047365799
0.0047132326
0.0046900123
0.0046673388
0.0046454403
0.0046243516
0.0046040385
0.0045843643
0.0045651973
0.0045463557
0.0045276979
0.004509051
0.0044902972
0.0044712953
0.0044519664
0.0044322099
0.0044119888
0.0043912406
0.004369964
0.0043481263
0.0043257534
0.0043028329
0.0042794088
0.0042554811
0.0042311038
0.0042062826
0.0041810756
0.0041554889
0.0041295807
0.0041033542
0.0040768656
0.0040501133
0.0040231503
0.0039959696
0.0039686207
0.0039410915
0.0039134283
0.0038856143
0.0038576936
0.0038296449
0.0038015108
0.0037732666
0.0037449539
0.003716545
0.0036880811
0.0036595323
0.0036309397
0.003602271
0.0035735676
0.0035447955
0.0035159965
0.0034871344
0.0034582521
0.0034293112
0.0034003554
0.0033713445
0.0033423231
0.0033132489
0.0032841675
0.0032550346
0.0032258969
0.003196708
0.0031675159
0.003138272
0.0031090256
0.0030797258
0.0030504236
0.0030210656
0.0029917047
0.0029622849
0.0029328612
0.0029033748
0.002873883
0.0028443242
0.0028147581
0.0027851201
0.0027554728
0.0027257483
0.0026960122
0.0026661932
0.0026363603
0.0026064381
0.0025764998
0.0025464658
0.0025164133
0.0024862581
0.0024560824
0.0024257967
0.0023954887
0.0023650631
0.0023346136
0.0023040386
0.0022734385
0.0022427046
0.002211945
0.002181043
0.0021501153
0.002119036
0.0020879318
0.0020566667
0.0020253779
0.0019939183
0.0019624379
0.0019307761
0.001899097
0.0018672257
0.001835342
0.0018032545
0.0017711611
0.0017388515
0.0017065442
0.0016740074
0.0016414833
0.0016087154
0.0015759726
0.0015429707
0.0015100092
0.0014767718
0.0014435931
0.0014101201
0.0013767277
0.0013430208
0.0013094206
0.0012754834
0.0012416838
0.0012075223
0.0011735349
0.0011391577
0.0011049975
0.0010704164
0.0010361029
0.001001333
0.00096689055
0.00093195173
0.00089741062
0.00086232757
0.00082772547
0.00079252933
0.00075791232
0.00072264161
0.00068806669
0.00065276944
0.00061830667
0.00058304235
0.00054877834
0.0005136213
0.000479664
0.00044470737
0.00041119199
0.00037655384
0.00034365231
0.00030948375
0.00027741775
0.00024391573
0.00021297787
0.00018040427
0.00015099242
0.00011970538
9.2379131e-05
6.2875097e-05
3.8290835e-05
1.0645723e-05
0.029404511
0.029275998
0.028566868
0.027296762
0.025583277
0.023622612
0.021614207
0.019683091
0.017853803
0.016085336
0.014325273
0.012550094
0.010777533
0.0090577327
0.0074568508
0.0060415921
0.0048673245
0.003969859
0.0033607535
0.0030258571
0.0029277419
0.003012261
0.0032182746
0.0034877865
0.003773711
0.0040432865
0.004277816
0.0044696926
0.0046186181
0.0047282171
0.0048039011
0.0048515568
0.0048769591
0.0048853317
0.0048812206
0.0048683358
0.004849641
0.0048273497
0.0048031127
0.0047780499
0.0047529397
0.0047282257
0.0047041786
0.004680869
0.0046583053
0.004636381
0.0046149969
0.0045939879
0.0045732332
0.0045525669
0.0045318841
0.0045110434
0.0044899731
0.0044685673
0.0044467923
0.0044245771
0.0044019218
0.0043787837
0.0043551889
0.0043311149
0.0043066054
0.0042816502
0.0042563038
0.0042305618
0.0042044839
0.0041780667
0.0041513706
0.00412439
0.0040971839
0.0040697427
0.0040421228
0.0040143097
0.0039863569
0.003958245
0.0039300247
0.0039016723
0.0038732365
0.0038446896
0.0038160786
0.0037873725
0.0037586177
0.0037297804
0.0037009064
0.0036719599
0.0036429866
0.0036139483
0.0035848914
0.0035557756
0.0035266478
0.0034974661
0.0034682778
0.0034390392
0.0034097985
0.0033805101
0.0033512231
0.0033218899
0.0032925607
0.003263186
0.0032338169
0.003204402
0.0031749936
0.0031455383
0.0031160895
0.0030865917
0.0030571001
0.0030275567
0.0029980183
0.0029684246
0.0029388344
0.0029091849
0.0028795369
0.002849825
0.0028201122
0.0027903304
0.0027605454
0.0027306857
0.0027008201
0.0026708739
0.0026409192
0.0026108775
0.0025808245
0.0025506779
0.0025205174
0.0024902562
0.0024599788
0.0024295932
0.0023991893
0.0023686694
0.0023381295
0.0023074656
0.0022767802
0.0022459625
0.0022151223
0.0021841411
0.0021531372
0.0021219832
0.002090807
0.0020594713
0.0020281145
0.0019965882
0.0019650433
0.0019333184
0.0019015783
0.0018696473
0.001837706
0.0018055618
0.0017734138
0.0017410507
0.0017086915
0.001676104
0.0016435307
0.0016107147
0.0015779253
0.0015448778
0.001511872
0.0014785913
0.0014453706
0.0014118564
0.0013784241
0.0013446781
0.0013110398
0.0012770655
0.0012432296
0.0012090328
0.0011750108
0.0011406
0.0011064067
0.0010717935
0.0010374483
0.0010026479
0.000968175
0.00093320719
0.00089863665
0.00086352601
0.00082889535
0.00079367298
0.00075902805
0.00072373247
0.00068912999
0.00065380922
0.00061931892
0.00058403249
0.00054974052
0.00051456287
0.00048057654
0.00044560096
0.00041205461
0.00037739948
0.00034446367
0.00031028061
0.00027817486
0.00024466183
0.00021367476
0.0001810961
0.00015161714
0.00012033878
9.2903729e-05
6.3440956e-05
3.8576154e-05
1.0892884e-05
0.028114183
0.027976875
0.027360023
0.026281233
0.024813043
0.02308618
0.021252
0.019431809
0.017680293
0.015992884
0.01433854
0.012694416
0.01106531
0.0094840906
0.0080018429
0.0066746678
0.0055520315
0.0046681472
0.0040370353
0.0036508353
0.0034814543
0.0034854095
0.0036114088
0.0038086615
0.0040338734
0.0042550285
0.0044521852
0.004615695
0.0047433245
0.0048371733
0.0049014828
0.0049411462
0.0049610553
0.0049656499
0.0049588403
0.0049438491
0.0049233115
0.0048992274
0.0048731371
0.0048461057
0.0048189077
0.0047919975
0.0047656784
0.0047400481
0.0047151524
0.0046909082
0.0046672459
0.0046440138
0.0046211106
0.0045983754
0.0045757164
0.0045529912
0.0045301358
0.0045070386
0.0044836699
0.0044599498
0.0044358803
0.0044114081
0.0043865602
0.0043613028
0.0043356806
0.0043096719
0.0042833326
0.0042566472
0.0042296774
0.0042024093
0.0041749066
0.0041471535
0.004119213
0.0040910661
0.0040627736
0.0040343122
0.0040057404
0.0039770304
0.0039482385
0.0039193327
0.0038903674
0.003861307
0.0038322047
0.0038030217
0.0037738103
0.003744529
0.0037152302
0.0036858701
0.003656501
0.0036270771
0.003597651
0.0035681752
0.0035387027
0.0035091844
0.0034796739
0.0034501204
0.0034205782
0.0033909947
0.0033614252
0.0033318152
0.0033022211
0.0032725865
0.0032429687
0.0032133095
0.0031836673
0.0031539821
0.0031243134
0.0030945992
0.0030649005
0.0030351531
0.0030054195
0.0029756336
0.0029458594
0.0029160285
0.0028862068
0.0028563236
0.0028264469
0.0027965033
0.0027665634
0.0027365508
0.0027065389
0.0026764481
0.002646355
0.0026161765
0.0025859926
0.0025557165
0.0025254321
0.0024950485
0.0024646537
0.0024341521
0.002403637
0.0023730074
0.002342362
0.0023115941
0.0022808087
0.0022498924
0.0022189574
0.0021878828
0.002156789
0.0021255465
0.0020942848
0.0020628651
0.0020314272
0.0019998212
0.0019681993
0.0019363988
0.0019045855
0.0018725828
0.0018405718
0.0018083596
0.0017761453
0.0017437176
0.0017112954
0.0016786465
0.0016460132
0.0016131389
0.0015802923
0.0015471895
0.0015141291
0.0014807958
0.001447523
0.001413959
0.0013804769
0.0013466834
0.0013129975
0.0012789782
0.0012450966
0.001210857
0.0011767911
0.0011423397
0.0011081043
0.0010734525
0.0010390665
0.0010042296
0.00096971719
0.00093471468
0.00090010571
0.00086496228
0.0008302939
0.00079504061
0.00076035839
0.0007250338
0.00069039402
0.00065504619
0.00062051806
0.00058520668
0.00055087563
0.00051567534
0.00048164771
0.00044665217
0.0004130609
0.00037838904
0.00034540257
0.00031120701
0.0002790414
0.00024552193
0.00021445955
0.0001818846
0.00015230215
0.000121048
9.3449505e-05
6.4045907e-05
3.8824719e-05
1.1123619e-05
0.026929497
0.026788478
0.02624448
0.025313749
0.024045168
0.022526879
0.020870379
0.01918
0.017522529
0.015918602
0.014358715
0.012827476
0.011323491
0.0098665799
0.0084942668
0.0072520806
0.0061830467
0.0053190299
0.0046754881
0.0042494051
0.0040202934
0.0039537624
0.0040073917
0.0041373517
0.004304506
0.0044782751
0.0046381813
0.0047730139
0.0048787983
0.0049561438
0.0050081459
0.0050387777
0.0050521482
0.0050519984
0.005041652
0.0050238594
0.0050009193
0.0049746004
0.0049463114
0.0049170428
0.0048875482
0.0048582786
0.0048295585
0.0048015041
0.0047741907
0.0047475538
0.0047215488
0.0046960345
0.0046709276
0.004646071
0.0046213849
0.0045967259
0.0045720376
0.0045472027
0.0045221956
0.0044969274
0.0044714022
0.004445556
0.004419417
0.00439294
0.0043661707
0.004339076
0.0043117132
0.0042840554
0.0042561668
0.0042280225
0.0041996893
0.0041711414
0.0041424457
0.0041135734
0.0040845902
0.0040554632
0.0040262567
0.0039969336
0.0039675562
0.0039380836
0.0039085767
0.003878991
0.0038493866
0.0038197158
0.0037900382
0.0037603034
0.0037305709
0.0037007883
0.0036710153
0.0036411974
0.0036113947
0.0035815509
0.0035517268
0.0035218642
0.0034920249
0.0034621489
0.0034322988
0.0034024128
0.0033725544
0.0033426604
0.0033127949
0.003282893
0.00325302
0.0032231091
0.0031932266
0.0031633039
0.0031334087
0.0031034703
0.0030735576
0.0030435983
0.0030136626
0.0029836761
0.0029537107
0.0029236899
0.0028936872
0.0028636239
0.0028335758
0.0028034614
0.0027733588
0.0027431842
0.002713018
0.0026827733
0.0026525336
0.0026222089
0.0025918858
0.0025614707
0.002531054
0.002500538
0.0024700174
0.00243939
0.0024087551
0.0023780057
0.0023472463
0.0023163644
0.0022854704
0.0022544455
0.002223407
0.0021922289
0.0021610364
0.0021296954
0.0020983396
0.0020668259
0.0020352982
0.0020036028
0.0019718952
0.0019400094
0.0019081143
0.0018760302
0.0018439411
0.0018116514
0.0017793624
0.0017468607
0.0017143672
0.0016816478
0.0016489462
0.0016160047
0.0015830927
0.0015499257
0.0015168027
0.0014834083
0.0014500754
0.0014164531
0.0013829133
0.0013490643
0.0013153229
0.0012812506
0.0012473156
0.0012130257
0.0011789081
0.0011444088
0.0011101233
0.001075426
0.0010409914
0.0010061112
0.00097155128
0.00093650789
0.0009018522
0.00086667023
0.00083195554
0.00079666606
0.00076193753
0.00072657921
0.00069189251
0.00065651357
0.00062193716
0.00058659757
0.00055221589
0.00051699064
0.00048290861
0.00044789198
0.00041424054
0.00037955242
0.00034649694
0.00031229152
0.0002800431
0.00024652293
0.0002153553
0.00018279422
0.00015306758
0.00012185269
9.4034043e-05
6.469883e-05
3.9060827e-05
1.1366986e-05
0.025839412
0.025701011
0.025218007
0.024404837
0.023298253
0.021959833
0.020471584
0.018918213
0.017366417
0.015851251
0.014380412
0.012948696
0.011554172
0.01020842
0.0089377722
0.0077775676
0.0067637974
0.0059251081
0.0052774369
0.0048214761
0.0045430083
0.0044154039
0.004404118
0.0044718731
0.0045838866
0.0047115791
0.0048345755
0.0049405929
0.0050241599
0.0050844585
0.0051234409
0.0051441919
0.0051501101
0.0051443224
0.0051296307
0.0051083483
0.0050824438
0.0050534446
0.0050226095
0.0049908352
0.0049588356
0.0049270441
0.0048957937
0.0048652102
0.0048353911
0.0048062853
0.0047778687
0.0047500094
0.0047226389
0.0046956039
0.004668835
0.0046421879
0.004615613
0.0045889881
0.0045622909
0.0045354246
0.0045083947
0.0044811274
0.0044536513
0.0044259107
0.0043979517
0.0043697304
0.0043413051
0.0043126385
0.0042837958
0.0042547424
0.0042255474
0.0041961754
0.0041666965
0.0041370728
0.0041073741
0.0040775587
0.0040476955
0.004017739
0.0039877568
0.0039576995
0.0039276339
0.0038975072
0.0038673855
0.003837213
0.0038070557
0.0037768551
0.0037466771
0.003716461
0.0036862736
0.0036560518
0.0036258632
0.0035956427
0.0035654585
0.003535244
0.0035050683
0.0034748629
0.0034446981
0.0034145034
0.0033843502
0.0033541662
0.003324024
0.0032938496
0.0032637165
0.0032335488
0.0032034216
0.0031732568
0.0031431308
0.0031129638
0.0030828334
0.0030526578
0.0030225164
0.0029923252
0.0029621651
0.0029319502
0.0029017632
0.0028715158
0.0028412928
0.0028110036
0.0027807352
0.0027503942
0.0027200704
0.0026896676
0.0026592781
0.0026288027
0.0025983371
0.0025677783
0.0025372259
0.002506573
0.002475923
0.0024451649
0.0024144067
0.0023835324
0.0023526553
0.0023216541
0.0022906478
0.0022595089
0.002228363
0.0021970759
0.0021657809
0.0021343355
0.0021028817
0.002071268
0.0020396466
0.0020078555
0.0019760581
0.0019440807
0.0019120996
0.0018799278
0.0018477562
0.0018153826
0.0017830145
0.0017504323
0.0017178629
0.0016850664
0.0016522919
0.0016192766
0.0015862945
0.0015530568
0.0015198665
0.0014864042
0.0014530064
0.0014193192
0.0013857168
0.0013518056
0.0013180037
0.001283872
0.0012498784
0.0012155316
0.0011813571
0.0011468035
0.0011124625
0.0010777135
0.0010432245
0.0010082952
0.0009736817
0.00093859174
0.00090388295
0.00086865705
0.00083388918
0.00079855853
0.00076377618
0.00072837969
0.00069363773
0.00065822385
0.00062358976
0.00058821894
0.00055377582
0.00051852361
0.00048437448
0.00044933609
0.00041560924
0.00038090589
0.00034776264
0.00031355065
0.00028119575
0.00024768113
0.00021637765
0.00018384002
0.00015392935
0.00012276411
9.4674657e-05
6.5403832e-05
3.9311427e-05
1.1643549e-05
0.024835546
0.02470565
0.024275497
0.023558098
0.02258333
0.021397335
0.0200616
0.018643592
0.017203478
0.015782253
0.014399086
0.013058395
0.011761172
0.010514918
0.0093376454
0.0082556172
0.0072976574
0.0064884941
0.0058436529
0.0053665243
0.0050480217
0.0048681107
0.0047991621
0.0048099597
0.0048701023
0.0049534137
0.0050401584
0.0051174507
0.0051786078
0.0052214949
0.0052469376
0.0052571449
0.0052548491
0.0052426348
0.0052228494
0.0051974173
0.0051679963
0.0051358735
0.0051021432
0.0050675923
0.005032876
0.0049983961
0.0049644807
0.0049312573
0.0048988373
0.0048671797
0.0048362759
0.004806002
0.0047763018
0.0047470257
0.0047181126
0.0046894181
0.0046608976
0.0046324253
0.004603981
0.0045754618
0.0045468727
0.0045181323
0.0044892678
0.0044602148
0.0044310181
0.0044016253
0.0043720934
0.0043423766
0.00431254
0.0042825405
0.0042524475
0.0042222181
0.0041919234
0.0041615186
0.0041310751
0.0041005448
0.0040699987
0.0040393851
0.0040087745
0.0039781114
0.0039474659
0.0039167791
0.0038861211
0.0038554298
0.0038247756
0.0037940936
0.0037634546
0.0037327913
0.0037021754
0.0036715373
0.0036409498
0.0036103414
0.0035797856
0.0035492089
0.0035186864
0.0034881424
0.0034576534
0.0034271417
0.0033966851
0.0033662039
0.0033357772
0.0033053234
0.0032749232
0.0032444928
0.0032141144
0.003183702
0.0031533395
0.0031229388
0.0030925855
0.0030621892
0.0030318373
0.0030014372
0.0029710782
0.0029406655
0.0029102902
0.0028798551
0.0028494539
0.0028189864
0.0027885489
0.0027580385
0.0027275543
0.0026969901
0.0026664482
0.0026358192
0.0026052085
0.0025745033
0.0025438129
0.0025130202
0.0024822387
0.0024513471
0.0024204635
0.0023894615
0.0023584649
0.0023273415
0.0022962211
0.0022649651
0.0022337102
0.0022023109
0.0021709117
0.0021393588
0.0021078052
0.0020760884
0.0020443714
0.0020124814
0.0019805924
0.00194852
0.0019164511
0.0018841879
0.0018519322
0.0018194707
0.0017870218
0.0017543552
0.0017217081
0.0016888304
0.0016559812
0.0016228877
0.0015898338
0.0015565209
0.0015232612
0.0014897267
0.0014562618
0.0014225051
0.0013888379
0.0013548599
0.0013209951
0.0012867993
0.0012527445
0.0012183361
0.0011841019
0.0011494894
0.0011150898
0.0010802845
0.0010457378
0.0010107548
0.00097608394
0.00094094309
0.00090617689
0.00087090302
0.00083607703
0.00080070151
0.00076585963
0.00073042171
0.00069561783
0.00066016635
0.00062546669
0.00059006273
0.00055554872
0.00052026862
0.00048604091
0.00045098108
0.00041716468
0.000382448
0.00034919939
0.00031498461
0.00028250115
0.00024899777
0.00021753084
0.00018502323
0.00015489501
0.00012378139
9.5383569e-05
6.6158267e-05
3.9599186e-05
1.1958232e-05
0.023911042
0.023795038
0.023411866
0.022773883
0.021907122
0.020849149
0.019647999
0.018357718
0.017030094
0.015706054
0.014410952
0.013156507
0.011947797
0.010791141
0.0096990527
0.0086904477
0.0077874955
0.0070106786
0.0063743512
0.0058836467
0.0055335448
0.0053095379
0.0051900028
0.0051492555
0.0051611683
0.0052022145
0.0052537224
0.0053026338
0.0053413648
0.0053666262
0.0053781664
0.0053773328
0.0053662147
0.0053469063
0.00532136
0.0052911638
0.0052576941
0.0052220094
0.0051850324
0.0051474285
0.005109777
0.0050724352
0.0050357126
0.0049997312
0.0049646075