/*--------------------------------*- C++ -*----------------------------------*\
| =========                 |                                                 |
| \\      /  F ield         | OpenFOAM: The Open Source CFD Toolbox           |
|  \\    /   O peration     | Version:  5.x                                   |
|   \\  /    A nd           | Web:      www.OpenFOAM.org                      |
|    \\/     M anipulation  |                                                 |
\*---------------------------------------------------------------------------*/
FoamFile
{
    version     2.0;
    format      ascii;
    class       surfaceScalarField;
    location    "0.9";
    object      phi;
}
// * * * * * * * * * * * * * * * * * * * * * * * * * * * * * * * * * * * * * //

dimensions      [0 3 -1 0 0 0 0];

internalField   nonuniform List<scalar> 
42870
(
7.8542451e-08
2.9351041e-09
-8.1477555e-08
7.4594806e-08
3.9476454e-09
7.0433281e-08
4.1615246e-09
6.6323672e-08
4.1096093e-09
6.2256069e-08
4.0676028e-09
5.8186712e-08
4.0693574e-09
5.4107635e-08
4.0790761e-09
5.0038363e-08
4.0692719e-09
4.6018749e-08
4.0196144e-09
4.2097915e-08
3.9208336e-09
3.8328741e-08
3.7691743e-09
3.4766349e-08
3.5623918e-09
3.1471311e-08
3.2950384e-09
2.8500201e-08
2.9711102e-09
2.5893626e-08
2.6065745e-09
2.3679554e-08
2.2140722e-09
2.1860533e-08
1.819021e-09
2.0411621e-08
1.4489125e-09
1.9286174e-08
1.1254469e-09
1.8426694e-08
8.594802e-10
1.7774224e-08
6.524698e-10
1.7274857e-08
4.9936682e-10
1.6882936e-08
3.9192113e-10
1.6561959e-08
3.2097685e-10
1.6285433e-08
2.7652611e-10
1.6034486e-08
2.5094673e-10
1.57958e-08
2.3868589e-10
1.5561039e-08
2.3476146e-10
1.532595e-08
2.3508856e-10
1.5089114e-08
2.3683601e-10
1.4850841e-08
2.3827351e-10
1.4612322e-08
2.3851894e-10
1.4375104e-08
2.372172e-10
1.4140731e-08
2.3437332e-10
1.3910575e-08
2.3015565e-10
1.3685734e-08
2.2484161e-10
1.3467028e-08
2.1870561e-10
1.3254996e-08
2.1203238e-10
1.304995e-08
2.0504611e-10
1.2851995e-08
1.9795523e-10
1.2661097e-08
1.9089747e-10
1.2477098e-08
1.8399903e-10
1.2299775e-08
1.7732342e-10
1.2128838e-08
1.7093627e-10
1.1963987e-08
1.648516e-10
1.1804889e-08
1.5909741e-10
1.1651231e-08
1.5365865e-10
1.1502684e-08
1.4854634e-10
1.1358952e-08
1.4373267e-10
1.1219732e-08
1.3921938e-10
1.1084761e-08
1.349715e-10
1.0953773e-08
1.3098809e-10
1.082654e-08
1.2723226e-10
1.0702837e-08
1.2370381e-10
1.058247e-08
1.2036619e-10
1.0465249e-08
1.1722145e-10
1.0351014e-08
1.1423449e-10
1.0239604e-08
1.1141032e-10
1.0130888e-08
1.0871571e-10
1.002473e-08
1.0615881e-10
9.9210213e-09
1.0370832e-10
9.8196459e-09
1.0137533e-10
9.7205157e-09
9.9130285e-11
9.6235288e-09
9.6986885e-11
9.5286118e-09
9.4916978e-11
9.4356753e-09
9.2936452e-11
9.3446571e-09
9.1018203e-11
9.2554773e-09
8.9179865e-11
9.1680822e-09
8.7395091e-11
9.0823993e-09
8.5682848e-11
8.9983821e-09
8.4017269e-11
8.9159637e-09
8.241834e-11
8.8351032e-09
8.0860483e-11
8.7557388e-09
7.9364405e-11
8.6778341e-09
7.7904714e-11
8.6013315e-09
7.650263e-11
8.5261986e-09
7.5132892e-11
8.4523816e-09
7.3817041e-11
8.3798516e-09
7.2529962e-11
8.3085582e-09
7.1293381e-11
8.2384758e-09
7.0082361e-11
8.1695572e-09
6.8918673e-11
8.1017795e-09
6.7777658e-11
8.0350985e-09
6.6681041e-11
7.969494e-09
6.5604494e-11
7.9049244e-09
6.4569573e-11
7.841372e-09
6.3552403e-11
7.7787978e-09
6.2574248e-11
7.717186e-09
6.1611802e-11
7.6565e-09
6.0685914e-11
7.5967261e-09
5.9773963e-11
7.5378298e-09
5.889625e-11
7.4797989e-09
5.8030964e-11
7.4226011e-09
5.719772e-11
7.3662255e-09
5.6375649e-11
7.310642e-09
5.5583525e-11
7.2558404e-09
5.4801559e-11
7.2017929e-09
5.4047527e-11
7.14849e-09
5.3302865e-11
7.0959058e-09
5.2584188e-11
7.0440315e-09
5.1874305e-11
6.992843e-09
5.1188497e-11
6.9423319e-09
5.0511111e-11
6.892476e-09
4.9855916e-11
6.843267e-09
4.9208959e-11
6.7946847e-09
4.8582316e-11
6.7467208e-09
4.796391e-11
6.6993569e-09
4.7363931e-11
6.6525845e-09
4.6772358e-11
6.6063872e-09
4.6197313e-11
6.5607562e-09
4.5631006e-11
6.5156769e-09
4.5079296e-11
6.4711401e-09
4.4536817e-11
6.4271331e-09
4.4006969e-11
6.3836461e-09
4.3487001e-11
6.3406685e-09
4.2977657e-11
6.2981895e-09
4.2478988e-11
6.2562006e-09
4.198888e-11
6.2146902e-09
4.151039e-11
6.1736519e-09
4.1038353e-11
6.1330728e-09
4.0579018e-11
6.0929489e-09
4.0123967e-11
6.053266e-09
3.9682826e-11
6.0140223e-09
3.9243757e-11
5.9752023e-09
3.8819936e-11
5.9368064e-09
3.839591e-11
5.8988179e-09
3.7988586e-11
5.8612391e-09
3.7578736e-11
5.824052e-09
3.7187155e-11
5.7872613e-09
3.6790689e-11
5.7508471e-09
3.6414136e-11
5.7148168e-09
3.6030289e-11
5.6791487e-09
3.5668105e-11
5.6438525e-09
3.5296199e-11
5.6089048e-09
3.4947783e-11
5.5743176e-09
3.4587184e-11
5.5400657e-09
3.425189e-11
5.5061637e-09
3.3902008e-11
5.4725843e-09
3.3579372e-11
5.4393446e-09
3.323967e-11
5.4064156e-09
3.2929069e-11
5.3738165e-09
3.2599094e-11
5.3415164e-09
3.2300068e-11
5.3095371e-09
3.1979352e-11
5.2778457e-09
3.1691398e-11
5.2464661e-09
3.13796e-11
5.2153639e-09
3.1102196e-11
5.1845649e-09
3.0798985e-11
5.1540332e-09
3.0531694e-11
5.1237964e-09
3.0236808e-11
5.0938173e-09
2.9979096e-11
5.0641249e-09
2.9692356e-11
5.0346812e-09
2.9443754e-11
5.0055162e-09
2.9165015e-11
4.9765912e-09
2.8924983e-11
4.9479369e-09
2.8654224e-11
4.9195147e-09
2.8422213e-11
4.8913553e-09
2.8159471e-11
4.8634204e-09
2.7934906e-11
4.83574e-09
2.7680336e-11
4.8082775e-09
2.7462548e-11
4.781061e-09
2.7216433e-11
4.7540563e-09
2.7004737e-11
4.7272888e-09
2.6767461e-11
4.7007278e-09
2.6561037e-11
4.6743946e-09
2.633321e-11
4.6482634e-09
2.6131159e-11
4.6223499e-09
2.5913536e-11
4.5966351e-09
2.5714828e-11
4.5711266e-09
2.5508436e-11
4.5458148e-09
2.5311825e-11
4.5206968e-09
2.511799e-11
4.4957747e-09
2.4922095e-11
4.4710322e-09
2.4742476e-11
4.4464867e-09
2.4545566e-11
4.4221044e-09
2.4382317e-11
4.3979219e-09
2.4182425e-11
4.3738837e-09
2.403824e-11
4.3500508e-09
2.3832917e-11
4.3263395e-09
2.3711237e-11
4.302842e-09
2.3497568e-11
4.2794392e-09
2.3402812e-11
4.256262e-09
2.3177197e-11
4.233147e-09
2.3114998e-11
4.210274e-09
2.2873006e-11
4.1874232e-09
2.2850801e-11
4.1648363e-09
2.2586892e-11
4.1422218e-09
2.2614461e-11
4.1199002e-09
2.2321642e-11
4.0974878e-09
2.2412327e-11
4.0754062e-09
2.2081601e-11
4.0531522e-09
2.2254056e-11
4.0312785e-09
2.1873641e-11
4.0091233e-09
2.2155197e-11
3.9874144e-09
2.1708911e-11
3.9652729e-09
2.2141524e-11
3.9436699e-09
2.1602965e-11
3.9214199e-09
2.2250073e-11
3.8998752e-09
2.1544661e-11
2.3497271e-11
8.5875253e-08
2.6012026e-09
-8.5541352e-08
8.6014148e-08
3.8087503e-09
8.5662127e-08
4.5135457e-09
8.5028513e-08
4.7432236e-09
8.4255066e-08
4.8410492e-09
8.3359982e-08
4.9644417e-09
8.2303128e-08
5.1359301e-09
8.1061572e-08
5.3108276e-09
7.9640571e-08
5.4406162e-09
7.8060887e-08
5.5005168e-09
7.634785e-08
5.4822112e-09
7.4528892e-08
5.3813504e-09
7.2631411e-08
5.1925193e-09
7.0684513e-08
4.918008e-09
6.8723127e-08
4.567961e-09
6.6780835e-08
4.1563642e-09
6.4890086e-08
3.7097696e-09
6.3077971e-08
3.2610273e-09
6.1362235e-08
2.8411826e-09
5.9750053e-08
2.4716626e-09
5.8240183e-08
2.1623402e-09
5.6826774e-08
1.9127756e-09
5.5501835e-08
1.7168598e-09
5.4254812e-08
1.5679998e-09
5.3078774e-08
1.4525648e-09
5.1967208e-08
1.3625125e-09
5.0912411e-08
1.2934825e-09
4.9907734e-08
1.2394383e-09
4.8947767e-08
1.1950555e-09
4.8028281e-08
1.1563228e-09
4.7146028e-08
1.1205259e-09
4.6298476e-08
1.0860717e-09
4.5483621e-08
1.0520716e-09
4.4699823e-08
1.0181711e-09
4.3945704e-08
9.8427496e-10
4.3220029e-08
9.5051642e-10
4.2521664e-08
9.1707109e-10
4.1849498e-08
8.8419768e-10
4.1202448e-08
8.5209651e-10
4.0579411e-08
8.2099217e-10
3.9979294e-08
7.910142e-10
3.9400989e-08
7.6230446e-10
3.8843406e-08
7.3490609e-10
3.8305458e-08
7.0888405e-10
3.7786096e-08
6.8421367e-10
3.7284291e-08
6.6090266e-10
3.6799071e-08
6.3887897e-10
3.6329492e-08
6.1812536e-10
3.5874675e-08
5.9854966e-10
3.5433776e-08
5.8011792e-10
3.5006021e-08
5.627265e-10
3.4590671e-08
5.4633822e-10
3.4187055e-08
5.3084852e-10
3.3794534e-08
5.1622415e-10
3.3412536e-08
5.0236496e-10
3.3040512e-08
4.8924527e-10
3.2677974e-08
4.767719e-10
3.2324456e-08
4.649284e-10
3.1979542e-08
4.5362967e-10
3.1642833e-08
4.4286856e-10
3.1313973e-08
4.3256809e-10
3.0992619e-08
4.2272959e-10
3.0678465e-08
4.1328343e-10
3.0371214e-08
4.0423829e-10
3.00706e-08
3.9553081e-10
2.9776361e-08
3.8717556e-10
2.9488265e-08
3.7911436e-10
2.9206079e-08
3.713662e-10
2.8929596e-08
3.6387723e-10
2.865861e-08
3.5666946e-10
2.8392935e-08
3.4969254e-10
2.8132382e-08
3.4297047e-10
2.7876787e-08
3.3645584e-10
2.7625978e-08
3.3017358e-10
2.7379804e-08
3.24079e-10
2.7138109e-08
3.1819719e-10
2.6900756e-08
3.1248605e-10
2.6667603e-08
3.0697009e-10
2.6438523e-08
3.0160993e-10
2.6213387e-08
2.9642895e-10
2.5992079e-08
2.9139066e-10
2.5774481e-08
2.8651672e-10
2.5560485e-08
2.8177388e-10
2.5349984e-08
2.7718168e-10
2.5142878e-08
2.7271038e-10
2.4939071e-08
2.6837684e-10
2.4738468e-08
2.6415535e-10
2.4540983e-08
2.6005948e-10
2.4346526e-08
2.5606806e-10
2.4155022e-08
2.5219084e-10
2.3966384e-08
2.4841165e-10
2.3780544e-08
2.4473582e-10
2.3597423e-08
2.4115276e-10
2.3416958e-08
2.3766273e-10
2.3239072e-08
2.3426129e-10
2.3063712e-08
2.3094296e-10
2.2890804e-08
2.277101e-10
2.2720301e-08
2.2455071e-10
2.2552129e-08
2.2147466e-10
2.238625e-08
2.1846266e-10
2.2222592e-08
2.1553281e-10
2.2061123e-08
2.126577e-10
2.1901769e-08
2.0986446e-10
2.1744509e-08
2.0711668e-10
2.1589266e-08
2.0445135e-10
2.1436026e-08
2.0182218e-10
2.1284713e-08
1.9927687e-10
2.1135319e-08
1.9675829e-10
2.0987766e-08
1.9432582e-10
2.0842052e-08
1.9191047e-10
2.0698099e-08
1.8958428e-10
2.0555913e-08
1.8726536e-10
2.041541e-08
1.8503947e-10
2.0276607e-08
1.828107e-10
2.0139414e-08
1.8067964e-10
2.0003857e-08
1.785352e-10
1.9869842e-08
1.7649397e-10
1.9737402e-08
1.7442845e-10
1.960644e-08
1.7247245e-10
1.9476997e-08
1.7048082e-10
1.9348971e-08
1.6860587e-10
1.9222411e-08
1.6668344e-10
1.9097208e-08
1.6488568e-10
1.8973424e-08
1.6302807e-10
1.885094e-08
1.6130398e-10
1.8729829e-08
1.5950708e-10
1.8609964e-08
1.5785342e-10
1.8491429e-08
1.5611339e-10
1.8374089e-08
1.5452722e-10
1.8258039e-08
1.5284046e-10
1.8143134e-08
1.5131905e-10
1.8029483e-08
1.4968213e-10
1.7916928e-08
1.4822303e-10
1.7805591e-08
1.4663278e-10
1.7695305e-08
1.4523374e-10
1.7586205e-08
1.4368712e-10
1.7478111e-08
1.4234596e-10
1.7371173e-08
1.4084013e-10
1.7265197e-08
1.3955515e-10
1.716035e-08
1.3808737e-10
1.7056422e-08
1.3685667e-10
1.6953597e-08
1.3542446e-10
1.685165e-08
1.3424656e-10
1.6750782e-08
1.3284744e-10
1.6650752e-08
1.3172091e-10
1.6551779e-08
1.3035266e-10
1.6453606e-08
1.2927612e-10
1.6356468e-08
1.2793661e-10
1.6260091e-08
1.2690897e-10
1.6164731e-08
1.2559616e-10
1.6070094e-08
1.2461626e-10
1.5976458e-08
1.2332834e-10
1.5883507e-08
1.2239524e-10
1.5791541e-08
1.2113044e-10
1.5700223e-08
1.2024318e-10
1.5609877e-08
1.1899998e-10
1.5520142e-08
1.1815771e-10
1.5431367e-08
1.169347e-10
1.5343165e-08
1.1613664e-10
1.5255912e-08
1.1493263e-10
1.5169197e-08
1.1417793e-10
1.5083422e-08
1.1299198e-10
1.4998146e-08
1.1227988e-10
1.4913803e-08
1.1111122e-10
1.4829923e-08
1.1044086e-10
1.4746967e-08
1.0928916e-10
1.4664438e-08
1.0865966e-10
1.4582827e-08
1.0752485e-10
1.4501607e-08
1.0693522e-10
1.4421297e-08
1.0581778e-10
1.4341342e-08
1.0526679e-10
1.4262293e-08
1.0416781e-10
1.4183561e-08
1.0365411e-10
1.4105728e-08
1.0257533e-10
1.4028176e-08
1.020971e-10
1.3951517e-08
1.0104135e-10
1.3875103e-08
1.0059651e-10
1.3799573e-08
9.9567774e-11
1.3724253e-08
9.9153487e-11
1.3649807e-08
9.815747e-11
1.3575534e-08
9.7770242e-11
1.3502122e-08
9.681489e-11
1.3428849e-08
9.6450108e-11
1.3356418e-08
9.5546294e-11
1.3284093e-08
9.5198036e-11
1.3212582e-08
9.4361044e-11
1.3141148e-08
9.4021521e-11
1.307049e-08
9.3272544e-11
1.299988e-08
9.2931598e-11
1.2929991e-08
9.2300896e-11
1.2860128e-08
9.1945139e-11
1.2790905e-08
9.1476708e-11
1.272169e-08
9.1088771e-11
1.2652996e-08
9.0848855e-11
1.2584299e-08
9.040609e-11
1.2515943e-08
9.0497287e-11
1.2447584e-08
8.996256e-11
1.2379283e-08
9.0550599e-11
1.2311074e-08
8.9753626e-11
9.3647749e-11
8.9439173e-08
2.5348839e-09
-8.9372854e-08
8.9797248e-08
3.4506745e-09
9.0040171e-08
4.2706236e-09
9.0115842e-08
4.6675523e-09
9.0125811e-08
4.8310804e-09
9.0122573e-08
4.9676787e-09
9.0107023e-08
5.1514804e-09
9.0048428e-08
5.369423e-09
8.9922476e-08
5.5665676e-09
8.9717848e-08
5.7051448e-09
8.9430472e-08
5.7695875e-09
8.9058359e-08
5.7534635e-09
8.8597352e-08
5.6535262e-09
8.8046332e-08
5.4690278e-09
8.7410308e-08
5.203985e-09
8.6696866e-08
4.8698062e-09
8.5918959e-08
4.4876771e-09
8.5093701e-08
4.0862854e-09
8.4238984e-08
3.6958993e-09
8.3369582e-08
3.3410639e-09
8.2495694e-08
3.0362286e-09
8.1623058e-08
2.7854119e-09
8.0754363e-08
2.5855543e-09
7.989229e-08
2.4300734e-09
7.9036547e-08
2.3083076e-09
7.8186803e-08
2.2122565e-09
7.7343288e-08
2.1369972e-09
7.6505473e-08
2.0772533e-09
7.5672729e-08
2.0277997e-09
7.4844661e-08
1.9843907e-09
7.4021229e-08
1.9439575e-09
7.3202693e-08
1.9046082e-09
7.2389544e-08
1.8652208e-09
7.158242e-08
1.8252947e-09
7.0782062e-08
1.7846329e-09
6.9989246e-08
1.7433326e-09
6.9204755e-08
1.7015617e-09
6.8429332e-08
1.6596206e-09
6.7663667e-08
1.6177616e-09
6.6908367e-08
1.5762919e-09
6.6163963e-08
1.5354189e-09
6.5430888e-08
1.495379e-09
6.4709498e-08
1.4562957e-09
6.4000059e-08
1.4183234e-09
6.3302763e-08
1.3815102e-09
6.2617727e-08
1.3459385e-09
6.1945013e-08
1.3115925e-09
6.128462e-08
1.278519e-09
6.0636499e-08
1.2466706e-09
6.0000556e-08
1.2160605e-09
5.9376665e-08
1.1866178e-09
5.8764664e-08
1.1583394e-09
5.8164369e-08
1.1311433e-09
5.7575574e-08
1.1050193e-09
5.6998057e-08
1.0798818e-09
5.6431583e-08
1.0557191e-09
5.5875908e-08
1.0324466e-09
5.5330782e-08
1.0100545e-09
5.479595e-08
9.8846231e-10
5.4271155e-08
9.676632e-10
5.375614e-08
9.4758288e-10
5.3250652e-08
9.282178e-10
5.2754435e-08
9.0950023e-10
5.2267244e-08
8.9142974e-10
5.1788829e-08
8.7394524e-10
5.1318956e-08
8.5704846e-10
5.0857386e-08
8.4068485e-10
5.0403895e-08
8.2485699e-10
4.9958255e-08
8.0951699e-10
4.9520258e-08
7.9466696e-10
4.9089685e-08
7.8026542e-10
4.8666342e-08
7.6631304e-10
4.8250023e-08
7.5277482e-10
4.7840548e-08
7.3964861e-10
4.7437721e-08
7.269063e-10
4.7041376e-08
7.1454191e-10
4.6651328e-08
7.0253462e-10
4.6267424e-08
6.9087342e-10
4.5889489e-08
6.7954552e-10
4.5517384e-08
6.6853389e-10
4.515094e-08
6.5783443e-10
4.4790034e-08
6.4742293e-10
4.4434503e-08
6.3730506e-10
4.4084236e-08
6.2744841e-10
4.3739077e-08
6.1786925e-10
4.3398928e-08
6.0852575e-10
4.3063638e-08
5.9944597e-10
4.273312e-08
5.9057738e-10
4.2407227e-08
5.8196104e-10
4.2085885e-08
5.7353235e-10
4.176895e-08
5.6534665e-10
4.145636e-08
5.5732586e-10
4.1147972e-08
5.4954097e-10
4.0843736e-08
5.4189883e-10
4.0543509e-08
5.3448761e-10
4.0247255e-08
5.2719744e-10
3.995483e-08
5.2013523e-10
3.9666208e-08
5.1317259e-10
3.9381246e-08
5.0643698e-10
3.9099929e-08
4.9977955e-10
3.8822112e-08
4.9335009e-10
3.8547792e-08
4.8697734e-10
3.8276821e-08
4.8083545e-10
3.8009209e-08
4.7472854e-10
3.7744803e-08
4.6885721e-10
3.7483627e-08
4.6299873e-10
3.7225521e-08
4.5738248e-10
3.6970523e-08
4.5175634e-10
3.6718468e-08
4.4638093e-10
3.6469406e-08
4.4097225e-10
3.6223166e-08
4.3582467e-10
3.5979811e-08
4.3061959e-10
3.5739163e-08
4.2568789e-10
3.55013e-08
4.206735e-10
3.5266033e-08
4.1594679e-10
3.5033457e-08
4.1111106e-10
3.4803372e-08
4.065793e-10
3.4575889e-08
4.0191094e-10
3.4350797e-08
3.9756495e-10
3.4128224e-08
3.9305343e-10
3.3907945e-08
3.8888481e-10
3.3690109e-08
3.8452019e-10
3.3474473e-08
3.8052125e-10
3.3261207e-08
3.7629421e-10
3.3050053e-08
3.7245792e-10
3.28412e-08
3.6835961e-10
3.2634374e-08
3.6467955e-10
3.2429786e-08
3.6070166e-10
3.2227141e-08
3.5717203e-10
3.2026675e-08
3.5330665e-10
3.1828072e-08
3.4992211e-10
3.1631592e-08
3.4616164e-10
3.1436898e-08
3.4291746e-10
3.1244276e-08
3.392548e-10
3.1053363e-08
3.361467e-10
3.0864475e-08
3.3257489e-10
3.0677222e-08
3.2959886e-10
3.0491951e-08
3.2611139e-10
3.0308242e-08
3.2326426e-10
3.0126475e-08
3.1985471e-10
2.9946198e-08
3.171332e-10
2.9767827e-08
3.1379557e-10
2.9590876e-08
3.111972e-10
2.9415798e-08
3.0792547e-10
2.9242071e-08
3.0544798e-10
2.9070187e-08
3.0223652e-10
2.8899586e-08
2.9987794e-10
2.8730801e-08
2.967212e-10
2.856323e-08
2.9448013e-10
2.8397453e-08
2.913727e-10
2.8232822e-08
2.8924783e-10
2.8069966e-08
2.8618454e-10
2.7908186e-08
2.8417509e-10
2.7748165e-08
2.8115078e-10
2.7589152e-08
2.7925618e-10
2.7431886e-08
2.7626598e-10
2.7275558e-08
2.7448601e-10
2.7120968e-08
2.7152512e-10
2.6967244e-08
2.698599e-10
2.6815253e-08
2.6692371e-10
2.6664058e-08
2.6537357e-10
2.6514592e-08
2.6245773e-10
2.6365848e-08
2.6102338e-10
2.6218836e-08
2.581236e-10
2.6072471e-08
2.5680594e-10
2.5927842e-08
2.5391847e-10
2.5783783e-08
2.5271867e-10
2.5641468e-08
2.4983996e-10
2.5499643e-08
2.4875942e-10
2.5359575e-08
2.4588649e-10
2.5219915e-08
2.449267e-10
2.5082025e-08
2.4205731e-10
2.4944459e-08
2.4122e-10
2.4808682e-08
2.3835264e-10
2.467314e-08
2.3763938e-10
2.4539407e-08
2.3477398e-10
2.4405817e-08
2.3418651e-10
2.427406e-08
2.3132449e-10
2.414235e-08
2.3086408e-10
2.4012498e-08
2.2800933e-10
2.3882591e-08
2.2767698e-10
2.3754569e-08
2.2483663e-10
2.3626387e-08
2.2463248e-10
2.3500115e-08
2.2181815e-10
2.3373572e-08
2.2174136e-10
2.3248961e-08
2.1897163e-10
2.3123963e-08
2.1901958e-10
2.3000913e-08
2.1632275e-10
2.2877354e-08
2.1649055e-10
2.2755745e-08
2.1391013e-10
2.2633501e-08
2.1418948e-10
2.2513184e-08
2.1179289e-10
2.2392102e-08
2.1217108e-10
2.2272885e-08
2.1006611e-10
2.2152769e-08
2.1052233e-10
2.2034375e-08
2.0889079e-10
2.1914977e-08
2.0936067e-10
2.179694e-08
2.0858753e-10
2.1678043e-08
2.0865077e-10
2.1334436e-10
9.3196008e-08
2.5357926e-09
-9.3196917e-08
9.3417614e-08
3.2290681e-09
9.3700205e-08
3.9880324e-09
9.3903354e-08
4.4644039e-09
9.4028786e-08
4.7056484e-09
9.4144732e-08
4.8517326e-09
9.4290435e-08
5.005777e-09
9.4461294e-08
5.1985644e-09
9.4637904e-08
5.3899576e-09
9.4802262e-08
5.5407869e-09
9.4943188e-08
5.6286608e-09
9.5053699e-08
5.6429532e-09
9.5124459e-08
5.5827658e-09
9.514607e-08
5.4474166e-09
9.5111207e-08
5.2388485e-09
9.5014549e-08
4.9664636e-09
9.485552e-08
4.6467068e-09
9.4639118e-08
4.3026868e-09
9.4374805e-08
3.9602127e-09
9.4073456e-08
3.6424126e-09
9.3744877e-08
3.3648082e-09
9.3396192e-08
3.1340967e-09
9.3032409e-08
2.949337e-09
9.265752e-08
2.8049624e-09
9.2272706e-08
2.6931221e-09
9.1878462e-08
2.6065002e-09
9.1475806e-08
2.5396531e-09
9.1065129e-08
2.4879306e-09
9.0646174e-08
2.4467543e-09
9.0218413e-08
2.4121515e-09
8.9781367e-08
2.3810034e-09
8.9334739e-08
2.3512364e-09
8.8878441e-08
2.3215186e-09
8.8412569e-08
2.2911671e-09
8.7937378e-08
2.2598238e-09
8.7453254e-08
2.2274568e-09
8.6960686e-08
2.1941295e-09
8.6460239e-08
2.1600672e-09
8.5952529e-08
2.1254718e-09
8.54382e-08
2.0906213e-09
8.4917906e-08
2.0557127e-09
8.4392302e-08
2.0209825e-09
8.3862029e-08
1.9865686e-09
8.3327712e-08
1.9526403e-09
8.2789951e-08
1.9192712e-09
8.2249325e-08
1.8865646e-09
8.1706379e-08
1.8545387e-09
8.116164e-08
1.8232583e-09
8.0615599e-08
1.7927118e-09
8.0068729e-08
1.7629298e-09
7.9521469e-08
1.7338779e-09
7.8974242e-08
1.7055665e-09
7.8427435e-08
1.6779507e-09
7.7881424e-08
1.6510295e-09
7.733655e-08
1.6247559e-09
7.6793147e-08
1.5991224e-09
7.6251509e-08
1.5740848e-09
7.571193e-08
1.5496327e-09
7.5174665e-08
1.5257282e-09
7.4639969e-08
1.5023589e-09
7.4108056e-08
1.4794954e-09
7.357915e-08
1.4571237e-09
7.3053427e-08
1.4352238e-09
7.2531078e-08
1.413779e-09
7.2012243e-08
1.3927797e-09
7.1497087e-08
1.372205e-09
7.0985716e-08
1.3520557e-09
7.0478268e-08
1.3323051e-09
6.997482e-08
1.3129651e-09
6.9475485e-08
1.2940011e-09
6.8980315e-08
1.2754363e-09
6.8489401e-08
1.2572269e-09
6.8002768e-08
1.2394077e-09
6.7520492e-08
1.221924e-09
6.7042575e-08
1.2048234e-09
6.6569079e-08
1.188038e-09
6.6099984e-08
1.1716298e-09
6.5635341e-08
1.1555161e-09
6.5175113e-08
1.1397743e-09
6.4719341e-08
1.1243055e-09
6.4267971e-08
1.1092043e-09
6.3821041e-08
1.0943531e-09
6.337848e-08
1.0798661e-09
6.2940323e-08
1.0656055e-09
6.2506486e-08
1.0517067e-09
6.2077002e-08
1.0380095e-09
6.1651775e-08
1.0246729e-09
6.123084e-08
1.0115122e-09
6.0814089e-08
9.9871232e-10
6.0401559e-08
9.8606176e-10
5.9993132e-08
9.7377394e-10
5.958885e-08
9.6160787e-10
5.9188583e-08
9.4980825e-10
5.879238e-08
9.3810187e-10
5.84001e-08
9.2676771e-10
5.80118e-08
9.1549725e-10
5.7627328e-08
9.0460688e-10
5.7246751e-08
8.9374955e-10
5.6869906e-08
8.832825e-10
5.6496869e-08
8.7281659e-10
5.6127465e-08
8.6275348e-10
5.5761784e-08
8.5265825e-10
5.5399639e-08
8.4298089e-10
5.5041131e-08
8.3323666e-10
5.468606e-08
8.2392792e-10
5.4334543e-08
8.1451589e-10
5.3986366e-08
8.055598e-10
5.364166e-08
7.9646207e-10
5.3300197e-08
7.8784361e-10
5.2962126e-08
7.790432e-10
5.2627203e-08
7.7074833e-10
5.2295593e-08
7.6222899e-10
5.1967036e-08
7.5424462e-10
5.1641719e-08
7.4599086e-10
5.1319361e-08
7.3830489e-10
5.100017e-08
7.3030192e-10
5.0683846e-08
7.2290306e-10
5.0370621e-08
7.1513671e-10
5.0060171e-08
7.0801451e-10
4.9752753e-08
7.0047127e-10
4.9448022e-08
6.9361611e-10
4.9146259e-08
6.8628296e-10
4.8847094e-08
6.7968595e-10
4.8550838e-08
6.7255048e-10
4.8257093e-08
6.662035e-10
4.7966199e-08
6.5925362e-10
4.7677729e-08
6.5314924e-10
4.7392057e-08
6.463734e-10
4.7108724e-08
6.4050497e-10
4.6828139e-08
6.3389197e-10
4.6549808e-08
6.2825334e-10
4.6274177e-08
6.217922e-10
4.6000716e-08
6.1637807e-10
4.5729913e-08
6.1005836e-10
4.5461196e-08
6.0486399e-10
4.5195095e-08
5.9867521e-10
4.4930998e-08
5.9369626e-10
4.4669481e-08
5.876285e-10
4.4409883e-08
5.8286177e-10
4.4152833e-08
5.7690493e-10
4.3897619e-08
5.723472e-10
4.3644923e-08
5.6649169e-10
4.3393979e-08
5.6214081e-10
4.3145528e-08
5.5637687e-10
4.2898745e-08
5.5223113e-10
4.2654432e-08
5.4654929e-10
4.2411702e-08
5.4260748e-10
4.2171425e-08
5.3699832e-10
4.1932645e-08
5.3326012e-10
4.1696304e-08
5.2771414e-10
4.1461372e-08
5.2417955e-10
4.1228869e-08
5.1868744e-10
4.0997687e-08
5.1535732e-10
4.0768928e-08
5.099096e-10
4.0541399e-08
5.0678532e-10
4.0316292e-08
5.0137265e-10
4.0092322e-08
4.984563e-10
3.9870778e-08
4.9306925e-10
3.9650274e-08
4.9036363e-10
3.9432205e-08
4.8499276e-10
3.9215078e-08
4.8250127e-10
3.9000398e-08
4.7713723e-10
3.8786557e-08
4.7486408e-10
3.8575184e-08
4.6949734e-10
3.8364542e-08
4.6744739e-10
3.8156392e-08
4.6206881e-10
3.7948863e-08
4.6024774e-10
3.7743855e-08
4.5484812e-10
3.7539352e-08
4.532623e-10
3.7337405e-08
4.4783286e-10
3.7135843e-08
4.4648942e-10
3.6936878e-08
4.4102204e-10
3.6738169e-08
4.3992889e-10
3.6542106e-08
4.3441597e-10
3.6346164e-08
4.3358152e-10
3.615292e-08
4.2801713e-10
3.5959656e-08
4.2745067e-10
3.576915e-08
4.2183044e-10
3.5578473e-08
4.2154142e-10
3.5390618e-08
4.1586407e-10
3.5202433e-08
4.1586242e-10
3.5017139e-08
4.1013082e-10
3.4831345e-08
4.104261e-10
3.4648514e-08
4.0464928e-10
3.4465005e-08
4.0525062e-10
3.4284529e-08
3.9944747e-10
3.4103186e-08
4.0036232e-10
3.3924943e-08
3.9456615e-10
3.3745634e-08
3.9579925e-10
3.3569477e-08
3.900668e-10
3.3392049e-08
3.9161752e-10
3.3217798e-08
3.8604423e-10
3.3042067e-08
3.8790198e-10
3.286948e-08
3.8265331e-10
3.2695221e-08
3.8478086e-10
3.2523945e-08
3.8016709e-10
3.2350899e-08
3.8240644e-10
3.2180308e-08
3.7917905e-10
3.2008169e-08
3.8078948e-10
3.8492743e-10
9.711276e-08
2.5412976e-09
-9.7118265e-08
9.7240783e-08
3.1010451e-09
9.7484688e-08
3.7441269e-09
9.7715693e-08
4.2333994e-09
9.7883077e-08
4.5382641e-09
9.8017355e-08
4.7174552e-09
9.8167915e-08
4.8552165e-09
9.8353444e-08
5.0130353e-09
9.8563572e-08
5.17983e-09
9.8782979e-08
5.3213794e-09
9.8999264e-08
5.4123762e-09
9.9203822e-08
5.438395e-09
9.9390096e-08
5.3964914e-09
9.9550888e-08
5.2866249e-09
9.9678289e-08
5.1114473e-09
9.9765487e-08
4.8792661e-09
9.9808595e-08
4.6035987e-09
9.9807928e-08
4.303354e-09
9.9768203e-08
3.9999376e-09
9.9697e-08
3.7136156e-09
9.960237e-08
3.459438e-09
9.9491094e-08
3.245373e-09
9.9368279e-08
3.0721517e-09
9.9237463e-08
2.9357782e-09
9.9100328e-08
2.8302571e-09
9.8957664e-08
2.7491648e-09
9.8810315e-08
2.687002e-09
9.8658796e-08
2.6394492e-09
9.8502962e-08
2.6025888e-09
9.8342164e-08
2.5729495e-09
9.8175549e-08
2.5476179e-09
9.800229e-08
2.5244951e-09
9.7821668e-08
2.5021408e-09
9.7633106e-08
2.479729e-09
9.7436153e-08
2.4567772e-09
9.7230489e-08
2.4331211e-09
9.7015896e-08
2.4087221e-09
9.6792267e-08
2.3836969e-09
9.6559562e-08
2.3581767e-09
9.6317824e-08
2.3323594e-09
9.6067132e-08
2.3064037e-09
9.5807625e-08
2.2804899e-09
9.5539451e-08
2.2547425e-09
9.5262802e-08
2.2292893e-09
9.4977867e-08
2.2042062e-09
9.4684868e-08
2.1795642e-09
9.4384009e-08
2.1553972e-09
9.4075532e-08
2.1317358e-09
9.3759653e-08
2.1085903e-09
9.3436625e-08
2.0859579e-09
9.310667e-08
2.0638327e-09
9.2770049e-08
2.0421883e-09
9.2426986e-08
2.0210136e-09
9.2077749e-08
2.0002668e-09
9.1722564e-08
1.9799401e-09
9.1361706e-08
1.9599809e-09
9.0995401e-08
1.94039e-09
9.0623926e-08
1.9211069e-09
9.0247509e-08
1.9021453e-09
8.9866431e-08
1.8834373e-09
8.9480914e-08
1.8650128e-09
8.9091241e-08
1.8467958e-09
8.8697631e-08
1.8288337e-09
8.8300369e-08
1.8110419e-09
8.7899662e-08
1.7934864e-09
8.7495795e-08
1.7760718e-09
8.7088967e-08
1.7588834e-09
8.667946e-08
1.7418125e-09
8.6267459e-08
1.7249656e-09
8.5853243e-08
1.7082173e-09
8.5436983e-08
1.691696e-09
8.5018953e-08
1.6752578e-09
8.4599306e-08
1.6590541e-09
8.4178311e-08
1.6429191e-09
8.3756105e-08
1.6270294e-09
8.3332948e-08
1.6111947e-09
8.290896e-08
1.5956183e-09
8.2484393e-08
1.5800825e-09
8.2059348e-08
1.56482e-09
8.1634071e-08
1.5495826e-09
8.120864e-08
1.5346352e-09
8.0783297e-08
1.5196957e-09
8.0358099e-08
1.5050641e-09
7.9933283e-08
1.4904217e-09
7.9508883e-08
1.4761067e-09
7.9085132e-08
1.4617602e-09
7.8662043e-08
1.447762e-09
7.8239846e-08
1.4337093e-09
7.7818531e-08
1.4200277e-09
7.7398326e-08
1.4062663e-09
7.6979199e-08
1.3929007e-09
7.6561379e-08
1.3794277e-09
7.6144811e-08
1.366377e-09
7.5729724e-08
1.3531887e-09
7.531604e-08
1.3404517e-09
7.4903993e-08
1.3275441e-09
7.4493481e-08
1.315119e-09
7.4084743e-08
1.3024876e-09
7.3677653e-08
1.2903725e-09
7.3272457e-08
1.2780123e-09
7.2869005e-08
1.266205e-09
7.2467553e-08
1.2541104e-09
7.2067926e-08
1.2426085e-09
7.1670389e-08
1.2307736e-09
7.1274742e-08
1.2195744e-09
7.0881265e-08
1.2079927e-09
7.0489732e-08
1.1970934e-09
7.0100436e-08
1.1857582e-09
6.9713124e-08
1.1751556e-09
6.9328107e-08
1.1640596e-09
6.8945105e-08
1.1537507e-09
6.8564448e-08
1.1428863e-09
6.8185824e-08
1.1328679e-09
6.7809588e-08
1.1222272e-09
6.7435397e-08
1.112496e-09
6.7063628e-08
1.1020708e-09
6.6693907e-08
1.0926238e-09
6.6326638e-08
1.0824055e-09
6.5961413e-08
1.0732397e-09
6.5598665e-08
1.0632196e-09
6.5237949e-08
1.0543321e-09
6.4879731e-08
1.0445012e-09
6.4523527e-08
1.0358894e-09
6.4169839e-08
1.0262386e-09
6.3818142e-08
1.0179002e-09
6.3468976e-08
1.0084201e-09
6.3121772e-08
1.0003529e-09
6.2777112e-08
9.9103397e-10
6.243438e-08
9.8323634e-10
6.2094203e-08
9.7406891e-10
6.1755917e-08
9.6653936e-10
6.1420196e-08
9.575134e-10
6.1086323e-08
9.5025108e-10
6.0755025e-08
9.4135671e-10
6.0425528e-08
9.3436117e-10
6.0098615e-08
9.2558783e-10
5.9773453e-08
9.1885879e-10
5.9450885e-08
9.101963e-10
5.9130012e-08
9.0373465e-10
5.8811745e-08
8.9517198e-10
5.8495114e-08
8.8897846e-10
5.81811e-08
8.8050485e-10
5.786866e-08
8.7458127e-10
5.7558851e-08
8.6618536e-10
5.7250548e-08
8.6053409e-10
5.6944893e-08
8.5220437e-10
5.6640673e-08
8.4682829e-10
5.6339118e-08
8.38553e-10
5.6038922e-08
8.3345605e-10
5.5741413e-08
8.2522289e-10
5.5445183e-08
8.2040948e-10
5.5151665e-08
8.1220603e-10
5.485934e-08
8.0768167e-10
5.4569755e-08
7.9949488e-10
5.4281275e-08
7.9526582e-10
5.3995565e-08
7.8708245e-10
5.3710865e-08
7.8315597e-10
5.3428972e-08
7.749623e-10
5.3147989e-08
7.7134673e-10
5.2869853e-08
7.6312853e-10
5.2592521e-08
7.5983323e-10
5.2318082e-08
7.5157607e-10
5.2044335e-08
7.4861163e-10
5.1773532e-08
7.4030034e-10
5.1503301e-08
7.3767853e-10
5.1236071e-08
7.2929803e-10
5.0969287e-08
7.2703196e-10
5.0705569e-08
7.1856668e-10
5.044216e-08
7.1667074e-10
5.0181888e-08
7.0810511e-10
4.9921782e-08
7.0659516e-10
4.966489e-08
6.9791406e-10
4.9408012e-08
6.9680734e-10
4.9154432e-08
6.8799579e-10
4.8900703e-08
6.8731084e-10
4.8650364e-08
6.7835564e-10
4.8399702e-08
6.7811255e-10
4.8152531e-08
6.6900209e-10
4.790485e-08
6.6922178e-10
4.7660766e-08
6.5994821e-10
4.7415976e-08
6.6065276e-10
4.7174893e-08
6.5121347e-10
4.6932894e-08
6.5242481e-10
4.6694718e-08
6.4282552e-10
4.6455404e-08
6.4456523e-10
4.6220026e-08
6.3482532e-10
4.5983276e-08
6.3711238e-10
4.575057e-08
6.2727211e-10
4.5516249e-08
6.301204e-10
4.5286061e-08
6.2025486e-10
4.5054011e-08
6.2366712e-10
4.4826144e-08
6.1391108e-10
4.4596179e-08
6.1786696e-10
4.4370366e-08
6.0846684e-10
4.414226e-08
6.1288622e-10
4.3918102e-08
6.0432526e-10
4.3691592e-08
6.0891618e-10
4.3468405e-08
6.0236648e-10
4.3243021e-08
6.0617359e-10
6.0831817e-10
1.0116864e-07
2.5421048e-09
-1.0116945e-07
1.0125422e-07
3.0154672e-09
1.0144936e-07
3.548982e-09
1.0166909e-07
4.013676e-09
1.0185861e-07
4.3487454e-09
1.0201234e-07
4.5637208e-09
1.0216203e-07
4.7055235e-09
1.0233542e-07
4.8396506e-09
1.0253575e-07
4.9795013e-09
1.027519e-07
5.1052304e-09
1.0297097e-07
5.1933032e-09
1.031827e-07
5.2266671e-09
1.0338102e-07
5.1981706e-09
1.0356049e-07
5.1071503e-09
1.0371488e-07
4.9570562e-09
1.038387e-07
4.755451e-09
1.0392812e-07
4.5141753e-09
1.0398248e-07
4.2489977e-09
1.040047e-07
3.9777184e-09
1.0400063e-07
3.7176824e-09
1.0397728e-07
3.482788e-09
1.0394119e-07
3.2814643e-09
1.0389737e-07
3.1159708e-09
1.0384917e-07
2.9839787e-09
1.0379864e-07
2.8807906e-09
1.0374694e-07
2.8008633e-09
1.0369492e-07
2.7390189e-09
1.0364322e-07
2.6911466e-09
1.0359199e-07
2.6538251e-09
1.0354086e-07
2.624074e-09
1.0348916e-07
2.5993206e-09
1.034361e-07
2.5775507e-09
1.0338092e-07
2.5573208e-09
1.0332295e-07
2.537703e-09
1.0326157e-07
2.5181522e-09
1.0319631e-07
2.4983904e-09
1.031267e-07
2.4783271e-09
1.0305242e-07
2.4579734e-09
1.0297317e-07
2.4374283e-09
1.0288873e-07
2.4167986e-09
1.027989e-07
2.3962344e-09
1.0270355e-07
2.3758399e-09
1.0260254e-07
2.3557525e-09
1.024958e-07
2.3360333e-09
1.0238322e-07
2.3167872e-09
1.0226476e-07
2.2980236e-09
1.0214034e-07
2.2798184e-09
1.0200994e-07