/*--------------------------------*- C++ -*----------------------------------*\
| =========                 |                                                 |
| \\      /  F ield         | OpenFOAM: The Open Source CFD Toolbox           |
|  \\    /   O peration     | Version:  5.x                                   |
|   \\  /    A nd           | Web:      www.OpenFOAM.org                      |
|    \\/     M anipulation  |                                                 |
\*---------------------------------------------------------------------------*/
FoamFile
{
    version     2.0;
    format      ascii;
    class       volVectorField;
    location    "0.9";
    object      U;
}
// * * * * * * * * * * * * * * * * * * * * * * * * * * * * * * * * * * * * * //

dimensions      [0 1 -1 0 0 0 0];

internalField   nonuniform List<vector> 
21600
(
(0.9429865 0.0081597028 0)
(0.89638601 0.012246748 0)
(0.85191924 0.013937259 0)
(0.80680526 0.01410885 0)
(0.76019574 0.013756361 0)
(0.71227654 0.013399652 0)
(0.66366177 0.013130081 0)
(0.61498846 0.012849555 0)
(0.5667998 0.012440604 0)
(0.5196082 0.011837576 0)
(0.47393944 0.011017197 0)
(0.43040607 0.0099840362 0)
(0.38966932 0.0087441582 0)
(0.35251985 0.0073258819 0)
(0.31955144 0.0057462693 0)
(0.29121775 0.0040880337 0)
(0.26767214 0.0025028586 0)
(0.24870589 0.0011539944 0)
(0.23380383 0.00014837634 0)
(0.22229681 -0.00049768271 0)
(0.21350028 -0.00084248444 0)
(0.20676826 -0.00097222317 0)
(0.20154528 -0.00096268605 0)
(0.19735518 -0.00086251056 0)
(0.19383923 -0.00071208794 0)
(0.19073599 -0.000544952 0)
(0.1878546 -0.00038264201 0)
(0.18506571 -0.00023871349 0)
(0.18229747 -0.00011998966 0)
(0.17951512 -2.7529551e-05 0)
(0.1767137 4.1086316e-05 0)
(0.17390052 8.9775658e-05 0)
(0.17109381 0.00012261163 0)
(0.16831028 0.00014337146 0)
(0.16556927 0.00015521862 0)
(0.16288349 0.00016075947 0)
(0.1602664 0.00016196417 0)
(0.15772391 0.00016035168 0)
(0.15526327 0.00015696461 0)
(0.15288462 0.00015257365 0)
(0.15059078 0.00014764194 0)
(0.14837807 0.0001425142 0)
(0.14624684 0.00013735199 0)
(0.14419133 0.00013229865 0)
(0.14221086 0.00012738514 0)
(0.14029876 0.00012267005 0)
(0.13845423 0.00011812972 0)
(0.13667034 0.00011380345 0)
(0.13494665 0.0001096599 0)
(0.13327625 0.00010573077 0)
(0.1316593 0.00010197787 0)
(0.13008904 9.843012e-05 0)
(0.12856632 9.5045556e-05 0)
(0.12708458 9.1850924e-05 0)
(0.12564537 8.8801165e-05 0)
(0.12424227 8.5922162e-05 0)
(0.12287752 8.3167418e-05 0)
(0.12154475 8.0563452e-05 0)
(0.12024689 7.8063679e-05 0)
(0.11897756 7.5696213e-05 0)
(0.11774029 7.3415117e-05 0)
(0.11652862 7.125046e-05 0)
(0.11534665 6.9157187e-05 0)
(0.11418777 6.7167298e-05 0)
(0.11305665 6.5236636e-05 0)
(0.11194641 6.339899e-05 0)
(0.11086228 6.1610998e-05 0)
(0.1097971 5.990794e-05 0)
(0.10875663 5.8247002e-05 0)
(0.10773334 5.6664581e-05 0)
(0.10673355 5.5118217e-05 0)
(0.10574933 5.3645178e-05 0)
(0.10478756 5.2203261e-05 0)
(0.10383985 5.0830357e-05 0)
(0.10291368 4.9484368e-05 0)
(0.10200015 4.8203568e-05 0)
(0.10110737 4.6945938e-05 0)
(0.1002259 4.5750041e-05 0)
(0.099364482 4.4573984e-05 0)
(0.098513101 4.3456488e-05 0)
(0.097681187 4.2355742e-05 0)
(0.096858087 4.131052e-05 0)
(0.096053969 4.0279237e-05 0)
(0.095257486 3.9300687e-05 0)
(0.094479593 3.8333514e-05 0)
(0.093708193 3.741643e-05 0)
(0.092955079 3.6508372e-05 0)
(0.092207347 3.5647906e-05 0)
(0.091477686 3.4794331e-05 0)
(0.090752317 3.3986023e-05 0)
(0.090044888 3.3182717e-05 0)
(0.089340676 3.2422529e-05 0)
(0.088654355 3.1665674e-05 0)
(0.087970184 3.0949934e-05 0)
(0.087303936 3.023605e-05 0)
(0.086638771 2.9561414e-05 0)
(0.08599164 2.8887361e-05 0)
(0.085344518 2.8250837e-05 0)
(0.084715621 2.7613781e-05 0)
(0.084085645 2.7012623e-05 0)
(0.083474163 2.6409965e-05 0)
(0.082860495 2.5841699e-05 0)
(0.082265671 2.5271111e-05 0)
(0.081667525 2.4733482e-05 0)
(0.081088654 2.4192809e-05 0)
(0.080505292 2.3683752e-05 0)
(0.079941721 2.3171043e-05 0)
(0.079372447 2.2688677e-05 0)
(0.078823568 2.2202127e-05 0)
(0.078267726 2.1744718e-05 0)
(0.077732974 2.1282673e-05 0)
(0.077189944 2.0848631e-05 0)
(0.076668792 2.040956e-05 0)
(0.076137985 1.9997425e-05 0)
(0.075629945 1.957992e-05 0)
(0.0751108 1.9188347e-05 0)
(0.074615418 1.8791096e-05 0)
(0.074107403 1.8418837e-05 0)
(0.073624255 1.8040616e-05 0)
(0.073126859 1.7686528e-05 0)
(0.072655554 1.7326213e-05 0)
(0.072168289 1.698924e-05 0)
(0.071708465 1.6645764e-05 0)
(0.07123086 1.6324937e-05 0)
(0.070782181 1.5997318e-05 0)
(0.070313784 1.5691735e-05 0)
(0.069875942 1.5379043e-05 0)
(0.069416314 1.5087879e-05 0)
(0.068989024 1.4789247e-05 0)
(0.06853774 1.4511757e-05 0)
(0.068120743 1.4226357e-05 0)
(0.06767739 1.3961828e-05 0)
(0.06727045 1.3688885e-05 0)
(0.066834621 1.3436691e-05 0)
(0.066437526 1.3175488e-05 0)
(0.066008825 1.2935049e-05 0)
(0.065621383 1.2684826e-05 0)
(0.065199419 1.2455615e-05 0)
(0.064821463 1.2215778e-05 0)
(0.064405848 1.1997312e-05 0)
(0.064037232 1.1767135e-05 0)
(0.06362758 1.1559019e-05 0)
(0.063268181 1.1337912e-05 0)
(0.062864108 1.1139738e-05 0)
(0.062513824 1.0927085e-05 0)
(0.062114944 1.0738559e-05 0)
(0.061773697 1.0533726e-05 0)
(0.061379622 1.0354567e-05 0)
(0.061047356 1.0157e-05 0)
(0.060657691 9.9869814e-06 0)
(0.060334375 9.79605e-06 0)
(0.059948718 9.6350182e-06 0)
(0.059634346 9.4501468e-06 0)
(0.059252285 9.2979703e-06 0)
(0.058946875 9.1185405e-06 0)
(0.058567989 8.9751801e-06 0)
(0.058271586 8.8005698e-06 0)
(0.057895437 8.6660261e-06 0)
(0.057608116 8.4956029e-06 0)
(0.057234247 8.3699546e-06 0)
(0.056956112 8.2030268e-06 0)
(0.056584049 8.0864342e-06 0)
(0.056315236 7.9223094e-06 0)
(0.055944478 7.8149891e-06 0)
(0.055685156 7.652894e-06 0)
(0.055315175 7.5551958e-06 0)
(0.055065552 7.3943168e-06 0)
(0.054695787 7.3066641e-06 0)
(0.054456109 7.1461192e-06 0)
(0.054085962 7.0690775e-06 0)
(0.053856518 6.9078595e-06 0)
(0.053485347 6.8421463e-06 0)
(0.053266473 6.6791898e-06 0)
(0.052893586 6.6256756e-06 0)
(0.052685668 6.4597205e-06 0)
(0.052310316 6.4195098e-06 0)
(0.052113794 6.2491865e-06 0)
(0.051735162 6.2236182e-06 0)
(0.051550538 6.047306e-06 0)
(0.051167732 6.0380428e-06 0)
(0.050995571 5.8538929e-06 0)
(0.050607608 5.8630096e-06 0)
(0.050448545 5.6688376e-06 0)
(0.050054336 5.6988933e-06 0)
(0.049909084 5.4921045e-06 0)
(0.049507414 5.5463874e-06 0)
(0.049376764 5.323845e-06 0)
(0.048966263 5.4065463e-06 0)
(0.048851093 5.1643946e-06 0)
(0.048430203 5.2810925e-06 0)
(0.048331477 5.01445e-06 0)
(0.047898391 5.1727676e-06 0)
(0.047817164 4.8752338e-06 0)
(0.047369728 5.0862098e-06 0)
(0.047307159 4.7486923e-06 0)
(0.046842671 5.0296786e-06 0)
(0.046800144 4.6352791e-06 0)
(0.04631481 5.0160823e-06 0)
(0.046295092 4.5317113e-06 0)
(0.045779417 5.4107793e-06 0)
(0.97309554 0.015504522 0)
(0.97190765 0.02270344 0)
(0.97050143 0.026284683 0)
(0.96750096 0.027305366 0)
(0.961899 0.027316978 0)
(0.95340647 0.027256074 0)
(0.94220565 0.027363578 0)
(0.92864224 0.02751897 0)
(0.91301588 0.027534238 0)
(0.89560446 0.027288865 0)
(0.87663146 0.026720584 0)
(0.85636509 0.02580498 0)
(0.83507956 0.024521406 0)
(0.8131657 0.02286614 0)
(0.79097694 0.020847428 0)
(0.76890795 0.018529309 0)
(0.74732858 0.016043433 0)
(0.72651224 0.013558646 0)
(0.70664388 0.011238728 0)
(0.68780841 0.0091986429 0)
(0.67005488 0.0074907519 0)
(0.6533661 0.0061114677 0)
(0.63771849 0.0050291817 0)
(0.62302883 0.0041987555 0)
(0.60921533 0.0035783984 0)
(0.59619688 0.0031320261 0)
(0.58388706 0.0028215542 0)
(0.57219512 0.0026087815 0)
(0.56105242 0.0024598469 0)
(0.55039541 0.002348859 0)
(0.54018382 0.0022580464 0)
(0.53037741 0.0021765418 0)
(0.520955 0.0020981331 0)
(0.51188971 0.0020198996 0)
(0.50317052 0.0019407117 0)
(0.49477645 0.0018607197 0)
(0.48670093 0.0017804992 0)
(0.4789246 0.0017010196 0)
(0.4714424 0.0016231018 0)
(0.46423466 0.0015476236 0)
(0.45729683 0.001475123 0)
(0.45060846 0.0014061228 0)
(0.44416553 0.0013407952 0)
(0.43794705 0.001279339 0)
(0.43194993 0.0012216546 0)
(0.42615304 0.0011677351 0)
(0.42055475 0.0011173222 0)
(0.41513411 0.0010703084 0)
(0.40989123 0.0010263721 0)
(0.40480551 0.00098537365 0)
(0.39987898 0.00094698019 0)
(0.39509143 0.00091106498 0)
(0.3904469 0.00087731623 0)
(0.38592551 0.0008456381 0)
(0.38153329 0.000815749 0)
(0.37725051 0.00078758723 0)
(0.37308516 0.00076090196 0)
(0.36901747 0.00073566375 0)
(0.3650573 0.0007116499 0)
(0.36118464 0.00068885913 0)
(0.35741116 0.00066709288 0)
(0.35371639 0.00064637326 0)
(0.35011373 0.00062652156 0)
(0.3465821 0.00060757842 0)
(0.34313658 0.00058938076 0)
(0.33975526 0.00057198311 0)
(0.33645493 0.00055523438 0)
(0.33321267 0.00053919912 0)
(0.33004698 0.00052373556 0)
(0.3269338 0.00050891524 0)
(0.32389337 0.00049460361 0)
(0.32090033 0.00048087659 0)
(0.31797671 0.00046760534 0)
(0.31509574 0.00045486836 0)
(0.31228131 0.00044254178 0)
(0.30950508 0.00043070537 0)
(0.3067929 0.00041923978 0)
(0.30411471 0.00040822479 0)
(0.30149846 0.00039754543 0)
(0.29891221 0.00038728073 0)
(0.29638609 0.00037732031 0)
(0.29388617 0.00036774168 0)
(0.2914449 0.00035843929 0)
(0.28902616 0.00034948859 0)
(0.2866649 0.00034078908 0)
(0.28432261 0.00033241352 0)
(0.2820369 0.00032426694 0)
(0.27976673 0.00031641885 0)
(0.27755249 0.00030878013 0)
(0.2753504 0.00030141639 0)
(0.27320389 0.00029424478 0)
(0.2710662 0.00028732643 0)
(0.26898396 0.00028058517 0)
(0.26690724 0.00027407707 0)
(0.2648861 0.0002677331 0)
(0.26286717 0.0002616036 0)
(0.2609042 0.00025562705 0)
(0.2589401 0.00024984748 0)
(0.25703259 0.00024421137 0)
(0.25512058 0.00023875584 0)
(0.25326603 0.00023343581 0)
(0.25140354 0.00022828081 0)
(0.24959962 0.00022325466 0)
(0.24778424 0.00021837882 0)
(0.2460288 0.00021362647 0)
(0.24425827 0.0002090103 0)
(0.24254931 0.00020451336 0)
(0.24082151 0.00020013903 0)
(0.23915717 0.00019588071 0)
(0.23747009 0.00019173191 0)
(0.23584866 0.00018769684 0)
(0.23420041 0.00018375856 0)
(0.23262027 0.00017993261 0)
(0.23100906 0.00017619106 0)
(0.22946873 0.00017256126 0)
(0.22789284 0.00016900375 0)
(0.22639093 0.00016555813 0)
(0.22484875 0.00016217294 0)
(0.22338398 0.00015890048 0)
(0.22187395 0.00015567678 0)
(0.22044513 0.00015256731 0)
(0.21896576 0.0001494951 0)
(0.21757179 0.00014653917 0)
(0.21612166 0.00014360919 0)
(0.21476153 0.00014079808 0)
(0.21333925 0.00013800173 0)
(0.21201202 0.00013532733 0)
(0.21061627 0.00013265665 0)
(0.20932107 0.00013011146 0)
(0.20795056 0.00012755909 0)
(0.20668662 0.00012513607 0)
(0.20534009 0.0001226951 0)
(0.20410669 0.00012038775 0)
(0.20278291 0.00011805183 0)
(0.20157942 0.0001158541 0)
(0.20027719 0.0001136173 0)
(0.19910302 0.00011152334 0)
(0.19782115 0.00010938015 0)
(0.1966758 0.00010738487 0)
(0.19541312 0.00010533013 0)
(0.19429616 0.00010342827 0)
(0.19305149 0.00010145734 0)
(0.19196255 9.9644309e-05 0)
(0.19073474 9.7752656e-05 0)
(0.18967352 9.6024001e-05 0)
(0.1884614 9.4207644e-05 0)
(0.18742765 9.2559061e-05 0)
(0.18623004 9.0814219e-05 0)
(0.18522362 8.9241823e-05 0)
(0.18403933 8.7565021e-05 0)
(0.18306015 8.6064898e-05 0)
(0.18188796 8.4453022e-05 0)
(0.18093599 8.3021582e-05 0)
(0.17977467 8.1471707e-05 0)
(0.17884999 8.0105402e-05 0)
(0.17769824 7.8615e-05 0)
(0.176801 7.7310428e-05 0)
(0.17565751 7.5877195e-05 0)
(0.17478794 7.463107e-05 0)
(0.17365134 7.3253032e-05 0)
(0.17280975 7.2062042e-05 0)
(0.17167861 7.0737567e-05 0)
(0.17086544 6.9598525e-05 0)
(0.16973823 6.8326229e-05 0)
(0.16895401 6.7235861e-05 0)
(0.16782915 6.6014851e-05 0)
(0.16707451 6.4969886e-05 0)
(0.16595031 6.3799567e-05 0)
(0.16522602 6.2796663e-05 0)
(0.16410068 6.1676949e-05 0)
(0.16340762 6.0712534e-05 0)
(0.16227922 5.9643896e-05 0)
(0.16161843 5.8714337e-05 0)
(0.16048489 5.7697785e-05 0)
(0.15985757 5.6799019e-05 0)
(0.15871664 5.5836411e-05 0)
(0.15812414 5.4964175e-05 0)
(0.15697338 5.4058202e-05 0)
(0.15641725 5.3207627e-05 0)
(0.155254 5.236216e-05 0)
(0.15473598 5.1527852e-05 0)
(0.15355731 5.0748247e-05 0)
(0.15307938 4.9923956e-05 0)
(0.15188206 4.9217395e-05 0)
(0.15144642 4.8395862e-05 0)
(0.15022685 4.7772237e-05 0)
(0.14983597 4.6944819e-05 0)
(0.14859014 4.6417485e-05 0)
(0.14824675 4.5573768e-05 0)
(0.14697009 4.5161356e-05 0)
(0.14667724 4.42885e-05 0)
(0.14536454 4.4017464e-05 0)
(0.14512556 4.3099429e-05 0)
(0.14377067 4.3008911e-05 0)
(0.14358927 4.202486e-05 0)
(0.14218467 4.2174349e-05 0)
(0.14206518 4.1094235e-05 0)
(0.14060077 4.1561577e-05 0)
(0.14054986 4.0333859e-05 0)
(0.13900979 4.2867366e-05 0)
(0.97642554 0.015438764 0)
(0.97678578 0.020971026 0)
(0.97866609 0.024704458 0)
(0.98123293 0.026460755 0)
(0.98348896 0.02713321 0)
(0.98486286 0.027563179 0)
(0.98520763 0.028127915 0)
(0.98461324 0.028808077 0)
(0.98320034 0.029430649 0)
(0.98103262 0.029833628 0)
(0.97810114 0.029910879 0)
(0.97435742 0.029596023 0)
(0.96974853 0.028849906 0)
(0.96424087 0.027653582 0)
(0.95784436 0.026031059 0)
(0.95060661 0.024053679 0)
(0.94263821 0.021845437 0)
(0.9340589 0.019562416 0)
(0.92502089 0.017363479 0)
(0.915654 0.015371552 0)
(0.9061022 0.013656155 0)
(0.89646518 0.012231259 0)
(0.88684291 0.011075316 0)
(0.87727659 0.010146445 0)
(0.86780341 0.0094029419 0)
(0.85843146 0.0088106823 0)
(0.84916026 0.0083365268 0)
(0.83996594 0.0079487052 0)
(0.83084378 0.0076190322 0)
(0.82177498 0.0073256591 0)
(0.81276484 0.0070532281 0)
(0.80380269 0.0067923962 0)
(0.79490212 0.0065378501 0)
(0.78605746 0.0062873251 0)
(0.77728744 0.0060400536 0)
(0.76858832 0.0057964998 0)
(0.75998117 0.0055573961 0)
(0.75146156 0.0053239192 0)
(0.743051 0.0050969997 0)
(0.73474277 0.0048777037 0)
(0.72655778 0.0046666623 0)
(0.71848634 0.0044645588 0)
(0.71054852 0.0042716124 0)
(0.70273151 0.0040881178 0)
(0.69505472 0.0039139449 0)
(0.68750238 0.0037491019 0)
(0.68009362 0.0035932341 0)
(0.67280996 0.0034461704 0)
(0.66567061 0.003307399 0)
(0.6586546 0.0031766344 0)
(0.65178162 0.0030532895 0)
(0.64502842 0.0029370422 0)
(0.63841556 0.0028272964 0)
(0.63191763 0.0027237426 0)
(0.62555638 0.0026258128 0)
(0.61930435 0.0025332354 0)
(0.61318475 0.0024454887 0)
(0.60716814 0.0023623502 0)
(0.60127941 0.0022833522 0)
(0.59548713 0.0022083236 0)
(0.58981814 0.0021368505 0)
(0.58423896 0.0020688094 0)
(0.57877854 0.002003837 0)
(0.57340133 0.0019418506 0)
(0.56813857 0.0018825315 0)
(0.56295249 0.0018258302 0)
(0.55787684 0.0017714662 0)
(0.55287151 0.001719415 0)
(0.5479729 0.0016694286 0)
(0.54313844 0.0016215001 0)
(0.53840735 0.0015754094 0)
(0.5337344 0.0015311613 0)
(0.52916186 0.0014885596 0)
(0.52464164 0.0014476156 0)
(0.52021924 0.0014081545 0)
(0.51584352 0.0013701898 0)
(0.51156339 0.0013335671 0)
(0.50732446 0.0012982987 0)
(0.50317927 0.0012642496 0)
(0.49906993 0.0012314279 0)
(0.49505284 0.0011997179 0)
(0.49106635 0.0011691212 0)
(0.487171 0.0011395418 0)
(0.48330109 0.0011109726 0)
(0.47952153 0.0010833378 0)
(0.47576233 0.0010566194 0)
(0.47209306 0.0010307627 0)
(0.46843907 0.0010057368 0)
(0.46487494 0.00098150918 0)
(0.46132103 0.0009580342 0)
(0.45785726 0.00093530255 0)
(0.45439861 0.00091325154 0)
(0.45103072 0.00089189627 0)
(0.44766282 0.00087115512 0)
(0.44438666 0.00085106889 0)
(0.44110527 0.00083153505 0)
(0.43791694 0.00081262147 0)
(0.43471806 0.00079420256 0)
(0.43161394 0.00077637458 0)
(0.42849382 0.00075898693 0)
(0.42547051 0.00074216602 0)
(0.42242559 0.00072573409 0)
(0.41947993 0.00070984911 0)
(0.41650685 0.00069430402 0)
(0.41363587 0.00067929031 0)
(0.41073146 0.00066456954 0)
(0.4079324 0.00065036833 0)
(0.40509364 0.00063641463 0)
(0.4023639 0.00062297218 0)
(0.39958791 0.00060973324 0)
(0.39692508 0.00059700053 0)
(0.39420914 0.00058442831 0)
(0.39161097 0.00057236033 0)
(0.38895246 0.00056041066 0)
(0.38641683 0.00054896618 0)
(0.38381325 0.00053759843 0)
(0.3813382 0.0005267395 0)
(0.37878716 0.00051591614 0)
(0.37637087 0.00050560787 0)
(0.37387007 0.00049529429 0)
(0.37151083 0.00048550457 0)
(0.36905803 0.00047566871 0)
(0.36675428 0.00046636783 0)
(0.36434735 0.00045698 0)
(0.36209762 0.00044814057 0)
(0.35973447 0.00043917317 0)
(0.35753742 0.00043076983 0)
(0.35521604 0.00042219727 0)
(0.35307044 0.00041420658 0)
(0.35078884 0.00040600503 0)
(0.34869358 0.00039840516 0)
(0.34644983 0.00039055236 0)
(0.34440387 0.00038332319 0)
(0.34219608 0.00037579846 0)
(0.34019852 0.00036892127 0)
(0.3380248 0.00036170521 0)
(0.33607485 0.00035516235 0)
(0.33393335 0.00034823693 0)
(0.33203028 0.00034201255 0)
(0.32991915 0.00033536072 0)
(0.32806238 0.00032943934 0)
(0.32597979 0.0003230454 0)
(0.3241688 0.00031741314 0)
(0.32211289 0.00031126207 0)
(0.32034731 0.00030590579 0)
(0.31831623 0.00029998378 0)
(0.31659577 0.00029489109 0)
(0.31458763 0.00028918506 0)
(0.31291212 0.00028434469 0)
(0.310925 0.00027884236 0)
(0.30929439 0.00027424342 0)
(0.30732634 0.00026893341 0)
(0.3057407 0.00026456595 0)
(0.3037897 0.00025943744 0)
(0.30224921 0.00025529201 0)
(0.30031319 0.00025033505 0)
(0.29881819 0.00024640279 0)
(0.29689499 0.00024160805 0)
(0.29544594 0.00023788065 0)
(0.29353333 0.00023323948 0)
(0.29213085 0.000229709 0)
(0.29022647 0.00022521351 0)
(0.28887133 0.00022187252 0)
(0.28697272 0.00021751536 0)
(0.28566587 0.00021435668 0)
(0.28377041 0.00021013144 0)
(0.28251298 0.00020714824 0)
(0.2806179 0.00020304913 0)
(0.27941124 0.0002002348 0)
(0.27751357 0.00019625697 0)
(0.27635922 0.00019360495 0)
(0.2744558 0.00018974461 0)
(0.27335555 0.00018724853 0)
(0.27144296 0.00018350285 0)
(0.27039887 0.0001811561 0)
(0.26847342 0.00017752386 0)
(0.2674878 0.00017531987 0)
(0.26554548 0.00017180134 0)
(0.26462098 0.000169733 0)
(0.26265741 0.00016633069 0)
(0.26179702 0.00016439049 0)
(0.25980741 0.00016110971 0)
(0.25901445 0.00015928921 0)
(0.25699353 0.00015613883 0)
(0.25627175 0.00015442858 0)
(0.25421366 0.00015142273 0)
(0.25356725 0.00014981168 0)
(0.25146548 0.00014697146 0)
(0.25089905 0.00014544664 0)
(0.2487463 0.00014280372 0)
(0.24826496 0.00014134958 0)
(0.24605292 0.00013895152 0)
(0.24566228 0.00013754995 0)
(0.2433814 0.00013546961 0)
(0.24308752 0.00013410088 0)
(0.24072649 0.00013244895 0)
(0.24053592 0.00013109066 0)
(0.238081 0.00013005408 0)
(0.23800042 0.00012848613 0)
(0.23543803 0.00013171794 0)
(0.97900809 0.014899952 0)
(0.97914537 0.018982965 0)
(0.98051375 0.022343254 0)
(0.98283993 0.024441599 0)
(0.98552545 0.025552071 0)
(0.98803473 0.026232191 0)
(0.99015244 0.026881429 0)
(0.99191053 0.027610397 0)
(0.9934525 0.028330852 0)
(0.99487768 0.028893433 0)
(0.99621221 0.029171244 0)
(0.9973895 0.029079285 0)
(0.99831174 0.028571866 0)
(0.99884649 0.027637531 0)
(0.99888926 0.026307143 0)
(0.99834404 0.024652176 0)
(0.99717555 0.022780021 0)
(0.99537076 0.020822216 0)
(0.99298191 0.018911584 0)
(0.99007327 0.017158444 0)
(0.9867558 0.015630939 0)
(0.98312122 0.014354131 0)
(0.97927662 0.013316748 0)
(0.97528171 0.012489419 0)
(0.97119837 0.011833825 0)
(0.96703915 0.011311763 0)
(0.96282499 0.010890346 0)
(0.95853605 0.010542116 0)
(0.9541794 0.010243933 0)
(0.94972984 0.0099776539 0)
(0.9451969 0.0097296433 0)
(0.94055753 0.0094909205 0)
(0.93582687 0.0092557428 0)
(0.93098507 0.0090212354 0)
(0.92605313 0.0087859904 0)
(0.92101374 0.0085500179 0)
(0.9158927 0.008313714 0)
(0.91067369 0.0080781282 0)
(0.9053859 0.0078441656 0)
(0.9000125 0.0076130248 0)
(0.89458501 0.0073855267 0)
(0.88908505 0.0071626448 0)
(0.88354586 0.0069449059 0)
(0.87794692 0.0067329656 0)
(0.87232296 0.0065270478 0)
(0.86665097 0.006327533 0)
(0.86096719 0.0061344206 0)
(0.85524593 0.0059478915 0)
(0.84952498 0.0057677712 0)
(0.84377585 0.0055940915 0)
(0.83803806 0.0054265714 0)
(0.8322802 0.0052651592 0)
(0.82654369 0.0051095267 0)
(0.82079411 0.0049595841 0)
(0.81507497 0.0048149928 0)
(0.8093487 0.0046756502 0)
(0.8036611 0.0045412287 0)
(0.79797132 0.004411627 0)
(0.79232766 0.0042865402 0)
(0.78668583 0.0041658744 0)
(0.78109685 0.0040493538 0)
(0.77551283 0.0039368924 0)
(0.76998771 0.0038282453 0)
(0.76446984 0.0037233324 0)
(0.75901633 0.0036219397 0)
(0.75357157 0.0035239894 0)
(0.74819608 0.0034292976 0)
(0.74283007 0.0033377844 0)
(0.73753777 0.0032492954 0)
(0.73225499 0.0031637438 0)
(0.72704991 0.0030810041 0)
(0.72185375 0.003000979 0)
(0.71673895 0.0029235725 0)
(0.71163184 0.0028486729 0)
(0.70660946 0.0027762141 0)
(0.70159298 0.002706067 0)
(0.69666439 0.002638197 0)
(0.6917394 0.0025724545 0)
(0.68690531 0.0025088385 0)
(0.68207204 0.0024471765 0)
(0.67733259 0.002387503 0)
(0.67259074 0.0023296193 0)
(0.66794559 0.0022735983 0)
(0.66329444 0.0022192125 0)
(0.6587429 0.0021665752 0)
(0.65418134 0.002115427 0)
(0.64972241 0.0020659247 0)
(0.64524909 0.0020177737 0)
(0.64088151 0.001971177 0)
(0.63649483 0.001925802 0)
(0.63221719 0.0018819008 0)
(0.62791538 0.0018390988 0)
(0.62372614 0.0017977004 0)
(0.6195073 0.0017572856 0)
(0.61540481 0.0017182138 0)
(0.61126695 0.0016800157 0)
(0.60724951 0.0016431093 0)
(0.60319058 0.001606972 0)
(0.59925647 0.0015720837 0)
(0.59527436 0.0015378643 0)
(0.59142183 0.001504859 0)
(0.58751441 0.0014724264 0)
(0.58374174 0.0014411806 0)
(0.57990687 0.0014104145 0)
(0.57621236 0.0013808149 0)
(0.57244788 0.0013516044 0)
(0.56882986 0.0013235469 0)
(0.56513364 0.0012957901 0)
(0.56159048 0.0012691791 0)
(0.55796039 0.0012427819 0)
(0.55449052 0.0012175293 0)
(0.55092442 0.0011924047 0)
(0.54752633 0.0011684294 0)
(0.54402213 0.0011444971 0)
(0.54069436 0.0011217241 0)
(0.53724998 0.0010989095 0)
(0.53399114 0.0010772697 0)
(0.5306045 0.0010555036 0)
(0.52741328 0.0010349329 0)
(0.52408233 0.0010141512 0)
(0.52095749 0.00099459064 0)
(0.5176802 0.00097473335 0)
(0.51462056 0.00095612817 0)
(0.5113949 0.00093713975 0)
(0.50839939 0.00091943916 0)
(0.50522332 0.0009012676 0)
(0.50229094 0.00088442453 0)
(0.49916247 0.00086702137 0)
(0.49629228 0.00085099223 0)
(0.4932094 0.00083431211 0)
(0.49040058 0.0008190562 0)
(0.48736127 0.0008030565 0)
(0.48461308 0.00078853631 0)
(0.4816153 0.00077317731 0)
(0.4789271 0.00075935782 0)
(0.47596883 0.00074460188 0)
(0.47334005 0.00073145027 0)
(0.47041924 0.00071726236 0)
(0.46784944 0.00070474884 0)
(0.464964 0.00069109558 0)
(0.46245283 0.00067919149 0)
(0.45960064 0.00066604184 0)
(0.45714786 0.00065472127 0)
(0.45432678 0.00064204548 0)
(0.45193227 0.00063128406 0)
(0.44914008 0.00061905438 0)
(0.44680385 0.00060882933 0)
(0.44403828 0.00059701939 0)
(0.44176044 0.00058730992 0)
(0.43901916 0.00057589465 0)
(0.43679999 0.00056668106 0)
(0.43408057 0.00055563692 0)
(0.43192048 0.00054690124 0)
(0.42922042 0.00053620565 0)
(0.42711995 0.00052793105 0)
(0.42443663 0.00051756285 0)
(0.42239652 0.00050973383 0)
(0.41972719 0.00049967281 0)
(0.41774834 0.00049227506 0)
(0.41509011 0.00048250214 0)
(0.41317362 0.00047552234 0)
(0.41052345 0.00046601955 0)
(0.40867062 0.00045944554 0)
(0.40602529 0.00045019571 0)
(0.40423763 0.00044401619 0)
(0.40159371 0.00043500356 0)
(0.39987299 0.00042920818 0)
(0.39722682 0.00042041781 0)
(0.39557508 0.00041499702 0)
(0.39292273 0.00040641533 0)
(0.39134228 0.00040136023 0)
(0.38867954 0.00039297508 0)
(0.38717301 0.00038827753 0)
(0.38449533 0.00038007809 0)
(0.38306571 0.00037573024 0)
(0.38036816 0.00036770798 0)
(0.37901879 0.00036370261 0)
(0.37629601 0.00035585104 0)
(0.37503066 0.00035218084 0)
(0.37227681 0.00034449677 0)
(0.3710997 0.00034115459 0)
(0.36830837 0.00033363881 0)
(0.36722419 0.00033061689 0)
(0.36438837 0.00032327563 0)
(0.36340235 0.00032056561 0)
(0.36051428 0.00031341314 0)
(0.3596322 0.00031100523 0)
(0.3566833 0.00030406683 0)
(0.35591152 0.00030194928 0)
(0.35289224 0.00029526729 0)
(0.3522377 0.00029342539 0)
(0.34913737 0.00028706867 0)
(0.34860751 0.00028548413 0)
(0.34541413 0.00027956584 0)
(0.34501671 0.00027821375 0)
(0.34171678 0.00027292945 0)
(0.34145919 0.00027173287 0)
(0.33803812 0.00026756704 0)
(0.33792488 0.0002659143 0)
(0.3343722 0.00026797488 0)
(0.98107457 0.014582529 0)
(0.98114971 0.017838793 0)
(0.98215256 0.020812872 0)
(0.98399389 0.023052678 0)
(0.98634174 0.024476693 0)
(0.98876624 0.025363852 0)
(0.99101209 0.026044343 0)
(0.99302557 0.026700638 0)
(0.99491322 0.027334569 0)
(0.99678078 0.027843341 0)
(0.99870277 0.028107123 0)
(1.0006556 0.028037753 0)
(1.0025836 0.02758995 0)
(1.0043725 0.026759295 0)
(1.0059302 0.025579858 0)
(1.0071457 0.024119055 0)
(1.0079637 0.022470024 0)
(1.0083291 0.020742425 0)
(1.0082585 0.019046321 0)
(1.0077695 0.017475955 0)
(1.0069465 0.01609429 0)
(1.0058506 0.014929574 0)
(1.0045841 0.01397866 0)
(1.0031945 0.013219231 0)
(1.0017542 0.012618303 0)
(1.0002684 0.012141003 0)
(0.99877208 0.011756789 0)
(0.99723905 0.011441278 0)
(0.99568824 0.011174575 0)
(0.99408278 0.010940956 0)
(0.99244052 0.010727922 0)
(0.9907224 0.01052658 0)
(0.9889498 0.010330671 0)
(0.98708397 0.010136574 0)
(0.98515153 0.0099421383 0)
(0.9831146 0.0097467079 0)
(0.98100518 0.0095501429 0)
(0.97878563 0.009353041 0)
(0.97649266 0.0091559826 0)
(0.97408785 0.0089598862 0)
(0.97161192 0.0087654058 0)
(0.9690248 0.0085733534 0)
(0.96637077 0.0083841995 0)
(0.96360747 0.0081985131 0)
(0.96078256 0.0080165352 0)
(0.95785095 0.0078385998 0)
(0.95486365 0.0076647571 0)
(0.95177252 0.0074951571 0)
(0.94863197 0.0073297234 0)
(0.94539059 0.0071684801 0)
(0.94210635 0.0070112797 0)
(0.9387243 0.0068580697 0)
(0.93530617 0.0067086781 0)
(0.93179324 0.0065630108 0)
(0.92825121 0.0064209023 0)
(0.92461737 0.0062822368 0)
(0.92096158 0.006146874 0)
(0.9172169 0.0060146866 0)
(0.91345759 0.00588557 0)
(0.90961219 0.0057593892 0)
(0.90575965 0.0056360819 0)
(0.90182369 0.0055155046 0)
(0.89788818 0.0053976391 0)
(0.89387174 0.0052823293 0)
(0.88986342 0.0051696018 0)
(0.88577644 0.0050592825 0)
(0.88170532 0.0049514425 0)
(0.87755749 0.0048458838 0)
(0.87343331 0.0047427219 0)
(0.86923405 0.0046417287 0)
(0.86506622 0.0045430639 0)
(0.86082456 0.0044464634 0)
(0.85662211 0.0043521325 0)
(0.85234666 0.0042597658 0)
(0.84811815 0.0041696161 0)
(0.84381704 0.0040813314 0)
(0.83957058 0.0039952145 0)
(0.83525139 0.0039108622 0)
(0.83099456 0.003828631 0)
(0.82666438 0.0037480623 0)
(0.82240423 0.0036695703 0)
(0.81806957 0.0035926366 0)
(0.81381261 0.003517737 0)
(0.80947945 0.0034442889 0)
(0.80523168 0.0033728347 0)
(0.80090543 0.0033027231 0)
(0.79667231 0.0032345681 0)
(0.79235786 0.0031676451 0)
(0.78814437 0.0031026449 0)
(0.78384611 0.0030387646 0)
(0.77965672 0.0029767774 0)
(0.77537853 0.002915797 0)
(0.7712173 0.0028566847 0)
(0.7669626 0.0027984654 0)
(0.76283313 0.0027420941 0)
(0.75860491 0.0026865012 0)
(0.75451042 0.0026327418 0)
(0.75031125 0.0025796453 0)
(0.7462546 0.0025283734 0)
(0.74208669 0.0024776484 0)
(0.7380704 0.0024287448 0)
(0.73393557 0.002380271 0)
(0.72996187 0.0023336216 0)
(0.72586166 0.0022872842 0)
(0.7219325 0.0022427805 0)
(0.71786811 0.0021984695 0)
(0.7139852 0.0021560077 0)
(0.70995759 0.0021136184 0)
(0.70612242 0.0020731002 0)
(0.70213229 0.0020325327 0)
(0.69834617 0.0019938648 0)
(0.69439398 0.0019550239 0)
(0.69065805 0.0019181181 0)
(0.68674406 0.0018809136 0)
(0.68305932 0.0018456864 0)
(0.67918359 0.0018100325 0)
(0.67555091 0.0017764048 0)
(0.67171334 0.0017422197 0)
(0.66813351 0.0017101169 0)
(0.66433381 0.0016773233 0)
(0.66080752 0.0016466751 0)
(0.65704528 0.0016151994 0)
(0.65357314 0.0015859397 0)
(0.64984779 0.0015557121 0)
(0.64643039 0.0015277784 0)
(0.64274122 0.0014987328 0)
(0.6393791 0.0014720664 0)
(0.63572529 0.0014441399 0)
(0.63241897 0.0014186859 0)
(0.62879957 0.0013918188 0)
(0.62554956 0.0013675251 0)
(0.6219635 0.0013416605 0)
(0.61877031 0.0013184787 0)
(0.61521641 0.001293563 0)
(0.61208057 0.0012714476 0)
(0.60855754 0.0012474289 0)
(0.60547962 0.0012263367 0)
(0.60198604 0.0012031665 0)
(0.59896663 0.0011830582 0)
(0.59550099 0.0011606895 0)
(0.59254074 0.0011415269 0)
(0.58910139 0.0011199155 0)
(0.58620102 0.001101664 0)
(0.5827862 0.001080767 0)
(0.5799465 0.001063394 0)
(0.57655432 0.0010431708 0)
(0.57377616 0.0010266456 0)
(0.5704046 0.0010070573 0)
(0.56768897 0.00099135193 0)
(0.56433586 0.00097236112 0)
(0.56168385 0.00095744911 0)
(0.55834687 0.00093902008 0)
(0.55575971 0.00092487736 0)
(0.55243639 0.00090697551 0)
(0.54991545 0.00089357967 0)
(0.54660312 0.00087617206 0)
(0.54414992 0.00086350262 0)
(0.54084574 0.00084655741 0)
(0.538462 0.00083459567 0)
(0.53516291 0.00081808224 0)
(0.53285054 0.00080681111 0)
(0.52955325 0.00079070019 0)
(0.52731437 0.00078010431 0)
(0.52401535 0.00076436745 0)
(0.52185233 0.00075443298 0)
(0.51854776 0.00073904337 0)
(0.51646325 0.00072975807 0)
(0.513149 0.00071468981 0)
(0.51114592 0.00070604283 0)
(0.50781755 0.00069127153 0)
(0.50589915 0.00068325342 0)
(0.50255181 0.00066875648 0)
(0.50072172 0.0006613591 0)
(0.49735015 0.00064711532 0)
(0.49561237 0.00064033154 0)
(0.49221086 0.00062632268 0)
(0.49056982 0.00062014661 0)
(0.48713213 0.00060635694 0)
(0.48559274 0.00060078312 0)
(0.48211203 0.00058720129 0)
(0.48067971 0.00058222498 0)
(0.47714852 0.00056884498 0)
(0.47582923 0.00056446103 0)
(0.47223935 0.00055128451 0)
(0.47103965 0.00054748728 0)
(0.46738206 0.00053452742 0)
(0.4663091 0.0005313092 0)
(0.46257387 0.0005185957 0)
(0.46163542 0.00051594535 0)
(0.45781161 0.00050353419 0)
(0.45701598 0.00050143386 0)
(0.45309154 0.00048942389 0)
(0.45244744 0.00048784329 0)
(0.44840916 0.00047641087 0)
(0.44792525 0.00047528605 0)
(0.44375886 0.00046477454 0)
(0.44344268 0.00046388605 0)
(0.43913374 0.00045520429 0)
(0.4389887 0.00045357026 0)
(0.43452718 0.00045267135 0)
(0.98284086 0.01441705 0)
(0.98291331 0.017157817 0)
(0.98371547 0.01978895 0)
(0.98520524 0.021985973 0)
(0.98720274 0.023568513 0)
(0.98939646 0.024611011 0)
(0.99155206 0.025335673 0)
(0.99354723 0.025929941 0)
(0.99542677 0.026457499 0)
(0.99725728 0.026871955 0)
(0.99912643 0.027081439 0)
(1.0010292 0.027003746 0)
(1.0029492 0.026592611 0)
(1.0047922 0.025843151 0)
(1.0064969 0.024786342 0)
(1.007958 0.023481982 0)
(1.009137 0.022010085 0)
(1.0099673 0.020462434 0)
(1.0104671 0.01893114 0)
(1.0106276 0.017497139 0)
(1.0105272 0.016218504 0)
(1.0101992 0.015125524 0)
(1.0097473 0.014221662 0)
(1.0092005 0.013491168 0)
(1.0086434 0.012906912 0)
(1.0080698 0.012438728 0)
(1.0075336 0.012059135 0)
(1.0069978 0.011746062 0)
(1.0065005 0.011481848 0)
(1.0059913 0.011252528 0)