/*--------------------------------*- C++ -*----------------------------------*\
| =========                 |                                                 |
| \\      /  F ield         | OpenFOAM: The Open Source CFD Toolbox           |
|  \\    /   O peration     | Version:  5.x                                   |
|   \\  /    A nd           | Web:      www.OpenFOAM.org                      |
|    \\/     M anipulation  |                                                 |
\*---------------------------------------------------------------------------*/
FoamFile
{
    version     2.0;
    format      ascii;
    class       volScalarField;
    location    "0.2";
    object      p;
}
// * * * * * * * * * * * * * * * * * * * * * * * * * * * * * * * * * * * * * //

dimensions      [0 2 -2 0 0 0 0];

internalField   nonuniform List<scalar> 
21600
(
0.04307958
0.040494727
0.035518687
0.030825956
0.027256845
0.024645649
0.02252195
0.020486653
0.018317871
0.015936129
0.013348297
0.010615459
0.0078411
0.0051640282
0.0027465727
0.000751851
-0.00069822356
-0.0015547875
-0.0018514852
-0.0016906795
-0.0012105932
-0.00055006875
0.00017523658
0.00088196607
0.0015184289
0.0020584266
0.0024939656
0.0028293473
0.0030763318
0.003250027
0.0033658929
0.0034380044
0.0034782958
0.0034963959
0.0034997639
0.0034939633
0.0034829835
0.0034695619
0.0034554757
0.0034417938
0.0034290794
0.0034175517
0.0034072048
0.003397897
0.0033894114
0.0033814999
0.0033739087
0.0033663971
0.0033587464
0.0033507686
0.0033423061
0.0033332344
0.0033234571
0.003312907
0.0033015398
0.0032893343
0.0032762851
0.0032624036
0.0032477106
0.0032322384
0.0032160231
0.0031991079
0.0031815353
0.0031633512
0.0031445981
0.0031253206
0.0031055578
0.0030853498
0.0030647296
0.0030437307
0.003022379
0.0030007012
0.0029787175
0.00295645
0.0029339144
0.002911129
0.0028881053
0.0028648574
0.0028413928
0.0028177229
0.0027938523
0.0027697904
0.0027455399
0.0027211087
0.0026964985
0.0026717165
0.0026467632
0.0026216452
0.0025963613
0.002570917
0.0025453092
0.0025195433
0.0024936153
0.0024675311
0.0024412853
0.0024148844
0.0023883214
0.0023616034
0.0023347213
0.0023076835
0.0022804782
0.0022531152
0.0022255798
0.0021978831
0.002170007
0.002141965
0.0021137357
0.0020853362
0.0020567418
0.0020279731
0.0019990016
0.0019698513
0.0019404889
0.0019109419
0.0018811728
0.0018512133
0.001821022
0.0017906356
0.0017600088
0.0017291834
0.0016981099
0.0016668356
0.0016353066
0.0016035752
0.001571584
0.0015393901
0.0015069341
0.0014742768
0.0014413589
0.0014082438
0.0013748748
0.0013413154
0.0013075151
0.0012735356
0.001239336
0.001204974
0.0011704198
0.0011357264
0.0011008747
0.0010659169
0.001030844
0.00099571377
0.00096052116
0.0009253351
0.00089014406
0.00085503599
0.00081998691
0.00078511428
0.00075038026
0.0007159351
0.0006817259
0.00064792683
0.00061447496
0.00058155896
0.00054911989
0.00051734599
0.00048619171
0.0004558293
0.00042623486
0.00039755812
0.00036979188
0.00034305509
0.00031734656
0.00029276648
0.00026931357
0.00024707113
0.00022602055
0.00020621854
0.00018761522
0.00017021035
0.00015392136
0.00013869943
0.00012447916
0.0001111668
9.8721784e-05
8.6982652e-05
7.593607e-05
6.5355286e-05
5.5293232e-05
4.5497088e-05
3.6135633e-05
2.6952035e-05
1.8267116e-05
9.8122345e-06
2.0701075e-06
-5.3110677e-06
-1.1729038e-05
-1.7728292e-05
-2.2606756e-05
-2.7136207e-05
-3.0426581e-05
-3.343025e-05
-3.4938178e-05
-3.6090629e-05
-3.5278345e-05
-3.3933916e-05
-2.9946638e-05
-2.518368e-05
-1.6764253e-05
-7.4534538e-06
0.038573753
0.037381353
0.034073102
0.030222187
0.026867729
0.024233244
0.022084883
0.020090968
0.018014255
0.015744894
0.013271331
0.010648951
0.0079799304
0.0054026517
0.0030743315
0.0011411342
-0.00028627931
-0.0011575316
-0.0014947269
-0.0013854836
-0.00095663685
-0.00034178782
0.00034390043
0.0010163584
0.0016247461
0.0021430787
0.0025625809
0.0028866262
0.0031258372
0.0032942006
0.0034063023
0.0034756263
0.0035137267
0.0035299914
0.0035317303
0.0035244199
0.003512003
0.0034971967
0.0034817729
0.0034668029
0.003452856
0.003440157
0.0034287043
0.0034183585
0.003408903
0.0034000888
0.0033916593
0.0033833695
0.0033749961
0.0033663465
0.0033572584
0.0033476028
0.0033372793
0.0033262172
0.0033143686
0.0033017097
0.0032882324
0.0032739458
0.0032588687
0.0032430316
0.0032264689
0.0032092226
0.0031913339
0.0031728477
0.0031538056
0.0031342512
0.0031142229
0.0030937601
0.0030728953
0.0030516613
0.0030300836
0.0030081884
0.0029859954
0.0029635263
0.0029407967
0.0029178242
0.0028946201
0.0028711982
0.0028475659
0.002823734
0.002799707
0.0027754939
0.0027510974
0.002726525
0.0027017782
0.0026768641
0.0026517831
0.0026265413
0.0026011376
0.002575577
0.0025498566
0.0025239816
0.0024979477
0.0024717608
0.0024454153
0.0024189177
0.0023922607
0.0023654515
0.0023384807
0.0023113566
0.0022840675
0.002256623
0.0022290081
0.0022012343
0.0021732829
0.0021451678
0.002116867
0.0020883981
0.0020597358
0.0020309011
0.0020018651
0.001972652
0.0019432281
0.0019136212
0.0018837934
0.0018537767
0.0018235294
0.0017930883
0.0017624079
0.0017315301
0.0017004053
0.0016690807
0.0016375024
0.0016057226
0.0015736841
0.0015414435
0.0015089419
0.0014762394
0.0014432776
0.0014101186
0.0013767072
0.0013431051
0.0013092637
0.0012752426
0.0012410031
0.0012066006
0.0011720075
0.0011372743
0.0011023847
0.0010673879
0.0010322776
0.00099710929
0.00096187971
0.00092665636
0.00089142876
0.00085628413
0.00082119879
0.00078629017
0.00075152023
0.0007170395
0.00068279487
0.00064896057
0.00061547392
0.00058252288
0.00055004979
0.00051824108
0.00048705366
0.00045665682
0.00042703014
0.0003983196
0.00037052214
0.00034375257
0.00031801386
0.00029340223
0.00026992032
0.00024764782
0.00022656977
0.00020673949
0.00018811081
0.00017067982
0.00015436789
0.00013912186
0.00012488101
0.00011154663
9.9083571e-05
8.7324681e-05
7.626258e-05
6.5664166e-05
5.5588678e-05
4.5776539e-05
3.6403179e-05
2.7204613e-05
1.8508779e-05
1.0039454e-05
2.287262e-06
-5.1076949e-06
-1.1534381e-05
-1.7546146e-05
-2.2431528e-05
-2.6972033e-05
-3.0267728e-05
-3.3281371e-05
-3.479335e-05
-3.595488e-05
-3.5145177e-05
-3.3808705e-05
-2.9821804e-05
-2.5065603e-05
-1.6642499e-05
-7.3366602e-06
0.035350374
0.034873658
0.032762213
0.029736072
0.026665393
0.02400043
0.021762841
0.01974752
0.01773016
0.015573628
0.013242367
0.010779306
0.0082799088
0.005871815
0.0036924593
0.0018656536
0.00048435395
-0.00040570533
-0.00081572989
-0.00081156409
-0.00049674725
1.2312181e-05
0.00060941697
0.0012122961
0.0017653707
0.002240003
0.0026276231
0.0029308354
0.0031581601
0.003320922
0.0034312775
0.0035009
0.0035401683
0.0035577798
0.0035606757
0.0035541616
0.0035421279
0.0035273059
0.0035115169
0.0034958974
0.0034810838
0.0034673641
0.0034547911
0.0034432702
0.0034326197
0.0034226179
0.0034130282
0.0034036203
0.003394181
0.0033845236
0.0033744884
0.0033639468
0.003352797
0.003340966
0.0033284029
0.0033150805
0.0033009871
0.0032861283
0.0032705191
0.0032541867
0.0032371622
0.0032194846
0.0032011922
0.0031823277
0.0031629299
0.0031430408
0.0031226966
0.0031019353
0.0030807879
0.003059286
0.0030374536
0.0030153164
0.0029928928
0.002970204
0.0029472646
0.0029240918
0.0029006961
0.002877091
0.0028532832
0.0028292832
0.002805095
0.0027807273
0.0027561822
0.0027314672
0.0027065834
0.0026815376
0.0026563298
0.0026309659
0.0026054445
0.0025797705
0.0025539406
0.0025279601
0.0025018243
0.0024755392
0.0024490986
0.0024225093
0.0023957633
0.0023688682
0.0023418139
0.0023146095
0.002287242
0.0022597221
0.0022320336
0.0022041888
0.002176168
0.002147986
0.0021196198
0.0020910878
0.0020623637
0.0020334695
0.0020043749
0.0019751054
0.001945626
0.0019159657
0.0018860852
0.0018560178
0.0018257203
0.0017952311
0.0017645029
0.0017335792
0.0017024089
0.0016710404
0.0016394186
0.0016075967
0.0015755165
0.0015432355
0.0015106939
0.0014779525
0.0014449523
0.0014117557
0.0013783073
0.0013446686
0.0013107916
0.0012767349
0.001242461
0.0012080237
0.0011733972
0.00113863
0.0011037077
0.0010686777
0.0010335353
0.00099833448
0.00096307313
0.00092781806
0.00089255885
0.00085738324
0.00082226636
0.00078732734
0.00075252594
0.00071801523
0.00068373945
0.00064987539
0.00061635808
0.00058337729
0.00055087423
0.00051903572
0.00048781915
0.00045739258
0.00042773759
0.0003989977
0.00037117282
0.0003443747
0.00031860939
0.00029397025
0.0002704627
0.00024816405
0.00022706167
0.00020720689
0.00018855582
0.00017110226
0.00015477005
0.00013950304
0.00012524402
0.00011189032
9.9411367e-05
8.7635001e-05
7.6559162e-05
6.594483e-05
5.5857174e-05
4.603013e-05
3.664565e-05
2.7432691e-05
1.8726457e-05
1.0242972e-05
2.4812953e-06
-4.9272306e-06
-1.1361838e-05
-1.7386085e-05
-2.2277663e-05
-2.6829799e-05
-3.0130567e-05
-3.3155672e-05
-3.4672048e-05
-3.5845163e-05
-3.5039071e-05
-3.37144e-05
-2.9730096e-05
-2.4985676e-05
-1.6567688e-05
-7.2722663e-06
0.033063724
0.032851486
0.031428557
0.029068277
0.026342777
0.023745137
0.021460006
0.019416776
0.017443163
0.015396667
0.013220602
0.010939618
0.0086337305
0.0064128955
0.0043940071
0.0026818667
0.001355368
0.00045598674
-1.9442424e-05
-0.00011861989
7.6585253e-05
0.00046815993
0.0009612483
0.001477877
0.0019630402
0.0023861655
0.0027361208
0.0030132619
0.0032237673
0.0033765279
0.0034814674
0.0035484753
0.0035866599
0.0036038887
0.003606596
0.0035998004
0.0035872474
0.0035716156
0.00355473
0.0035377635
0.0035214051
0.0035060001
0.0034916561
0.0034783263
0.0034658679
0.0034540864
0.003442767
0.0034316995
0.0034206848
0.0034095447
0.0033981228
0.0033862907
0.0033739436
0.0033610044
0.0033474166
0.0033331472
0.0033181778
0.0033025083
0.0032861473
0.0032691165
0.0032514415
0.0032331567
0.0032142957
0.0031948976
0.0031749978
0.0031546352
0.0031338434
0.0031126582
0.0030911085
0.0030692244
0.0030470283
0.0030245448
0.0030017911
0.0029787875
0.0029555475
0.0029320878
0.002908418
0.002884551
0.0028604929
0.0028362535
0.0028118364
0.0027872497
0.0027624951
0.0027375797
0.0027125041
0.0026872746
0.0026618908
0.0026363582
0.0026106747
0.0025848454
0.0025588665
0.002532743
0.0025064699
0.0024800529
0.0024534854
0.0024267742
0.0023999106
0.0023729026
0.0023457393
0.0023184301
0.0022909613
0.0022633441
0.0022355613
0.002207626
0.0021795171
0.0021512506
0.0021228022
0.0020941915
0.0020653905
0.0020364227
0.0020072561
0.0019779176
0.0019483705
0.0019186455
0.0018887013
0.0018585732
0.0018282159
0.0017976696
0.0017668851
0.0017359076
0.0017046841
0.0016732648
0.0016415927
0.0016097227
0.0015775949
0.0015452682
0.0015126814
0.0014798965
0.0014468533
0.001413615
0.0013801258
0.0013464471
0.0013125312
0.0012784359
0.0012441248
0.0012096502
0.001174988
0.0011401847
0.0011052279
0.0010701628
0.0010349867
0.00099975179
0.00096445722
0.0009291691
0.00089387689
0.00085866915
0.0008235193
0.00078854888
0.00075371451
0.00071917283
0.00068486423
0.00065096929
0.0006174195
0.00058440756
0.00055187247
0.00052000233
0.00048875429
0.00045829567
0.00042860972
0.00039983765
0.00037198225
0.0003451522
0.00031935671
0.00029468625
0.0002711489
0.00024881987
0.00022768845
0.00020780454
0.00018912591
0.00017164476
0.00015528683
0.00013999364
0.00012571095
0.00011233273
9.9832456e-05
8.8033545e-05
7.6938761e-05
6.6303765e-05
5.6199083e-05
4.6352908e-05
3.6952917e-05
2.7721927e-05
1.9001338e-05
1.0500522e-05
2.7256319e-06
-4.6994595e-06
-1.1145821e-05
-1.718564e-05
-2.2087591e-05
-2.6654612e-05
-2.9965053e-05
-3.3005022e-05
-3.4530975e-05
-3.5719433e-05
-3.4923243e-05
-3.3615014e-05
-2.9641911e-05
-2.4914529e-05
-1.6520207e-05
-7.2386977e-06
0.031239639
0.031105987
0.030057996
0.02818719
0.025831346
0.023398199
0.021140807
0.019095035
0.017160892
0.01521735
0.013195897
0.011098985
0.0089857249
0.0069464429
0.005079676
0.0034753144
0.0022022494
0.0012992558
0.00076942
0.00057929439
0.00066503831
0.00094533023
0.0013369689
0.0017679824
0.002185341
0.0025570873
0.0028691226
0.0031190735
0.0033108837
0.0034514763
0.0035489821
0.0036117428
0.0036476435
0.003663664
0.0036656391
0.0036582079
0.0036448956
0.0036282697
0.0036101179
0.0035916223
0.003573509
0.0035561732
0.0035397759
0.0035243213
0.0035097107
0.0034957871
0.0034823663
0.0034692618
0.0034562922
0.003443291
0.0034301086
0.0034166189
0.0034027167
0.0033883225
0.0033733755
0.0033578379
0.0033416858
0.003324913
0.0033075223
0.0032895297
0.0032709549
0.003251827
0.0032321748
0.0032120328
0.0031914323
0.0031704086
0.003148992
0.0031272152
0.0031051044
0.0030826876
0.0030599852
0.0030370199
0.0030138074
0.0029903665
0.0029667093
0.0029428514
0.0029188013
0.0028945711
0.0028701657
0.0028455944
0.0028208597
0.0027959691
0.0027709237
0.0027457299
0.0027203878
0.0026949031
0.0026692744
0.002643507
0.0026175983
0.002591553
0.0025653667
0.0025390444
0.0025125803
0.00248598
0.0024592363
0.0024323557
0.0024053291
0.0023781646
0.0023508504
0.0023233964
0.0022957878
0.0022680365
0.002240124
0.0022120642
0.0021838348
0.0021554529
0.0021268925
0.0020981746
0.0020692695
0.0020402022
0.0020109386
0.0019815074
0.0019518699
0.0019220586
0.0018920302
0.0018618217
0.0018313858
0.0018007646
0.0017699069
0.0017388597
0.0017075678
0.0016760833
0.0016443472
0.0016124163
0.0015802286
0.0015478448
0.0015152019
0.0014823634
0.0014492677
0.0014159789
0.0013824404
0.001348714
0.001314752
0.0012806115
0.0012462571
0.0012117395
0.0011770364
0.001142192
0.0011071962
0.0010720918
0.0010368783
0.0010016058
0.0009662748
0.00093095056
0.00089562242
0.00086037982
0.00082519433
0.00079019002
0.00075532007
0.00072074491
0.00068640069
0.00065247214
0.00061888673
0.00058584046
0.00055326965
0.00052136399
0.00049008005
0.00045958463
0.0004298624
0.00040105228
0.00037315988
0.00034629085
0.0003204575
0.00029574746
0.00027217137
0.00024980239
0.00022863162
0.00020870767
0.00018998981
0.00017246906
0.00015607291
0.00014074107
0.00012642197
0.00011300668
0.00010047243
8.8638758e-05
7.7512937e-05
6.6846038e-05
5.6713464e-05
4.6838505e-05
3.7413725e-05
2.8156781e-05
1.9413946e-05
1.0889106e-05
3.0936473e-06
-4.3544659e-06
-1.0820405e-05
-1.6882648e-05
-2.1803519e-05
-2.6392392e-05
-2.9721413e-05
-3.2782896e-05
-3.4327794e-05
-3.5538253e-05
-3.4762895e-05
-3.347855e-05
-2.9531542e-05
-2.4829139e-05
-1.6487693e-05
-7.2293891e-06
0.029664507
0.0295427
0.028703312
0.027180338
0.025170497
0.022965316
0.020808222
0.018799951
0.016912252
0.015061452
0.013180899
0.011255777
0.0093228823
0.0074520598
0.0057252846
0.0042202754
0.0029984584
0.0020969196
0.0015235629
0.0012558986
0.0012447479
0.0014234016
0.0017199753
0.0020693085
0.0024210523
0.0027425125
0.0030169915
0.0032393915
0.0034114947
0.0035385269
0.0036271545
0.0036844075
0.0037170479
0.0037311673
0.0037319513
0.0037235997
0.0037093636
0.0036916573
0.0036721998
0.0036521604
0.0036322864
0.0036130124
0.0035945462
0.0035769388
0.0035601344
0.0035440141
0.0035284245
0.0035132026
0.0034981844
0.0034832163
0.0034681568
0.0034528841
0.0034372947
0.0034213081
0.0034048614
0.0033879132
0.0033704352
0.0033524166
0.003333855
0.0033147609
0.0032951492
0.0032750437
0.0032544686
0.0032334542
0.0032120277
0.0031902208
0.0031680602
0.0031455758
0.0031227909
0.0030997313
0.0030764153
0.0030528639
0.0030290911
0.0030051141
0.0029809437
0.0029565942
0.0029320731
0.0029073913
0.0028825531
0.0028575666
0.0028324337
0.0028071612
0.0027817494
0.0027562042
0.0027305248
0.0027047161
0.0026787764
0.0026527102
0.0026265142
0.0026001928
0.0025737414
0.0025471644
0.0025204554
0.0024936197
0.0024666493
0.0024395507
0.0024123141
0.0023849476
0.0023574389
0.0023297979
0.0023020088
0.0022740839
0.0022460037
0.0022177827
0.0021893977
0.0021608662
0.0021321611
0.0021033043
0.002074265
0.0020450688
0.0020156803
0.0019861293
0.0019563754
0.0019264528
0.0018963164
0.0018660047
0.0018354684
0.0018047515
0.0017738006
0.0017426647
0.0017112864
0.0016797197
0.0016479033
0.0016158962
0.0015836341
0.0015511796
0.0015184678
0.0014855636
0.0014524043
0.0014190547
0.0013854573
0.0013516744
0.0013176581
0.001283465
0.0012490605
0.0012144939
0.0011797443
0.0011448541
0.001109815
0.0010746677
0.0010394135
0.0010041007
0.00096873089
0.00093336838
0.00089800255
0.0008627234
0.00082750104
0.00079246153
0.00075755499
0.00072294499
0.00068856389
0.00065460005
0.00062097727
0.00058789437
0.00055528512
0.00052334057
0.0004920167
0.00046147975
0.00043171557
0.0004028608
0.00037492369
0.00034800695
0.00032212595
0.00029736537
0.00027373836
0.00025131594
0.00023009109
0.00021011098
0.00019133654
0.00017375776
0.00015730428
0.00014191424
0.0001275388
0.00011406643
0.00010147804
8.9589834e-05
7.8413536e-05
6.769644e-05
5.7518533e-05
4.7599099e-05
3.8134808e-05
2.8839117e-05
2.006171e-05
1.15021e-05
3.6746392e-06
-3.8069317e-06
-1.0304718e-05
-1.6400555e-05
-2.1353787e-05
-2.5975821e-05
-2.9337236e-05
-3.243078e-05
-3.4008874e-05
-3.5251452e-05
-3.4513442e-05
-3.3263538e-05
-2.9365328e-05
-2.4698932e-05
-1.6451405e-05
-7.235481e-06
0.028250542
0.028121154
0.027411703
0.02614183
0.02442908
0.022469585
0.02046267
0.018533274
0.016705856
0.01493939
0.013181445
0.011408514
0.009638317
0.0079210081
0.0063227415
0.0049102533
0.0037389017
0.0028444936
0.0022385243
0.0019067927
0.0018117864
0.0018993203
0.0021082098
0.0023804767
0.0026690452
0.0029412105
0.0031783025
0.0033727678
0.0035243158
0.003636603
0.0037150308
0.0037655077
0.0037937914
0.003805124
0.0038040301
0.0037942364
0.0037786832
0.0037596005
0.003738615
0.0037168643
0.0036951025
0.0036737926
0.0036531806
0.0036333576
0.0036143066
0.0035959428
0.0035781408
0.0035607587
0.0035436484
0.0035266681
0.0035096845
0.0034925807
0.0034752551
0.003457627
0.0034396318
0.0034212247
0.0034023736
0.0033830627
0.0033632849
0.0033430453
0.0033223535
0.0033012283
0.0032796891
0.0032577615
0.003235469
0.003212839
0.003189895
0.0031666635
0.0031431653
0.0031194235
0.0030954544
0.003071277
0.0030469037
0.0030223503
0.0029976262
0.0029727443
0.0029477112
0.0029225366
0.0028972242
0.0028717811
0.0028462089
0.0028205131
0.002794694
0.0027687563
0.0027426989
0.0027165259
0.0026902351
0.0026638301
0.0026373077
0.0026106715
0.0025839167
0.0025570471
0.0025300561
0.0025029482
0.0024757153
0.0024483632
0.0024208821
0.0023932796
0.0023655432
0.0023376824
0.0023096812
0.0022815513
0.0022532731
0.0022248611
0.0021962915
0.0021675822
0.0021387053
0.0021096829
0.0020804834
0.0020511331
0.0020215956
0.0019919011
0.0019620084
0.0019319522
0.0019016868
0.0018712514
0.0018405955
0.0018097639
0.001778702
0.00174746
0.0017159792
0.0016843146
0.0016524035
0.0016203058
0.0015879565
0.0015554188
0.0015226268
0.0014896462
0.0014564134
0.0014229938
0.0013893294
0.0013554823
0.001321405
0.0012871535
0.0012526937
0.0012180737
0.001183274
0.0011483349
0.00111325
0.0010780581
0.0010427622
0.0010074085
0.00097199998
0.00093659935
0.00090119675
0.00086588179
0.0008306242
0.00079555069
0.0007606096
0.00072596593
0.00069154971
0.00065755138
0.00062389238
0.0005907729
0.00055812506
0.00052614026
0.00049477454
0.00046419293
0.00043438263
0.00040547751
0.00037748858
0.00035051546
0.00032457672
0.00029975361
0.0002760621
0.00025357047
0.00023227416
0.00021221812
0.00019336569
0.0001757055
0.00015917036
0.00014369662
0.00012923883
0.00011568273
0.00010301334
9.1043848e-05
7.9790778e-05
6.8998384e-05
5.8751296e-05
4.8765618e-05
3.9241537e-05
2.988918e-05
2.1060141e-05
1.2450619e-05
4.5753038e-06
-2.9544204e-06
-9.5010627e-06
-1.5646171e-05
-2.0650402e-05
-2.5321403e-05
-2.8734383e-05
-3.1874581e-05
-3.3505639e-05
-3.4793919e-05
-3.4116152e-05
-3.291419e-05
-2.9095903e-05
-2.4480206e-05
-1.6377378e-05
-7.233686e-06
0.026960228
0.02682196
0.026204667
0.025125967
0.023658375
0.021932596
0.020099899
0.018281505
0.016531989
0.014846728
0.013194624
0.011552831
0.0099261244
0.0083473932
0.0068677212
0.0055432504
0.0044234437
0.0035425251
0.0029144615
0.0025313567
0.0023650388
0.0023719946
0.0025008826
0.0027009271
0.002928829
0.0031526223
0.0033523815
0.0035185132
0.0036487902
0.00374535
0.0038124214
0.003854923
0.0038777255
0.0038852912
0.0038815053
0.0038696121
0.0038522195
0.0038313491
0.0038085129
0.0037847986
0.0037609519
0.0037374512
0.0037145705
0.0036924331
0.0036710541
0.0036503777
0.0036303027
0.0036107054
0.003591452
0.0035724108
0.0035534563
0.0035344762
0.0035153713
0.0034960606
0.0034764778
0.0034565746
0.0034363155
0.0034156796
0.0033946548
0.0033732409
0.0033514424
0.0033292724
0.0033067459
0.0032838834
0.0032607044
0.0032372322
0.0032134867
0.0031894909
0.003165263
0.003140823
0.0031161857
0.0030913674
0.0030663795
0.0030412355
0.0030159438
0.0029905155
0.0029649566
0.0029392753
0.0029134749
0.0028875614
0.0028615359
0.0028354029
0.0028091623
0.0027828177
0.0027563679
0.0027298158
0.0027031591
0.0026764004
0.0026495366
0.0026225703
0.0025954969
0.0025683191
0.0025410306
0.0025136348
0.0024861237
0.0024585024
0.002430761
0.0024029065
0.0023749266
0.0023468301
0.0023186011
0.0022902505
0.0022617587
0.0022331398
0.0022043703
0.0021754676
0.002146404
0.0021172009
0.0020878267
0.0020583074
0.0020286067
0.0019987546
0.0019687098
0.0019385066
0.0019080993
0.0018775272
0.0018467399
0.0018157816
0.0017845977
0.0017532384
0.001721645
0.0016898723
0.0016578576
0.0016256604
0.0015932157
0.0015605869
0.0015277081
0.0014946444
0.0014613326
0.0014278377
0.0013941022
0.0013601871
0.0013260459
0.0012917334
0.0012572169
0.0012225424
0.0011876922
0.0011527045
0.0011175751
0.00108234
0.001047005
0.0010116131
0.0009761695
0.00094073418
0.00090529939
0.00086995268
0.00083466531
0.00079956241
0.00076459265
0.00072991991
0.00069547424
0.00066144566
0.0006277555
0.00059460289
0.00056192011
0.00052989695
0.00049849102
0.00046786465
0.00043800728
0.00040904872
0.0003810036
0.00035396747
0.00032796303
0.00030306674
0.00027929848
0.00025672234
0.00023533762
0.00021518532
0.00019623284
0.00017846622
0.00016182338
0.0001462379
0.00013166909
0.00011799925
0.00010521859
9.3137081e-05
8.1777016e-05
7.0879953e-05
6.0535785e-05
5.0457948e-05
4.0849954e-05
3.1419257e-05
2.2517993e-05
1.3840033e-05
5.8975747e-06
-1.6982873e-06
-8.3145079e-06
-1.4527993e-05
-1.960602e-05
-2.4345261e-05
-2.7833481e-05
-3.1038111e-05
-3.2746775e-05
-3.4097095e-05
-3.3508079e-05
-3.237018e-05
-2.8669571e-05
-2.4123921e-05
-1.6220795e-05
-7.1883178e-06
0.025775404
0.025633309
0.025088733
0.024157957
0.022889868
0.021372616
0.019717625
0.018029141
0.016373815
0.01477219
0.013214671
0.011685847
0.010184296
0.0087298686
0.007360094
0.006120553
0.0050542733
0.0041931427
0.003552573
0.0031295244
0.0029034343
0.0028398889
0.0028964147
0.0030291954
0.0031990785
0.0033755295
0.0035380761
0.0036755636
0.0037840201
0.0038640986
0.0039188797
0.0039523664
0.0039686426
0.0039714755
0.0039641602
0.0039494734
0.0039296827
0.0039065832
0.0038815514
0.0038556054
0.0038294656
0.0038036119
0.0037783346
0.0037537801
0.0037299885
0.0037069269
0.0036845147
0.0036626438
0.0036411929
0.003620039
0.0035990636
0.0035781585
0.0035572272
0.0035361881
0.0035149736
0.0034935319
0.003471824
0.0034498239
0.0034275151
0.0034048913
0.0033819525
0.003358706
0.0033351622
0.0033113365
0.0032872447
0.0032629053
0.0032383353
0.0032135535
0.0031885757
0.0031634188
0.0031380957
0.0031126202
0.0030870024
0.0030612534
0.0030353808
0.0030093937
0.0029832973
0.0029570981
0.0029307994
0.0029044056
0.0028779177
0.0028513388
0.0028246686
0.0027979091
0.0027710593
0.0027441207
0.0027170912
0.0026899721
0.0026627605
0.0026354577
0.0026080597
0.0025805677
0.0025529758
0.0025252861
0.0024974912
0.0024695949
0.002441588
0.0024134759
0.0023852472
0.0023569093
0.0023284472
0.0022998704
0.00227116
0.0022423287
0.0022133541
0.0021842525
0.0021549973
0.0021256082
0.0020960545
0.0020663608
0.0020364921
0.0020064773
0.0019762759
0.001945921
0.0019153677
0.0018846541
0.0018537313
0.0018226422
0.001791333
0.0017598524
0.0017281433
0.0016962591
0.0016641386
0.0016318392
0.0015992975
0.0015665753
0.0015336088
0.0015004609
0.0014670703
0.0014334996
0.0013996939
0.0013657115
0.0013315084
0.0012971365
0.0012625665
0.0012278404
0.0011929441
0.0011579117
0.0011227432
0.0010874701
0.0010521024
0.0010166785
0.00098120751
0.00094574456
0.00091028609
0.00087491531
0.00083960752
0.00080448347
0.00076949496
0.00073480145
0.00070033614
0.00066628533
0.00063257336
0.00059939493
0.00056668527
0.00053462956
0.00050318955
0.00047252224
0.00044262139
0.00041361019
0.00038550896
0.00035840697
0.00033233312
0.00030735652
0.00028350313
0.00026083031
0.00023934367
0.00021907753
0.00020000584
0.00018210991
0.00016533557
0.0001496117
0.00013490467
0.00012109178
0.00010817037
9.5946211e-05
8.4449119e-05
7.3417597e-05
6.294809e-05
5.275134e-05
4.3034513e-05
3.3502681e-05
2.4507484e-05
1.5741312e-05
7.7110873e-06
2.9814765e-08
-6.6782642e-06
-1.2980559e-05
-1.8157081e-05
-2.2985238e-05
-2.6574723e-05
-2.9863006e-05
-3.1676725e-05
-3.3106883e-05
-3.2638289e-05
-3.1582625e-05
-2.8040348e-05
-2.3589162e-05
-1.5938862e-05
-7.0612369e-06
0.024685023
0.024545391
0.024061648
0.0232483
0.022142132
0.020804748
0.019318082
0.01776674
0.01621725
0.014704546
0.013236204
0.011806984
0.010414926
0.0090716521
0.0078035083
0.0066458966
0.0056348155
0.0047989445
0.0041541802
0.0037012015
0.003425719
0.0033010853
0.0032926998
0.0033632976
0.0034780717
0.0036084843
0.0037341568
0.0038428614
0.0039291252
0.0039921783
0.0040339562
0.0040575781
0.004066414
0.0040636209
0.0040519686
0.0040338005
0.004011051
0.003985278
0.0039577044
0.0039292587
0.0039006182
0.0038722492
0.0038444469
0.0038173711
0.0037910797
0.0037655575
0.0037407402
0.0037165329
0.0036928256
0.0036695029
0.0036464521
0.0036235684
0.0036007577
0.0035779383
0.0035550414
0.0035320118
0.0035088069
0.003485396
0.003461758
0.003437881
0.0034137601
0.0033893971
0.003364798
0.003339973
0.0033149339
0.0032896948
0.0032642696
0.0032386729
0.0032129182
0.0031870187
0.0031609859
0.0031348306
0.0031085617
0.0030821878
0.0030557158
0.0030291521
0.0030025018
0.0029757693
0.0029489579
0.0029220701
0.0028951073
0.0028680704
0.0028409593
0.0028137742
0.0027865146
0.00275918
0.002731769
0.0027042811
0.0026767142
0.0026490678
0.0026213385
0.0025935258
0.0025656245
0.0025376352
0.0025095514
0.0024813752
0.0024530983
0.0024247244
0.0023962429
0.0023676597
0.002338961
0.0023101546
0.0022812228
0.0022521763
0.0022229942
0.002193691
0.0021642419
0.0021346647
0.0021049301
0.0020750602
0.0020450221
0.0020148427
0.001984484
0.0019539762
0.0019232766
0.0018924207
0.0018613621
0.0018301414
0.0017987075
0.0017671057
0.0017352817
0.0017032861
0.0016710611
0.0016386604
0.0016060239
0.0015732094
0.0015401578
0.0015069277
0.0014734619
0.001439818
0.0014059462
0.0013719
0.0013376403
0.0013032133
0.0012685955
0.0012338232
0.0011988877
0.0011638168
0.0011286168
0.0010933131
0.0010579216
0.0010224739
0.00098698529
0.00095150378
0.00091603223
0.00088064714
0.00084533038
0.00081019551
0.0007752003
0.0007404965
0.00070602376
0.00067196105
0.00063823933
0.00060504488
0.00057231953
0.00054023984
0.00050877545
0.00047807415
0.00044813742
0.00041907797
0.00039092515
0.00036375849
0.00033761634
0.00031255677
0.00028861502
0.00026583821
0.00024424162
0.00022384924
0.00020464494
0.00018660217
0.00016967827
0.00015379454
0.00013892755
0.0001249471
0.00011186053
9.9467423e-05
8.7807714e-05
7.6615604e-05
6.5996053e-05
5.565643e-05
4.5808413e-05
3.6154583e-05
2.7045437e-05
1.8172584e-05
1.0035143e-05
2.2502951e-06
-4.5709219e-06
-1.098132e-05
-1.6280231e-05
-2.1216981e-05
-2.4933406e-05
-2.8323955e-05
-3.0270289e-05
-3.1798015e-05
-3.1481619e-05
-3.0527467e-05
-2.7183267e-05
-2.2855003e-05
-1.5505209e-05
-6.8271766e-06
0.023680632
0.023549313
0.023118241
0.022400546
0.021426168
0.020241275
0.01890726
0.01749146
0.016053838
0.01463524
0.013254689
0.011916567
0.010621835
0.0093780484
0.008203247
0.0071237654
0.00616844
0.0053620382
0.0047200497
0.0042458588
0.0039303104
0.003753356
0.0036873089
0.0037009656
0.0037638948
0.0038499592
0.0039394129
0.0040194234
0.0040833022
0.0041289653
0.0041572202
0.0041703136
0.0041709477
0.0041617395
0.0041450026
0.0041226937
0.0040964346
0.0040675455
0.0040370827
0.0040058672
0.0039745155
0.0039434649
0.0039130038
0.0038832961
0.0038544113
0.0038263462
0.0037990492
0.0037724364
0.0037464075
0.0037208535
0.0036956673
0.0036707464
0.0036459988
0.0036213421
0.0035967069
0.0035720347
0.0035472797
0.0035224062
0.003497389
0.0034722103
0.0034468607
0.0034213363
0.003395639
0.0033697736
0.0033437485
0.0033175726
0.0032912571
0.0032648122
0.0032382491
0.0032115773
0.0031848068
0.003157945
0.003131
0.0031039774
0.0030768834
0.0030497218
0.0030224974
0.0029952124
0.0029678702
0.0029404713
0.0029130173
0.0028855068
0.0028579403
0.0028303156
0.0028026328
0.0027748896
0.0027470852
0.0027192173
0.0026912843
0.0026632842
0.002635214
0.0026070714
0.0025788522
0.0025505551
0.0025221746
0.0024937112
0.0024651576
0.0024365155
0.0024077754
0.0023789412
0.0023500004
0.0023209593
0.0022918014
0.0022625355
0.0022331422
0.0022036337
0.0021739873
0.0021442187
0.0021143004
0.0020842519
0.0020540425
0.0020236962
0.0019931783
0.001962516
0.0019316695
0.0019006702
0.0018694754
0.0018381221
0.0018065636
0.0017748406
0.0017429028
0.0017107959
0.0016784675
0.0016459664
0.0016132374
0.0015803322
0.0015471979
0.0015138875
0.0014803501
0.001446636
0.0014127021
0.0013785953
0.001344284
0.0013098064
0.0012751464
0.0012403329
0.0012053649
0.0011702615
0.0011350374
0.0010997097
0.0010643027
0.001028839
0.00099334185
0.00095785033
0.00092237561
0.00088698545
0.00085167043
0.00081653455
0.00078154403
0.00074683997
0.00071237157
0.00067830704
0.00064458752
0.00061138682
0.0005786573
0.00054656261
0.00051508445
0.00048435701
0.00045439356
0.00042529187
0.00039709433
0.00036986667
0.00034366043
0.00031851857
0.00029448918
0.00027160535
0.00024989566
0.00022936993
0.00021002551
0.00019182448
0.00017473953
0.00015868097
0.00014363914
0.00012947327
0.00011620405
0.00010362233
9.178104e-05
8.0408329e-05
6.9619846e-05
5.9118575e-05
4.9121715e-05
3.9329121e-05
3.0089669e-05
2.1094937e-05
1.2833926e-05
4.9303953e-06
-2.0221305e-06
-8.5567127e-06
-1.3998724e-05
-1.9060659e-05
-2.2926808e-05
-2.6435767e-05
-2.8539682e-05
-3.018112e-05
-3.0045732e-05
-2.9212178e-05
-2.6101365e-05
-2.192642e-05
-1.4917756e-05
-6.4859376e-06
0.022755198
0.022637554
0.022253297
0.021614959
0.020748652
0.019691951
0.018492746