/*--------------------------------*- C++ -*----------------------------------*\
| =========                 |                                                 |
| \\      /  F ield         | OpenFOAM: The Open Source CFD Toolbox           |
|  \\    /   O peration     | Version:  5.x                                   |
|   \\  /    A nd           | Web:      www.OpenFOAM.org                      |
|    \\/     M anipulation  |                                                 |
\*---------------------------------------------------------------------------*/
FoamFile
{
    version     2.0;
    format      ascii;
    class       surfaceScalarField;
    location    "0.2";
    object      phi;
}
// * * * * * * * * * * * * * * * * * * * * * * * * * * * * * * * * * * * * * //

dimensions      [0 3 -1 0 0 0 0];

internalField   nonuniform List<scalar> 
42870
(
7.8526806e-08
2.9354668e-09
-8.1462273e-08
7.4579103e-08
3.9477031e-09
7.0417575e-08
4.1615282e-09
6.6307928e-08
4.1096465e-09
6.2240238e-08
4.0676909e-09
5.8170758e-08
4.0694793e-09
5.409154e-08
4.0792182e-09
5.0022127e-08
4.0694129e-09
4.6002386e-08
4.0197412e-09
4.208147e-08
3.9209161e-09
3.8312285e-08
3.7691848e-09
3.4750004e-08
3.5622809e-09
3.1455248e-08
3.2947563e-09
2.8484584e-08
2.9706633e-09
2.5878624e-08
2.6059604e-09
2.3665306e-08
2.2133176e-09
2.1847109e-08
1.8181975e-09
2.0399008e-08
1.4481005e-09
1.9274283e-08
1.1247247e-09
1.8415394e-08
8.588895e-10
1.7763358e-08
6.5203545e-10
1.7264278e-08
4.990801e-10
1.6872505e-08
3.9177303e-10
1.6551564e-08
3.2094156e-10
1.6274991e-08
2.765731e-10
1.6023932e-08
2.5105899e-10
1.5785078e-08
2.3885326e-10
1.5550117e-08
2.3496164e-10
1.5314805e-08
2.3531128e-10
1.5077741e-08
2.3706488e-10
1.4839234e-08
2.385065e-10
1.4600488e-08
2.3874594e-10
1.4363047e-08
2.3744151e-10
1.4128459e-08
2.3458805e-10
1.3898092e-08
2.3036692e-10
1.3673048e-08
2.2504368e-10
1.3454142e-08
2.1890585e-10
1.3241917e-08
2.1222501e-10
1.3036678e-08
2.0523892e-10
1.2838536e-08
1.9814191e-10
1.264745e-08
1.9108594e-10
1.2463268e-08
1.8418226e-10
1.2285759e-08
1.7750944e-10
1.2114641e-08
1.711173e-10
1.1949606e-08
1.6503578e-10
1.1790329e-08
1.5927618e-10
1.1636489e-08
1.5384038e-10
1.1487767e-08
1.4872203e-10
1.1343856e-08
1.4391104e-10
1.1204465e-08
1.3939091e-10
1.106932e-08
1.3514528e-10
1.0938166e-08
1.3115414e-10
1.0810765e-08
1.2740008e-10
1.0686903e-08
1.2386293e-10
1.0566376e-08
1.2052652e-10
1.0449004e-08
1.1737207e-10
1.0334618e-08
1.1438578e-10
1.0223067e-08
1.1155096e-10
1.0114211e-08
1.0885655e-10
1.0007923e-08
1.0628807e-10
9.9040854e-09
1.0383724e-10
9.8025937e-09
1.0149172e-10
9.7033479e-09
9.9245842e-11
9.6062589e-09
9.708905e-11
9.511241e-09
9.5017868e-11
9.4182179e-09
9.3023105e-11
9.3271148e-09
9.1103104e-11
9.2378651e-09
8.9249701e-11
9.1504024e-09
8.7462762e-11
9.0646676e-09
8.5734776e-11
8.9806009e-09
8.4066736e-11
8.8981494e-09
8.2451481e-11
8.8172586e-09
8.0890845e-11
8.7378807e-09
7.9377815e-11
8.6599658e-09
7.7914934e-11
8.5834705e-09
7.6495267e-11
8.5083486e-09
7.5121937e-11
8.4345606e-09
7.378797e-11
8.3620637e-09
7.2496935e-11
8.2908219e-09
7.1241745e-11
8.2207956e-09
7.0026336e-11
8.1519521e-09
6.8843492e-11
8.0842546e-09
6.7697552e-11
8.0176734e-09
6.6581196e-11
7.9521742e-09
6.5499122e-11
7.8877303e-09
6.4443851e-11
7.8243098e-09
6.3420481e-11
7.7618885e-09
6.2421326e-11
7.7004365e-09
6.1451955e-11
7.6399321e-09
6.0504366e-11
7.5803474e-09
5.958468e-11
7.521663e-09
5.8684428e-11
7.4638525e-09
5.7810469e-11
7.4068988e-09
5.6953695e-11
7.3507769e-09
5.6121949e-11
7.2954717e-09
5.5305169e-11
7.2409593e-09
5.4512444e-11
7.1872269e-09
5.3732385e-11
7.1342512e-09
5.2975726e-11
7.0820218e-09
5.2229349e-11
7.0305158e-09
5.1506082e-11
6.9797252e-09
5.0790594e-11
6.9296268e-09
5.0098323e-11
6.8802157e-09
4.9411182e-11
6.8314679e-09
4.8747736e-11
6.7833814e-09
4.8086539e-11
6.7359316e-09
4.7449815e-11
6.6891194e-09
4.6812196e-11
6.6429192e-09
4.6200164e-11
6.5973353e-09
4.5583916e-11
6.5523406e-09
4.4994692e-11
6.5079429e-09
4.4397753e-11
6.4641133e-09
4.3829537e-11
6.4208634e-09
4.3249918e-11
6.3781625e-09
4.270092e-11
6.3360259e-09
4.2136674e-11
6.2944207e-09
4.1605142e-11
6.2533663e-09
4.1054412e-11
6.2128277e-09
4.0538626e-11
6.1728282e-09
3.9999558e-11
6.1333304e-09
3.9497719e-11
6.094362e-09
3.8968458e-11
6.0558832e-09
3.8478754e-11
6.0179257e-09
3.7957547e-11
5.9804476e-09
3.7478096e-11
5.9434843e-09
3.6963292e-11
5.9069922e-09
3.6492104e-11
5.87101e-09
3.598214e-11
5.8354931e-09
3.5516962e-11
5.8004826e-09
3.5010393e-11
5.7659338e-09
3.4548823e-11
5.7318894e-09
3.4044434e-11
5.6983055e-09
3.358384e-11
5.6652251e-09
3.3080381e-11
5.6326072e-09
3.2617902e-11
5.6004931e-09
3.2114067e-11
5.568846e-09
3.1647142e-11
5.5377043e-09
3.1141674e-11
5.507036e-09
3.0668294e-11
5.4768767e-09
3.015929e-11
5.4471992e-09
2.9677532e-11
5.4180373e-09
2.9161859e-11
5.3893667e-09
2.8670575e-11
5.3612217e-09
2.8145024e-11
5.333577e-09
2.7644734e-11
5.3064706e-09
2.7106401e-11
5.2798725e-09
2.6598102e-11
5.253829e-09
2.6043453e-11
5.2283019e-09
2.5527115e-11
5.2033491e-09
2.4952853e-11
5.178921e-09
2.4428122e-11
5.1550872e-09
2.3833774e-11
5.1317868e-09
2.3300384e-11
5.1090996e-09
2.2687229e-11
5.0869564e-09
2.2143204e-11
5.0654424e-09
2.1514015e-11
5.0444844e-09
2.0957965e-11
5.024167e-09
2.0317391e-11
5.0044184e-09
1.9748629e-11
4.9853179e-09
1.9100551e-11
4.966797e-09
1.8520904e-11
4.9489259e-09
1.7871079e-11
4.9316394e-09
1.7286465e-11
4.915001e-09
1.6638424e-11
4.898947e-09
1.6053984e-11
4.8835366e-09
1.541043e-11
4.8687031e-09
1.4833494e-11
4.8545034e-09
1.4199699e-11
4.8408634e-09
1.3640024e-11
4.8278343e-09
1.3029022e-11
4.8153334e-09
1.2500919e-11
4.8034084e-09
1.1925076e-11
4.7919757e-09
1.1432616e-11
4.7810782e-09
1.0897527e-11
4.7706349e-09
1.0443311e-11
4.7606776e-09
9.9572995e-12
4.7511298e-09
9.5478302e-12
4.7420101e-09
9.119638e-12
4.7332524e-09
8.7577106e-12
4.7248658e-09
8.3866026e-12
4.7168009e-09
8.0648792e-12
4.7090601e-09
7.740853e-12
4.701617e-09
7.4430043e-12
4.694467e-09
7.1500421e-12
4.6876114e-09
6.855617e-12
4.6810273e-09
6.5840664e-12
4.6747411e-09
6.2861898e-12
4.668692e-09
6.0491345e-12
4.6629302e-09
5.7617534e-12
4.6573447e-09
5.5855633e-12
4.6520229e-09
5.3217151e-12
4.6468018e-09
5.22112e-12
4.6418259e-09
4.9758771e-12
4.6368699e-09
4.9560573e-12
4.6321479e-09
4.7219789e-12
4.6273454e-09
4.802501e-12
4.6227574e-09
4.5879421e-12
4.6179531e-09
4.804386e-12
4.6133439e-09
4.6091502e-12
5.1063736e-12
8.5859e-08
2.6016674e-09
-8.55252e-08
8.5997691e-08
3.809012e-09
8.5645529e-08
4.5136902e-09
8.5011778e-08
4.743397e-09
8.4238123e-08
4.8413462e-09
8.3342739e-08
4.9648628e-09
8.2285506e-08
5.1364517e-09
8.1043511e-08
5.3114073e-09
7.9622023e-08
5.4412294e-09
7.804182e-08
5.5011191e-09
7.632824e-08
5.4827651e-09
7.4508731e-08
5.3817889e-09
7.2610694e-08
5.1927935e-09
7.0663269e-08
4.9180886e-09
6.8701392e-08
4.5678371e-09
6.6758667e-08
4.1560434e-09
6.4867543e-08
3.7093208e-09
6.3055113e-08
3.2605303e-09
6.1339097e-08
2.8407412e-09
5.9726648e-08
2.4713381e-09
5.8216499e-08
2.162184e-09
5.6802796e-08
1.9127836e-09
5.5477533e-08
1.7170354e-09
5.4230142e-08
1.5683329e-09
5.3053735e-08
1.45298e-09
5.1941776e-08
1.3630182e-09
5.0886558e-08
1.2940712e-09
4.988144e-08
1.2400801e-09
4.892101e-08
1.1957415e-09
4.8001047e-08
1.1570275e-09
4.7118304e-08
1.1212497e-09
4.6270253e-08
1.0867964e-09
4.545489e-08
1.0528045e-09
4.4670581e-08
1.0188976e-09
4.3915941e-08
9.8500632e-10
4.3189745e-08
9.5123975e-10
4.2490851e-08
9.1779982e-10
4.1818157e-08
8.8491917e-10
4.1170571e-08
8.5282537e-10
4.0546997e-08
8.2171512e-10
3.9946337e-08
7.9174644e-10
3.9367487e-08
7.6303159e-10
3.8809353e-08
7.3564357e-10
3.8270854e-08
7.0961616e-10
3.7750934e-08
6.8495609e-10
3.7248572e-08
6.6163795e-10
3.6762789e-08
6.3962316e-10
3.6292651e-08
6.1886031e-10
3.583727e-08
5.9929178e-10
3.5395813e-08
5.8084809e-10
3.4967497e-08
5.6346172e-10
3.4551592e-08
5.4705853e-10
3.4147421e-08
5.315715e-10
3.3754355e-08
5.1692899e-10
3.3371812e-08
5.0306982e-10
3.2999255e-08
4.8992861e-10
3.2636188e-08
4.7745256e-10
3.2282155e-08
4.6558424e-10
3.1936732e-08
4.5428016e-10
3.1599529e-08
4.4349086e-10
3.1270184e-08
4.3318217e-10
3.0948364e-08
4.2331209e-10
3.0633755e-08
4.1385491e-10
3.0326069e-08
4.0477505e-10
3.0025033e-08
3.960539e-10
2.9730395e-08
3.8766091e-10
2.9441915e-08
3.7958339e-10
2.915937e-08
3.7179465e-10
2.8882545e-08
3.6428694e-10
2.8611244e-08
3.5703617e-10
2.8345272e-08
3.5003831e-10
2.8084453e-08
3.43271e-10
2.7828611e-08
3.3673308e-10
2.7577585e-08
3.3040326e-10
2.7331217e-08
3.2428283e-10
2.7089361e-08
3.1835124e-10
2.6851872e-08
3.1261175e-10
2.6618615e-08
3.0704411e-10
2.6389459e-08
3.0165318e-10
2.6164282e-08
2.9641874e-10
2.5942962e-08
2.9134701e-10
2.5725387e-08
2.8641768e-10
2.5511446e-08
2.8163839e-10
2.5301039e-08
2.7698878e-10
2.509406e-08
2.7247774e-10
2.4890419e-08
2.680847e-10
2.469002e-08
2.6381989e-10
2.4492779e-08
2.5966239e-10
2.4298607e-08
2.5562387e-10
2.4107428e-08
2.5168274e-10
2.3919161e-08
2.4785224e-10
2.3733735e-08
2.4410981e-10
2.3551075e-08
2.4047067e-10
2.3371118e-08
2.3691091e-10
2.3193792e-08
2.3344823e-10
2.301904e-08
2.3005664e-10
2.2846796e-08
2.2675685e-10
2.2677008e-08
2.2351996e-10
2.2509613e-08
2.2037058e-10
2.2344567e-08
2.1727593e-10
2.2181807e-08
2.1426557e-10
2.2021296e-08
2.1130174e-10
2.1862974e-08
2.084201e-10
2.1706809e-08
2.0557663e-10
2.1552743e-08
2.0281422e-10
2.1400748e-08
2.0008117e-10
2.1250769e-08
1.9742892e-10
2.1102784e-08
1.947967e-10
2.0956739e-08
1.9224598e-10
2.0812617e-08
1.8970563e-10
2.0670363e-08
1.872484e-10
2.0529969e-08
1.8479145e-10
2.0391379e-08
1.8241998e-10
2.0254591e-08
1.8003821e-10
2.0119547e-08
1.777449e-10
1.9986253e-08
1.7543026e-10
1.9854651e-08
1.732077e-10
1.9724753e-08
1.7095245e-10
1.9596498e-08
1.6879335e-10
1.9469908e-08
1.6658974e-10
1.9344919e-08
1.6448664e-10
1.922156e-08
1.6232691e-10
1.9099767e-08
1.6027228e-10
1.8979576e-08
1.5814887e-10
1.8860919e-08
1.5613507e-10
1.8743841e-08
1.5404065e-10
1.8628274e-08
1.5205975e-10
1.8514269e-08
1.49987e-10
1.8401755e-08
1.4803029e-10
1.8290794e-08
1.4597205e-10
1.8181312e-08
1.4403045e-10
1.8073376e-08
1.4197999e-10
1.7966916e-08
1.4004383e-10
1.7862002e-08
1.379943e-10
1.7758567e-08
1.3605318e-10
1.7656684e-08
1.3399759e-10
1.7556289e-08
1.3204168e-10
1.7457457e-08
1.2997322e-10
1.7360132e-08
1.2799372e-10
1.7264387e-08
1.2590408e-10
1.7170173e-08
1.2389223e-10
1.7077564e-08
1.2177058e-10
1.6986515e-08
1.1971979e-10
1.6897104e-08
1.175558e-10
1.6809285e-08
1.154638e-10
1.6723143e-08
1.1324772e-10
1.6638628e-08
1.1111327e-10
1.6555838e-08
1.0883355e-10
1.6474711e-08
1.0665408e-10
1.6395363e-08
1.0430078e-10
1.6317716e-08
1.0207508e-10
1.6241905e-08
9.964537e-11
1.6167832e-08
9.73733e-11
1.609565e-08
9.4869004e-11
1.6025245e-08
9.2548453e-11
1.5956782e-08
8.9977077e-11
1.5890131e-08
8.7608966e-11
1.5825464e-08
8.4984089e-11
1.576264e-08
8.2572355e-11
1.5701832e-08
7.9909309e-11
1.5642886e-08
7.7466375e-11
1.558597e-08
7.4787251e-11
1.5530921e-08
7.2335271e-11
1.5477901e-08
6.9658512e-11
1.5426734e-08
6.7220887e-11
1.5377578e-08
6.4566626e-11
1.5330236e-08
6.2176002e-11
1.5284862e-08
5.9573535e-11
1.524123e-08
5.7272119e-11
1.5199491e-08
5.4768116e-11
1.5159387e-08
5.2604458e-11
1.5121075e-08
5.023741e-11
1.5084275e-08
4.8232699e-11
1.5049148e-08
4.6024263e-11
1.5015396e-08
4.4194927e-11
1.4983183e-08
4.2170205e-11
1.4952196e-08
4.0535001e-11
1.4922605e-08
3.8710552e-11
1.4894095e-08
3.7268081e-11
1.4866854e-08
3.562774e-11
1.4840574e-08
3.4344503e-11
1.481547e-08
3.284466e-11
1.4791248e-08
3.1665568e-11
1.4768144e-08
3.0253565e-11
1.4745873e-08
2.9126807e-11
1.4724675e-08
2.7782165e-11
1.4704255e-08
2.6705722e-11
1.4684831e-08
2.5473378e-11
1.4666096e-08
2.4496418e-11
1.4648237e-08
2.3445229e-11
1.4630956e-08
2.2602076e-11
1.4614416e-08
2.1761141e-11
1.4598353e-08
2.103952e-11
1.4582892e-08
2.0416613e-11
1.4567803e-08
1.9811054e-11
1.455315e-08
1.9455693e-11
1.4538718e-08
1.9020169e-11
1.4524501e-08
1.9021205e-11
1.4510277e-08
1.883303e-11
1.9618336e-11
8.9422176e-08
2.5353509e-09
-8.935586e-08
8.9780171e-08
3.4510168e-09
9.002301e-08
4.270851e-09
9.0098614e-08
4.6677937e-09
9.0108495e-08
4.8314652e-09
9.0105132e-08
4.9682251e-09
9.0089397e-08
5.1521867e-09
9.0030563e-08
5.3702421e-09
8.9904325e-08
5.5674675e-09
8.9699369e-08
5.706075e-09
8.9411622e-08
5.7705113e-09
8.9039091e-08
5.7543202e-09
8.8577603e-08
5.6542815e-09
8.8026061e-08
5.4696312e-09
8.7389473e-08
5.2044249e-09
8.667544e-08
4.8700758e-09
8.589693e-08
4.4878307e-09
8.5071077e-08
4.0863834e-09
8.4215777e-08
3.6960415e-09
8.3345802e-08
3.3413132e-09
8.2471337e-08
3.0366488e-09
8.1598112e-08
2.7860085e-09
8.0728807e-08
2.5863409e-09
7.9866116e-08
2.431023e-09
7.9009714e-08
2.309382e-09
7.8159296e-08
2.2134366e-09
7.7315081e-08
2.1382861e-09
7.6476542e-08
2.0786197e-09
7.5643044e-08
2.0292389e-09
7.48142e-08
1.9858717e-09
7.3989967e-08
1.9454828e-09
7.317061e-08
1.9061539e-09
7.2356618e-08
1.8667963e-09
7.1548635e-08
1.8268803e-09
7.0747399e-08
1.786242e-09
6.9953692e-08
1.7449472e-09
6.9168294e-08
1.7031979e-09
6.8391952e-08
1.6612608e-09
6.7625355e-08
1.6194231e-09
6.6869113e-08
1.5779569e-09
6.6123754e-08
1.5371054e-09
6.5389717e-08
1.4970682e-09
6.4667355e-08
1.4580057e-09
6.3956937e-08
1.4200342e-09
6.3258653e-08
1.3832401e-09
6.2572626e-08
1.3476654e-09
6.1898914e-08
1.3133348e-09
6.123752e-08
1.2802545e-09
6.0588394e-08
1.2484175e-09
5.9951446e-08
1.2177958e-09
5.9326548e-08
1.1883598e-09
5.8713542e-08
1.1600647e-09
5.8112243e-08
1.1328703e-09
5.7522449e-08
1.1067238e-09
5.6943936e-08
1.0815825e-09
5.6376473e-08
1.0573914e-09
5.5819817e-08
1.0341093e-09
5.5273718e-08
1.0116829e-09
5.4737923e-08
9.9007503e-10
5.4212179e-08
9.6923546e-10
5.3696228e-08
9.4913305e-10
5.3189819e-08
9.2972125e-10
5.2692698e-08
9.1097514e-10
5.2204621e-08
8.9285201e-10
5.1725343e-08
8.7533258e-10
5.1254626e-08
8.5837733e-10
5.0792238e-08
8.4197221e-10
5.0337952e-08
8.2608032e-10
4.9891546e-08
8.106925e-10
4.9452809e-08
7.957735e-10
4.9021529e-08
7.8131805e-10
4.8597508e-08
7.6729203e-10
4.8180548e-08
7.5369343e-10
4.7770462e-08
7.404888e-10
4.7367066e-08
7.2767924e-10
4.6970185e-08
7.1523183e-10
4.6579647e-08
7.0315042e-10
4.6195289e-08
6.9140215e-10
4.5816949e-08
6.7999325e-10
4.5444477e-08
6.688907e-10
4.5077721e-08
6.581029e-10
4.4716542e-08
6.4759652e-10
4.4360798e-08
6.3738226e-10
4.401036e-08
6.2742662e-10
4.3665095e-08
6.177424e-10
4.3324884e-08
6.0829566e-10
4.2989603e-08
5.9910152e-10
4.265914e-08
5.901254e-10
4.2333379e-08
5.8138488e-10
4.2012217e-08
5.7284419e-10
4.1695546e-08
5.6452357e-10
4.138327e-08
5.5638559e-10
4.1075287e-08
5.4845378e-10
4.0771509e-08
5.4068851e-10
4.047184e-08
5.3311738e-10
4.0176199e-08
5.2569737e-10
3.9884495e-08
5.1846104e-10
3.9596655e-08
5.1136064e-10
3.931259e-08
5.0443502e-10
3.9032236e-08
4.9763026e-10
3.8755508e-08
4.9099309e-10
3.8482348e-08
4.8446172e-10
3.8212676e-08
4.7809258e-10
3.7946439e-08
4.7181398e-10
3.7683559e-08
4.6569384e-10
3.7423992e-08
4.5964827e-10
3.7167662e-08
4.5375878e-10
3.6914532e-08
4.4792709e-10
3.6664527e-08
4.4225068e-10
3.6417618e-08
4.3661478e-10
3.6173731e-08
4.3113489e-10
3.5932845e-08
4.2567752e-10
3.5694887e-08
4.203781e-10
3.5459843e-08
4.150823e-10
3.5227641e-08
4.0994744e-10
3.4998274e-08
4.0479651e-10
3.4771671e-08
3.998106e-10
3.4547836e-08
3.9478822e-10
3.4326693e-08
3.8993576e-10
3.4108257e-08
3.8502552e-10
3.3892454e-08
3.8029061e-10
3.3679305e-08
3.7547588e-10
3.3468734e-08
3.7084238e-10
3.3260777e-08
3.6610669e-10
3.3055353e-08
3.6155819e-10
3.2852509e-08
3.5688525e-10
3.2652164e-08
3.5240468e-10
3.2454373e-08
3.477779e-10
3.2259057e-08
3.4334673e-10
3.2066279e-08
3.3874937e-10
3.1875961e-08
3.3434818e-10
3.1688177e-08
3.29764e-10
3.1502849e-08
3.2537231e-10
3.1320059e-08
3.207846e-10
3.1139731e-08
3.1638057e-10
3.0961957e-08
3.1177204e-10
3.0786664e-08
3.0733428e-10
3.061395e-08
3.0268779e-10
3.0443747e-08
2.9819638e-10
3.0276159e-08
2.9349238e-10
3.0111124e-08
2.8892723e-10
2.9948752e-08
2.8414237e-10
2.9788985e-08
2.7948695e-10
2.9631941e-08
2.7459914e-10
2.9477561e-08
2.6984425e-10
2.9325976e-08
2.6483254e-10
2.9177119e-08
2.5997054e-10
2.9031141e-08
2.5481095e-10
2.8887962e-08
2.4983302e-10
2.8747758e-08
2.4450571e-10
2.8610425e-08
2.3940788e-10
2.8476165e-08
2.3390526e-10
2.8344852e-08
2.2868631e-10
2.8216712e-08
2.2300921e-10
2.8091592e-08
2.1766803e-10
2.796974e-08
2.1182957e-10
2.7850976e-08
2.0637275e-10
2.7735562e-08
2.0039777e-10
2.7623295e-08
1.9483948e-10
2.7514444e-08
1.8876052e-10
2.7408777e-08
1.8313286e-10
2.7306568e-08
1.7699638e-10
2.7207555e-08
1.7134848e-10
2.7112015e-08
1.6519891e-10
2.7019648e-08
1.5958746e-10
2.6930737e-08
1.5347766e-10
2.6844934e-08
1.4797926e-10
2.6762526e-08
1.4198102e-10
2.6683107e-08
1.3669173e-10
2.6606971e-08
1.3090368e-10
2.653365e-08
1.2592524e-10
2.6463461e-08
1.204266e-10
2.639588e-08
1.1581387e-10
2.633125e-08
1.1065427e-10
2.6268994e-08
1.0645069e-10
2.6209486e-08
1.0167843e-10
2.61521e-08
9.7920684e-11
2.6097254e-08
9.3556675e-11
2.6044288e-08
9.0234087e-11
2.5993683e-08
8.6232683e-11
2.5944756e-08
8.3272086e-11
2.5898064e-08
7.9536636e-11
2.5852899e-08
7.6830613e-11
2.5809894e-08
7.3257587e-11
2.5768301e-08
7.0720708e-11
2.5728804e-08
6.727852e-11
2.5690585e-08
6.4925399e-11
2.5654359e-08
6.1699356e-11
2.5619227e-08
5.9628416e-11
2.5585939e-08
5.6733189e-11
2.5553535e-08
5.5005531e-11
2.5522817e-08
5.2479002e-11
2.549278e-08
5.1076499e-11
2.5464273e-08
4.8924015e-11
2.5436233e-08
4.7850714e-11
2.5409532e-08
4.6156942e-11
2.5383029e-08
4.5522823e-11
2.5357574e-08
4.4476843e-11
2.5332e-08
4.4406468e-11
4.4910678e-11
9.3178218e-08
2.5362279e-09
-9.3179095e-08
9.3399803e-08
3.2294314e-09
9.3682328e-08
3.9883264e-09
9.3885393e-08
4.4647283e-09
9.401076e-08
4.7060984e-09
9.4126634e-08
4.8523515e-09
9.4272231e-08
5.0065892e-09
9.444295e-08
5.1995234e-09
9.461939e-08
5.3910272e-09
9.4783555e-08
5.5419097e-09
9.4924263e-08
5.6298037e-09
9.5034523e-08
5.6440607e-09
9.5104984e-08
5.5838202e-09
9.5126251e-08
5.4483639e-09
9.5090994e-08
5.2396824e-09
9.4993896e-08
4.9671731e-09
9.4834391e-08
4.6473363e-09
9.4617495e-08
4.3032793e-09
9.4352682e-08
3.9608545e-09
9.4050835e-08
3.6431597e-09
9.3721758e-08
3.3657261e-09
9.3372569e-08
3.1351977e-09
9.3008271e-08
2.9506386e-09
9.2632859e-08
2.8064348e-09
9.2247486e-08
2.6947547e-09
9.1852664e-08
2.608259e-09
9.1449406e-08
2.5415441e-09
9.1038101e-08
2.4899248e-09
9.0618487e-08
2.4488529e-09
9.0190035e-08
2.4143232e-09
8.9752265e-08
2.3832532e-09
8.9304881e-08
2.3535383e-09
8.8847793e-08
2.3238834e-09
8.8381101e-08
2.2935731e-09
8.7905057e-08
2.2622853e-09
8.742005e-08
2.2299542e-09
8.6926569e-08
2.1966789e-09
8.642518e-08
2.1626501e-09
8.5916498e-08
2.128105e-09
8.5401169e-08
2.0932862e-09
8.4879848e-08
2.0584262e-09
8.435319e-08
2.0237259e-09
8.3821838e-08
1.989358e-09
8.3286416e-08
1.9554564e-09
8.2747527e-08
1.9221291e-09
8.2205748e-08
1.889444e-09
8.1661629e-08
1.8574538e-09
8.1115694e-08
1.8261891e-09
8.056844e-08
1.7956715e-09
8.0020338e-08
1.7658984e-09
7.947183e-08
1.7368676e-09
7.8923337e-08
1.7085576e-09
7.8375253e-08
1.6809542e-09
7.7827951e-08
1.6540263e-09
7.7281777e-08
1.6277555e-09
7.6737062e-08
1.6021067e-09
7.619411e-08
1.5770618e-09
7.5653207e-08
1.5525855e-09
7.5114619e-08
1.5286629e-09
7.4578595e-08
1.5052599e-09
7.4045361e-08
1.4823667e-09
7.3515131e-08
1.4599516e-09
7.2988096e-08
1.4380101e-09
7.2464435e-08
1.4165126e-09
7.1944308e-08
1.3954596e-09
7.1427863e-08
1.3748228e-09
7.0915228e-08
1.3546072e-09
7.0406523e-08
1.3347856e-09
6.9901848e-08
1.3153668e-09
6.9401299e-08
1.2963234e-09
6.8904949e-08
1.2776674e-09
6.8412871e-08
1.2593706e-09
6.7925117e-08
1.2414473e-09
6.7441737e-08
1.2238681e-09
6.6962767e-08
1.2066497e-09
6.6488238e-08
1.1897612e-09
6.6018167e-08
1.1732214e-09
6.5552571e-08
1.1569976e-09
6.5091454e-08
1.1411103e-09
6.463482e-08
1.1255248e-09
6.418266e-08
1.1102631e-09
6.3734968e-08
1.0952886e-09
6.3291725e-08
1.0806253e-09
6.2852917e-08
1.0662346e-09
6.2418516e-08
1.0521425e-09
6.1988504e-08
1.0383083e-09
6.1562845e-08
1.0247603e-09
6.1141515e-08
1.0114557e-09
6.0724474e-08
9.9842537e-10
6.0311695e-08
9.8562367e-10
5.9903133e-08
9.7308472e-10
5.949876e-08
9.6075932e-10
5.9098528e-08
9.4868581e-10
5.8702405e-08
9.3681089e-10
5.8310344e-08
9.2517825e-10
5.7922313e-08
9.1372896e-10
5.7538261e-08
9.0251333e-10
5.7158156e-08
8.9146513e-10
5.6781948e-08
8.8064322e-10
5.6409606e-08
8.6997209e-10
5.6041078e-08
8.5952134e-10
5.5676336e-08
8.4920393e-10
5.5315325e-08
8.3910283e-10
5.4958023e-08
8.2911675e-10
5.4604372e-08
8.1934447e-10
5.4254353e-08
8.0966731e-10
5.3907909e-08
8.0020289e-10
5.3565024e-08
7.9081206e-10
5.322564e-08
7.8163466e-10
5.2889747e-08
7.7250814e-10
5.2557284e-08
7.6359747e-10
5.2228248e-08
7.5471354e-10
5.1902577e-08
7.4604926e-10
5.1580273e-08
7.3738586e-10
5.1261274e-08
7.2894715e-10
5.0945588e-08
7.2048189e-10
5.0633151e-08
7.1224767e-10
5.0323981e-08
7.0395799e-10
5.001801e-08
6.9590671e-10
4.9715267e-08
6.8776929e-10
4.9415679e-08
6.7987826e-10
4.9119286e-08
6.7186881e-10
4.8826014e-08
6.641144e-10
4.8535913e-08
6.5620816e-10
4.8248905e-08
6.4856582e-10
4.7965053e-08
6.4073769e-10
4.7684276e-08
6.3318141e-10
4.7406649e-08
6.2540516e-10
4.7132089e-08
6.179063e-10
4.6860684e-08
6.1015469e-10
4.6592349e-08
6.026828e-10
4.6327184e-08
5.9492857e-10
4.6065105e-08
5.8745128e-10
4.5806224e-08
5.7966597e-10
4.5550456e-08
5.7214838e-10
4.5297926e-08
5.6430192e-10
4.5048551e-08
5.5670907e-10
4.4802468e-08
5.4877098e-10
4.4559595e-08
5.4106931e-10
4.4320082e-08
5.3300562e-10
4.4083848e-08
5.25161e-10
4.3851058e-08
5.169323e-10
4.362163e-08
5.0891495e-10
4.3395746e-08
5.0048352e-10
4.3173317e-08
4.9227373e-10
4.2954545e-08
4.8360363e-10
4.2739332e-08
4.7518402e-10
4.2527908e-08
4.6623503e-10
4.2320154e-08
4.57587e-10
4.2116334e-08
4.4832555e-10
4.1916302e-08
4.3943982e-10
4.1720357e-08
4.298505e-10
4.1528321e-08
4.2072278e-10
4.1340527e-08
4.1080241e-10
4.1156763e-08
4.0143211e-10
4.0977395e-08
3.9119831e-10
4.0802168e-08
3.8159931e-10
4.0631478e-08
3.7108806e-10
4.046503e-08
3.6128765e-10
4.0303239e-08
3.5055095e-10
4.0145765e-08
3.4060717e-10
3.999304e-08
3.2972071e-10
3.9844672e-08
3.1971733e-10
3.9701111e-08
3.0875904e-10
3.9561901e-08
2.9879804e-10
3.9427513e-08
2.8786517e-10
3.9297411e-08
2.7808162e-10
3.917209e-08
2.6730214e-10
3.9050918e-08
2.5786352e-10
3.8934418e-08
2.4740359e-10
3.8821861e-08
2.3848293e-10
3.8713809e-08
2.2847763e-10
3.8609441e-08
2.2018186e-10
3.8509373e-08
2.1072242e-10
3.8412687e-08
2.0313744e-10
3.832006e-08
1.9430468e-10
3.8230485e-08
1.874957e-10
3.8144724e-08
1.7931798e-10
3.8061689e-08
1.7326889e-10
3.7982255e-08
1.6566693e-10
3.7905265e-08
1.6026211e-10
3.7831725e-08
1.5307659e-10
3.7760405e-08
1.4815097e-10
3.7692444e-08
1.4121807e-10
3.7626514e-08
1.3665087e-10
3.7563869e-08
1.2992378e-10
3.7503043e-08
1.2575079e-10
3.7445386e-08
1.1935622e-10
3.7389282e-08
1.1573263e-10
3.7336182e-08
1.0983287e-10
3.7284336e-08
1.0685173e-10
3.7235322e-08
1.0149354e-10
3.7187267e-08
9.9131342e-11
3.7141871e-08
9.4319774e-11
3.7097138e-08
9.2584228e-11
3.7054839e-08
8.8455749e-11
3.7012874e-08
8.7487828e-11
3.6972951e-08
8.439998e-11
3.6933032e-08
8.432556e-11
8.3690572e-11
9.7094159e-08
2.5416761e-09
-9.7099607e-08
9.7222189e-08
3.1014011e-09
9.7466041e-08
3.7444747e-09
9.7696967e-08
4.2338016e-09
9.7864272e-08
4.5387937e-09
9.7998469e-08
4.7181545e-09
9.8148931e-08
4.8561268e-09
9.8334335e-08
5.0141199e-09
9.8544312e-08
5.1810499e-09
9.8763552e-08
5.3226696e-09
9.8979652e-08
5.4137038e-09
9.9184006e-08
5.4397067e-09
9.9370052e-08
5.397774e-09
9.9530583e-08
5.2878326e-09
9.9657687e-08
5.1125791e-09
9.9744549e-08
4.8803106e-09
9.978729e-08
4.6045957e-09
9.9786234e-08
4.3043349e-09
9.9746113e-08
4.0009755e-09
9.9674516e-08
3.7147564e-09
9.9579498e-08
3.4607448e-09
9.9467835e-08
3.2468604e-09
9.9344633e-08
3.0738401e-09
9.9213425e-08
2.9376433e-09
9.9075881e-08
2.8322989e-09
9.8932791e-08
2.7513492e-09
9.8785002e-08
2.6893322e-09
9.8633027e-08
2.6419005e-09
9.8476715e-08
2.605165e-09
9.8315413e-08
2.5756247e-09
9.814827e-08
2.5503964e-09
9.7974453e-08
2.5273548e-09
9.7793247e-08
2.50509e-09
9.7604069e-08
2.4827504e-09
9.7406473e-08
2.4598815e-09
9.7200134e-08
2.4362937e-09
9.6984838e-08
2.4119744e-09
9.6760472e-08
2.3870161e-09
9.6527004e-08
2.3615737e-09
9.6284467e-08
2.3358227e-09
9.6032951e-08
2.3099428e-09
9.5772582e-08
2.2840942e-09
9.5503521e-08
2.2584194e-09
9.5225948e-08
2.2330289e-09
9.4940064e-08
2.2080134e-09
9.4646078e-08
2.1834297e-09
9.4344209e-08
2.1593231e-09
9.4034684e-08
2.1357144e-09
9.3717734e-08
2.1126208e-09
9.3393598e-08
2.0900345e-09
9.3062515e-08
2.0679513e-09
9.2724727e-08
2.0463454e-09
9.2380479e-08
2.0252016e-09
9.2030021e-08
2.0044847e-09
9.16736e-08
1.9841764e-09
9.1311469e-08
1.9642378e-09
9.094388e-08
1.9446516e-09
9.0571086e-08
1.9253791e-09
9.0193342e-08
1.9064073e-09
8.9810902e-08
1.8876991e-09
8.9424021e-08
1.869248e-09
8.9032953e-08
1.8510193e-09
8.863795e-08
1.8330135e-09
8.8239264e-08
1.8151987e-09
8.7837142e-08
1.7975815e-09
8.7431833e-08
1.7801322e-09
8.7023577e-08
1.7628631e-09
8.6612617e-08
1.7457458e-09
8.6199185e-08
1.7287985e-09
8.5783516e-08
1.7119927e-09
8.5365832e-08
1.695351e-09
8.4946358e-08
1.6788444e-09
8.4525306e-08
1.6624992e-09
8.410289e-08
1.6462848e-09
8.3679308e-08
1.6302313e-09
8.3254763e-08
1.6143065e-09
8.2829441e-08
1.5985435e-09
8.2403531e-08
1.5829075e-09
8.1977206e-08
1.5674349e-09
8.1550643e-08
1.5520878e-09
8.1124001e-08
1.5369052e-09
8.0697443e-08
1.5218464e-09
8.0271116e-08
1.506953e-09
7.9845169e-08
1.4921816e-09
7.9419735e-08
1.4775766e-09
7.8994952e-08
1.4630911e-09
7.8570939e-08
1.4487731e-09
7.8147823e-08
1.4345716e-09
7.772571e-08
1.4205386e-09
7.7304715e-08
1.4066183e-09
7.6884933e-08
1.3928672e-09
7.6466468e-08
1.3792239e-09
7.6049403e-08
1.3657505e-09
7.5633835e-08
1.3523792e-09
7.5219834e-08
1.3391795e-09
7.4807488e-08
1.3260749e-09
7.4396857e-08
1.3131437e-09
7.3988024e-08
1.3002989e-09
7.3581037e-08
1.2876303e-09
7.3175971e-08
1.2750375e-09
7.2772868e-08
1.2626245e-09
7.2371797e-08
1.2502748e-09
7.197279e-08
1.23811e-09
7.1575913e-08
1.2259939e-09
7.1181189e-08
1.2140689e-09
7.0788681e-08
1.2021752e-09
7.0398404e-08
1.1904799e-09
7.001042e-08
1.1787955e-09
6.9624737e-08
1.1673182e-09
6.9241416e-08
1.1558289e-09
6.8860456e-08
1.1445571e-09
6.8481922e-08
1.1332477e-09
6.8105804e-08
1.1221674e-09
6.7732169e-08
1.1110208e-09
6.7361e-08
1.1001159e-09
6.6992369e-08
1.0891132e-09
6.6626251e-08
1.0783661e-09
6.6262722e-08
1.0674868e-09
6.590175e-08
1.056878e-09
6.5543421e-08
1.0460992e-09
6.5187692e-08
1.0356065e-09
6.4834658e-08
1.024903e-09
6.4484271e-08
1.0145017e-09
6.4136633e-08
1.0038462e-09
6.3791689e-08
9.9350943e-10
6.3449554e-08
9.8287309e-10
6.3110164e-08
9.7257108e-10
6.2773647e-08
9.6192222e-10
6.2439933e-08
9.5162072e-10
6.2109162e-08
9.4092515e-10
6.1781258e-08
9.305865e-10
6.1456378e-08
9.1980867e-10
6.1134438e-08
9.0939186e-10
6.081561e-08
8.9849359e-10
6.0499805e-08
8.8795332e-10
6.0187214e-08
8.7689308e-10
5.987774e-08
8.661826e-10
5.9571594e-08
8.549172e-10
5.9268673e-08
8.4399056e-10
5.8969207e-08
8.3247172e-10
5.8673086e-08
8.2128135e-10
5.8380566e-08
8.0945326e-10
5.8091525e-08
7.9795581e-10
5.7806244e-08
7.8576394e-10
5.752459e-08
7.7392806e-10
5.7246874e-08
7.6131989e-10
5.6972941e-08
7.4911706e-10
5.6703141e-08
7.3603449e-10
5.6437293e-08
7.2343473e-10
5.6175791e-08
7.0982803e-10
5.5918416e-08
6.9681481e-10
5.5665609e-08
6.8265792e-10
5.5417109e-08
6.6922235e-10
5.5173407e-08
6.5450495e-10
5.4934193e-08
6.4064571e-10
5.4700004e-08
6.2538699e-10
5.4470478e-08
6.1112534e-10
5.4246196e-08
5.9537021e-10
5.4026737e-08
5.8074704e-10
5.3812722e-08
5.6456522e-10
5.3603663e-08
5.4966669e-10
5.340022e-08
5.3316371e-10
5.3201825e-08
5.1811178e-10
5.3009183e-08
5.0140114e-10
5.2821632e-08
4.8634922e-10
5.2639919e-08
4.6957817e-10
5.2463273e-08
4.5472777e-10
5.2292489e-08
4.3808648e-10
5.2126666e-08
4.236863e-10
5.1966652e-08
4.0741755e-10
5.181141e-08
3.9372521e-10
5.1661856e-08
3.7803176e-10
5.1516815e-08
3.6522286e-10
5.1377286e-08
3.5025053e-10
5.1241955e-08
3.3846918e-10
5.1111917e-08
3.243421e-10
5.0985716e-08
3.1369666e-10
5.0864574e-08
3.004605e-10
5.07469e-08
2.9094308e-10
5.0634074e-08
2.7849295e-10
5.0524379e-08
2.6995626e-10
5.0419382e-08
2.5807439e-10
5.031723e-08
2.5030243e-10
5.0219684e-08
2.3876448e-10
5.0124731e-08
2.3160336e-10
5.0034312e-08
2.2034276e-10
4.9946214e-08
2.1384849e-10
4.9862543e-08
2.0302816e-10
4.9780862e-08
1.9741346e-10
4.9703451e-08
1.8724381e-10
4.9627664e-08
1.8263854e-10
4.9555976e-08
1.7318181e-10
4.9485547e-08
1.6955972e-10
4.9419037e-08
1.6082969e-10
4.9353427e-08
1.5819415e-10
4.9291489e-08
1.5039411e-10
4.923008e-08
1.4889647e-10
4.9171899e-08
1.4258173e-10
4.9113856e-08
1.4236813e-10
1.3936177e-10
1.0114921e-07
2.542409e-09
-1.0114995e-07
1.0123481e-07
3.0158008e-09
1.0142992e-07
3.5493635e-09
1.0164958e-07
4.0141437e-09
1.0183901e-07
4.3493626e-09
1.0199265e-07
4.5645204e-09
1.0214223e-07
4.7065478e-09
1.0231548e-07
4.8408707e-09
1.0251565e-07
4.9808798e-09
1.0273162e-07
5.1066986e-09
1.029505e-07
5.1948231e-09
1.0316202e-07
5.228187e-09
1.0336012e-07
5.1996748e-09
1.0353934e-07
5.1086047e-09
1.0369346e-07
4.9584612e-09
1.0381697e-07
4.7567998e-09
1.0390607e-07
4.5155013e-09
1.0396007e-07
4.2503274e-09
1.0398194e-07
3.9791101e-09
1.0397752e-07
3.719176e-09
1.0395383e-07
3.484437e-09
1.039174e-07
3.283288e-09
1.0387325e-07
3.117988e-09
1.0382472e-07
2.9861766e-09
1.0377385e-07
2.8831672e-09
1.0372181e-07
2.8033946e-09
1.0366944e-07
2.7416992e-09
1.0361738e-07
2.6939609e-09
1.0356577e-07
2.6567711e-09
1.0351426e-07
2.6271386e-09
1.0346215e-07
2.6024998e-09
1.0340867e-07
2.5808349e-09
1.0335306e-07
2.5607074e-09
1.0329462e-07
2.5411879e-09
1.0323277e-07
2.5217335e-09
1.0316699e-07
2.5020682e-09
1.0309687e-07
2.4820984e-09
1.0302204e-07
2.461842e-09
1.0294223e-07
2.4413886e-09
1.0285719e-07
2.4208575e-09
1.0276675e-07
2.4003829e-09
1.0267076e-07
2.3800879e-09
1.0256909e-07
2.3600868e-09
1.0246165e-07
2.3404668e-09
1.0234837e-07
2.3213016e-09
1.0222916e-07
2.302635e-09
1.0210398e-07
2.2845031e-09
1.0197278e-07