/*--------------------------------*- C++ -*----------------------------------*\
| =========                 |                                                 |
| \\      /  F ield         | OpenFOAM: The Open Source CFD Toolbox           |
|  \\    /   O peration     | Version:  5.x                                   |
|   \\  /    A nd           | Web:      www.OpenFOAM.org                      |
|    \\/     M anipulation  |                                                 |
\*---------------------------------------------------------------------------*/
FoamFile
{
    version     2.0;
    format      ascii;
    class       volVectorField;
    location    "0.2";
    object      U;
}
// * * * * * * * * * * * * * * * * * * * * * * * * * * * * * * * * * * * * * //

dimensions      [0 1 -1 0 0 0 0];

internalField   nonuniform List<vector> 
21600
(
(0.94280477 0.0081654835 0)
(0.89620372 0.012250871 0)
(0.85173563 0.01394051 0)
(0.80662013 0.014111691 0)
(0.76000908 0.013758993 0)
(0.71208845 0.013402072 0)
(0.66347222 0.013132236 0)
(0.61479745 0.012851369 0)
(0.56660726 0.01244205 0)
(0.51941435 0.01183858 0)
(0.47374484 0.0110177 0)
(0.43021179 0.0099838775 0)
(0.38947718 0.0087432725 0)
(0.35233218 0.0073241288 0)
(0.31937019 0.005743616 0)
(0.2910452 0.0040847023 0)
(0.26750919 0.0024993376 0)
(0.24855306 0.0011508501 0)
(0.23365982 0.00014603675 0)
(0.2221606 -0.00049909305 0)
(0.21336968 -0.00084308226 0)
(0.20664202 -0.00097222569 0)
(0.20142128 -0.0009622635 0)
(0.19723245 -0.00086174784 0)
(0.19371611 -0.00071114286 0)
(0.19061227 -0.00054394421 0)
(0.18772885 -0.00038163865 0)
(0.18493816 -0.00023778666 0)
(0.18216702 -0.00011915942 0)
(0.1793824 -2.6816132e-05 0)
(0.17657783 4.1702871e-05 0)
(0.17376237 9.0295139e-05 0)
(0.17095253 0.00012306206 0)
(0.16816689 0.00014375356 0)
(0.16542286 0.00015555928 0)
(0.16273516 0.00016105554 0)
(0.16011516 0.00016223882 0)
(0.15757091 0.00016059691 0)
(0.15510742 0.00015720023 0)
(0.15272713 0.00015278805 0)
(0.15043045 0.0001478531 0)
(0.1482162 0.00014270799 0)
(0.14608211 0.00013754533 0)
(0.14402513 0.00013247565 0)
(0.14204178 0.00012756263 0)
(0.14012828 0.00012283077 0)
(0.13828084 0.00011829091 0)
(0.13649566 0.00011394786 0)
(0.13476904 0.00010980549 0)
(0.13309744 0.00010585967 0)
(0.13147754 0.00010210857 0)
(0.12990622 9.8544157e-05 0)
(0.12838056 9.516191e-05 0)
(0.12689789 9.1950504e-05 0)
(0.12545575 8.8903352e-05 0)
(0.12405189 8.600724e-05 0)
(0.12268423 8.3255345e-05 0)
(0.12135091 8.0634102e-05 0)
(0.12005018 7.8137568e-05 0)
(0.11878051 7.5752622e-05 0)
(0.11754041 7.3474943e-05 0)
(0.11632863 7.1292432e-05 0)
(0.11514391 6.9202671e-05 0)
(0.11398518 6.7194592e-05 0)
(0.11285136 6.5267563e-05 0)
(0.11174157 6.34114e-05 0)
(0.11065483 6.1627073e-05 0)
(0.10959039 5.9905124e-05 0)
(0.10854739 5.8247921e-05 0)
(0.10752517 5.6646483e-05 0)
(0.10652294 5.5104174e-05 0)
(0.10554014 5.3612158e-05 0)
(0.10457601 5.2174532e-05 0)
(0.10363009 5.0782544e-05 0)
(0.10270166 4.9440913e-05 0)
(0.10179031 4.8140916e-05 0)
(0.10089537 4.6887757e-05 0)
(0.10001648 4.5672703e-05 0)
(0.099152996 4.4501286e-05 0)
(0.098304635 4.336468e-05 0)
(0.097470746 4.2268639e-05 0)
(0.096651122 4.1204314e-05 0)
(0.095845123 4.0177766e-05 0)
(0.095052598 3.9180129e-05 0)
(0.094272917 3.8217669e-05 0)
(0.093505984 3.7281451e-05 0)
(0.092751176 3.6378011e-05 0)
(0.092008453 3.5498332e-05 0)
(0.091277191 3.4649312e-05 0)
(0.090557404 3.3821726e-05 0)
(0.089848469 3.3022914e-05 0)
(0.089150449 3.2243245e-05 0)
(0.088462718 3.149072e-05 0)
(0.08778539 3.0755149e-05 0)
(0.087117831 3.0045507e-05 0)
(0.086460206 2.9350687e-05 0)
(0.085811866 2.8680853e-05 0)
(0.08517303 2.8023538e-05 0)
(0.084543033 2.7390551e-05 0)
(0.083922147 2.6767749e-05 0)
(0.083309685 2.6169101e-05 0)
(0.082705974 2.5578237e-05 0)
(0.0821103 2.5011665e-05 0)
(0.081523051 2.4450247e-05 0)
(0.080943477 2.39136e-05 0)
(0.08037203 2.3379401e-05 0)
(0.079807921 2.2870832e-05 0)
(0.079251671 2.2361795e-05 0)
(0.078702441 2.1879373e-05 0)
(0.078160833 2.1393386e-05 0)
(0.077625949 2.0935367e-05 0)
(0.077098477 2.0470798e-05 0)
(0.07657745 2.0035732e-05 0)
(0.076063651 1.9590904e-05 0)
(0.075556036 1.9177105e-05 0)
(0.075055493 1.8750443e-05 0)
(0.07456089 1.8356601e-05 0)
(0.074073229 1.7946829e-05 0)
(0.07359128 1.7571509e-05 0)
(0.073116169 1.7177169e-05 0)
(0.072646559 1.6819022e-05 0)
(0.072183709 1.6439015e-05 0)
(0.071726164 1.609677e-05 0)
(0.071275329 1.5729883e-05 0)
(0.070829622 1.5402171e-05 0)
(0.070390595 1.5047577e-05 0)
(0.06995654 1.4733155e-05 0)
(0.06952916 1.4390017e-05 0)
(0.069106615 1.4087378e-05 0)
(0.068690759 1.3755164e-05 0)
(0.068279629 1.3462868e-05 0)
(0.067875221 1.314118e-05 0)
(0.067475457 1.2857603e-05 0)
(0.067082461 1.2546134e-05 0)
(0.066694064 1.2269633e-05 0)
(0.066312492 1.1968017e-05 0)
(0.065935512 1.1697286e-05 0)
(0.065565419 1.1405233e-05 0)
(0.065199951 1.1139509e-05 0)
(0.06484143 1.0856184e-05 0)
(0.064487618 1.0594817e-05 0)
(0.064140814 1.0318402e-05 0)
(0.063798857 1.0061321e-05 0)
(0.063463968 9.7899252e-06 0)
(0.063134106 9.5382832e-06 0)
(0.062811357 9.2703358e-06 0)
(0.062493856 9.0255338e-06 0)
(0.0621835 8.759015e-06 0)
(0.061878661 8.5213779e-06 0)
(0.061580993 8.2543525e-06 0)
(0.061289162 8.0236425e-06 0)
(0.061004498 7.7562053e-06 0)
(0.060726032 7.5319697e-06 0)
(0.060454685 7.265207e-06 0)
(0.060189947 7.0453942e-06 0)
(0.059932219 6.7810302e-06 0)
(0.059681567 6.5637503e-06 0)
(0.059437724 6.3042985e-06 0)
(0.059201488 6.0878177e-06 0)
(0.058971742 5.8345265e-06 0)
(0.058750206 5.6184883e-06 0)
(0.058534681 5.3733549e-06 0)
(0.058328026 5.1598662e-06 0)
(0.058126712 4.9228418e-06 0)
(0.057935022 4.7128656e-06 0)
(0.057747803 4.4827423e-06 0)
(0.057571068 4.2778724e-06 0)
(0.057397684 4.0545501e-06 0)
(0.057235738 3.8573748e-06 0)
(0.057075688 3.6458038e-06 0)
(0.056928078 3.4620651e-06 0)
(0.056780522 3.2672636e-06 0)
(0.056646563 3.0967403e-06 0)
(0.056510493 2.9198917e-06 0)
(0.056389416 2.7619894e-06 0)
(0.056263685 2.6064739e-06 0)
(0.056154584 2.4640322e-06 0)
(0.056037837 2.334745e-06 0)
(0.055939675 2.2100749e-06 0)
(0.055830451 2.1079258e-06 0)
(0.055742257 1.9989306e-06 0)
(0.055639225 1.9204713e-06 0)
(0.055560326 1.8202173e-06 0)
(0.055462479 1.7579444e-06 0)
(0.055392656 1.6556532e-06 0)
(0.055299346 1.6033189e-06 0)
(0.055238699 1.4934346e-06 0)
(0.05514928 1.4553187e-06 0)
(0.055097741 1.3429438e-06 0)
(0.0550111 1.3307139e-06 0)
(0.054968181 1.2217473e-06 0)
(0.054882746 1.2420424e-06 0)
(0.054847833 1.1336592e-06 0)
(0.054761896 1.1878127e-06 0)
(0.054734516 1.0742795e-06 0)
(0.054646151 1.169356e-06 0)
(0.054625843 1.0485191e-06 0)
(0.054532258 1.1996801e-06 0)
(0.054518927 1.0548893e-06 0)
(0.054415034 1.3070186e-06 0)
(0.97291182 0.015505227 0)
(0.97172377 0.022702482 0)
(0.97031589 0.026283139 0)
(0.96731319 0.027304013 0)
(0.96170807 0.027316217 0)
(0.95321227 0.027255893 0)
(0.94200731 0.02736384 0)
(0.92843965 0.027519464 0)
(0.91280795 0.027534863 0)
(0.89539111 0.027289464 0)
(0.87641165 0.026721047 0)
(0.85613917 0.025805053 0)
(0.83484691 0.024520886 0)
(0.81292744 0.022864738 0)
(0.79073256 0.020844989 0)
(0.76865917 0.01852583 0)
(0.74707493 0.01603921 0)
(0.72625545 0.013554083 0)
(0.70638293 0.011234341 0)
(0.68754478 0.0091947619 0)
(0.66978714 0.0074876254 0)
(0.65309566 0.0061090905 0)
(0.63744367 0.0050275764 0)
(0.622751 0.0041977891 0)
(0.60893243 0.0035780774 0)
(0.59591077 0.0031322716 0)
(0.58359526 0.0028223071 0)
(0.57189963 0.0026098876 0)
(0.5607506 0.0024612219 0)
(0.55008956 0.0023503712 0)
(0.53987115 0.0022596617 0)
(0.53006052 0.0021781756 0)
(0.52063095 0.0020997922 0)
(0.51156137 0.0020215265 0)
(0.50283474 0.0019423358 0)
(0.4944364 0.0018622967 0)
(0.4863532 0.0017820702 0)
(0.47857265 0.0017025445 0)
(0.47108254 0.0016246265 0)
(0.46387064 0.0015491068 0)
(0.45692467 0.0014766114 0)
(0.45023221 0.0014075726 0)
(0.44378089 0.0013422538 0)
(0.43755839 0.0012807591 0)
(0.43155264 0.0012230837 0)
(0.42575185 0.0011691224 0)
(0.42014468 0.0011187151 0)
(0.41472029 0.001071654 0)
(0.40946832 0.0010277191 0)
(0.40437903 0.00098666741 0)
(0.39944322 0.00094827112 0)
(0.39465235 0.00091229706 0)
(0.3899984 0.00087854148 0)
(0.385474 0.00084679915 0)
(0.38107222 0.00081689944 0)
(0.37678681 0.0007886686 0)
(0.37261181 0.00076196944 0)
(0.36854193 0.00073665784 0)
(0.36457206 0.00071262716 0)
(0.36069773 0.00068975905 0)
(0.35691452 0.00066797326 0)
(0.35321866 0.00064717285 0)
(0.3496063 0.00062729951 0)
(0.34607424 0.00060827297 0)
(0.34261906 0.00059005199 0)
(0.33923804 0.00057256852 0)
(0.33592812 0.00055579476 0)
(0.33268697 0.00053967177 0)
(0.32951179 0.00052418207 0)
(0.32640058 0.00050927288 0)
(0.32335077 0.00049493435 0)
(0.32036064 0.00048111774 0)
(0.31742778 0.00046781886 0)
(0.31455072 0.00045499166 0)
(0.31172719 0.0004426365 0)
(0.30895595 0.00043070936 0)
(0.30623481 0.0004192143 0)
(0.30356278 0.00040810856 0)
(0.30093773 0.00039739899 0)
(0.29835885 0.00038704379 0)
(0.2958241 0.00037705215 0)
(0.29333286 0.00036738302 0)
(0.29088312 0.00035804789 0)
(0.28847446 0.00034900655 0)
(0.28610488 0.00034027262 0)
(0.28377415 0.00033180638 0)
(0.28148031 0.0003236235 0)
(0.27922326 0.00031568456 0)
(0.27700106 0.0003080074 0)
(0.27481378 0.00030055238 0)
(0.27265948 0.0002933398 0)
(0.27053839 0.0002863293 0)
(0.26844855 0.00027954421 0)
(0.26639034 0.00027294266 0)
(0.26436178 0.0002665517 0)
(0.26236342 0.00026032682 0)
(0.26039323 0.00025429978 0)
(0.25845191 0.00024842223 0)
(0.2565374 0.00024273177 0)
(0.25465054 0.00023717466 0)
(0.25278922 0.00023179574 0)
(0.25095444 0.00022653442 0)
(0.24914402 0.00022144459 0)
(0.24735913 0.00021645706 0)
(0.24559749 0.00021163607 0)
(0.24386048 0.00020690172 0)
(0.24214566 0.00020233016 0)
(0.24045466 0.00019782954 0)
(0.23878488 0.00019348987 0)
(0.23713818 0.00018920565 0)
(0.2355118 0.00018508161 0)
(0.23390784 0.00018099721 0)
(0.23232335 0.00017707336 0)
(0.23076072 0.00017317378 0)
(0.22921675 0.00016943614 0)
(0.22769417 0.00016570721 0)
(0.22618949 0.00016214199 0)
(0.22470579 0.00015857032 0)
(0.2232393 0.00015516509 0)
(0.22179348 0.00015173851 0)
(0.2203642 0.00014848091 0)
(0.21895536 0.00014518724 0)
(0.21756247 0.00014206562 0)
(0.21618984 0.00013889428 0)
(0.21483262 0.00013589753 0)
(0.21349557 0.00013283821 0)
(0.21217346 0.00012995522 0)
(0.2108715 0.00012699886 0)
(0.20958405 0.00012421862 0)
(0.2083168 0.00012135661 0)
(0.20706374 0.00011866805 0)
(0.20583097 0.0001158932 0)
(0.20461215 0.00011328538 0)
(0.20341375 0.00011059057 0)
(0.20222919 0.0001080524 0)
(0.2010652 0.00010543108 0)
(0.19991507 0.00010295293 0)
(0.19878568 0.00010039905 0)
(0.19767031 9.7973136e-05 0)
(0.19657582 9.5479321e-05 0)
(0.19549568 9.3098493e-05 0)
(0.19443657 9.0654927e-05 0)
(0.19339231 8.8314778e-05 0)
(0.19236919 8.5912323e-05 0)
(0.19136157 8.3613037e-05 0)
(0.19037517 8.1243616e-05 0)
(0.18940507 7.8986529e-05 0)
(0.18845622 7.6640857e-05 0)
(0.18752463 7.4425321e-05 0)
(0.18661429 7.2095559e-05 0)
(0.18572229 6.9921035e-05 0)
(0.18485147 6.7606572e-05 0)
(0.1840002 6.5472953e-05 0)
(0.18316988 6.3177326e-05 0)
(0.18236049 6.1081092e-05 0)
(0.18157163 5.8811785e-05 0)
(0.18080523 5.6751248e-05 0)
(0.18005863 5.4519978e-05 0)
(0.17933623 5.249512e-05 0)
(0.1786325 5.0312305e-05 0)
(0.17795492 4.8329157e-05 0)
(0.17729436 4.6209159e-05 0)
(0.17666212 4.4281573e-05 0)
(0.17604462 4.2233069e-05 0)
(0.17545791 4.0373147e-05 0)
(0.17488296 3.840337e-05 0)
(0.17434154 3.6628033e-05 0)
(0.17380807 3.4749479e-05 0)
(0.17331114 3.3080566e-05 0)
(0.17281732 3.131986e-05 0)
(0.17236335 2.9784784e-05 0)
(0.17190659 2.816274e-05 0)
(0.17149351 2.6765919e-05 0)
(0.17107072 2.5289122e-05 0)
(0.17069618 2.4031748e-05 0)
(0.17030384 2.2710939e-05 0)
(0.16996521 2.1599417e-05 0)
(0.16959944 2.0442654e-05 0)
(0.16929402 1.9472813e-05 0)
(0.16895096 1.8467562e-05 0)
(0.16867652 1.7615227e-05 0)
(0.16835281 1.6731858e-05 0)
(0.16810797 1.5958482e-05 0)
(0.16780102 1.5160089e-05 0)
(0.16758535 1.442592e-05 0)
(0.16729309 1.3693657e-05 0)
(0.16710657 1.2989343e-05 0)
(0.16682657 1.2347097e-05 0)
(0.16666869 1.1698754e-05 0)
(0.16639749 1.1188453e-05 0)
(0.16626711 1.0615011e-05 0)
(0.16600051 1.0253448e-05 0)
(0.1658965 9.7424824e-06 0)
(0.16563005 9.5309069e-06 0)
(0.16555168 9.0703471e-06 0)
(0.16528025 9.0350764e-06 0)
(0.16522686 8.6443308e-06 0)
(0.16494321 8.831106e-06 0)
(0.16491489 8.541766e-06 0)
(0.16460747 9.1575719e-06 0)
(0.97623983 0.015441101 0)
(0.9766009 0.020972455 0)
(0.9784804 0.024705487 0)
(0.98104676 0.026461981 0)
(0.98330082 0.027135094 0)
(0.98467355 0.027565793 0)
(0.98501568 0.028131195 0)
(0.98441962 0.028811788 0)
(0.98300325 0.029434652 0)
(0.98083304 0.029837711 0)
(0.97789689 0.029914899 0)
(0.97414969 0.029599692 0)
(0.96953493 0.028852987 0)
(0.96402291 0.027655769 0)
(0.95761948 0.026032268 0)
(0.9503768 0.024053886 0)
(0.94240081 0.021844928 0)
(0.93381638 0.019561509 0)
(0.92477044 0.017362679 0)
(0.91539851 0.015371166 0)
(0.90583859 0.013656492 0)
(0.89619665 0.012232322 0)
(0.88656604 0.011077146 0)
(0.87699476 0.010148862 0)
(0.86751271 0.009405938 0)
(0.8581357 0.0088141429 0)
(0.84885492 0.0083404174 0)
(0.83965511 0.0079528685 0)
(0.83052255 0.0076234214 0)
(0.82144786 0.007330135 0)
(0.81242657 0.0070577866 0)
(0.80345822 0.0067969393 0)
(0.79454581 0.0065424114 0)
(0.78569472 0.0062918304 0)
(0.77691224 0.0060445562 0)
(0.76820654 0.0058009353 0)
(0.75958634 0.0055618281 0)
(0.75106011 0.0053282865 0)
(0.74263595 0.0051013708 0)
(0.7343211 0.0048820165 0)
(0.72612199 0.0046709865 0)
(0.71804399 0.0044688287 0)
(0.71009154 0.0042758971 0)
(0.70226809 0.0040923476 0)
(0.6945762 0.0039181884 0)
(0.68701758 0.0037532857 0)
(0.67959325 0.0035974271 0)
(0.67230355 0.003450295 0)
(0.66514819 0.0033115234 0)
(0.65812644 0.003180678 0)
(0.65123704 0.003057321 0)
(0.64447849 0.0029409791 0)
(0.63784881 0.0028312082 0)
(0.631346 0.0027275454 0)
(0.62496757 0.0026295766 0)
(0.6187112 0.0025368758 0)
(0.61257411 0.0024490769 0)
(0.60655378 0.0023658019 0)
(0.60064727 0.0022867391 0)
(0.59485202 0.0022115606 0)
(0.58916498 0.0021400097 0)
(0.58358367 0.0020718064 0)
(0.578105 0.0020067444 0)
(0.5727266 0.0019445856 0)
(0.56744539 0.0018851667 0)
(0.56225919 0.0018282841 0)
(0.55716493 0.0017738107 0)
(0.55216065 0.0017215707 0)
(0.54724332 0.0016714668 0)
(0.54241118 0.0016233445 0)
(0.53766127 0.0015771296 0)
(0.53299205 0.0015326835 0)
(0.52840061 0.0014899507 0)
(0.52388565 0.0014488047 0)
(0.51944429 0.0014092056 0)
(0.51507547 0.0013710363 0)
(0.51077635 0.0013342695 0)
(0.50654611 0.0012987953 0)
(0.5023819 0.0012645963 0)
(0.49828315 0.0012315681 0)
(0.49424703 0.001199702 0)
(0.49027319 0.0011688982 0)
(0.4863588 0.0011391556 0)
(0.48250373 0.0011103785 0)
(0.47870514 0.0010825728 0)
(0.47496313 0.0010556457 0)
(0.47127483 0.0010296099 0)
(0.46764056 0.001004375 0)
(0.46405741 0.00097995981 0)
(0.46052592 0.00095627512 0)
(0.45704314 0.00093334603 0)
(0.4536098 0.00091108325 0)
(0.45022292 0.00088951932 0)
(0.44688343 0.00086856359 0)
(0.44358829 0.0008482569 0)
(0.44033865 0.00082850465 0)
(0.43713137 0.00080935714 0)
(0.43396782 0.00079071377 0)
(0.43084479 0.00077263677 0)
(0.42776386 0.00075501697 0)
(0.42472169 0.00073793047 0)
(0.42172014 0.00072125614 0)
(0.41875572 0.00070508678 0)
(0.41583052 0.00068928667 0)
(0.41294091 0.00067396845 0)
(0.41008928 0.00065897788 0)
(0.40727176 0.00064444941 0)
(0.4044911 0.00063020685 0)
(0.40174317 0.00061641035 0)
(0.39903109 0.00060286 0)
(0.39635043 0.00058974421 0)
(0.39370472 0.00057683516 0)
(0.3910892 0.00056435072 0)
(0.38850786 0.0005520336 0)
(0.38595553 0.00054013462 0)
(0.38343674 0.00052836543 0)
(0.38094584 0.00051700975 0)
(0.37848794 0.00050574559 0)
(0.3760569 0.00049489171 0)
(0.37365844 0.00048409298 0)
(0.37128587 0.00047370344 0)
(0.36894556 0.00046333256 0)
(0.36663026 0.0004533695 0)
(0.36434703 0.00044339054 0)
(0.362088 0.00043381984 0)
(0.35986094 0.00042420061 0)
(0.35765738 0.00041498754 0)
(0.35548579 0.00040569594 0)
(0.35333711 0.00039680723 0)
(0.35122049 0.00038781472 0)
(0.34912632 0.00037921702 0)
(0.34706438 0.00037049642 0)
(0.34502459 0.00036215776 0)
(0.34301722 0.00035368392 0)
(0.34103194 0.00034557193 0)
(0.33907928 0.00033732048 0)
(0.33714886 0.00032940632 0)
(0.33525127 0.000321355 0)
(0.33337634 0.00031361319 0)
(0.33153438 0.000305738 0)
(0.32971583 0.0002981449 0)
(0.32793032 0.00029041884 0)
(0.32616929 0.00028295701 0)
(0.32444129 0.00027535612 0)
(0.32273915 0.00026801798 0)
(0.32106992 0.0002605207 0)
(0.3194282 0.00025330109 0)
(0.31781922 0.00024588397 0)
(0.31623969 0.00023877692 0)
(0.31469261 0.00023142204 0)
(0.31317718 0.00022442595 0)
(0.31169377 0.00021712979 0)
(0.31024445 0.00021024573 0)
(0.30882649 0.00020301412 0)
(0.30744533 0.0001962413 0)
(0.30609451 0.00018909139 0)
(0.30478355 0.00018243528 0)
(0.30350133 0.00017539477 0)
(0.30226245 0.00016886682 0)
(0.30105 0.00016196707 0)
(0.29988478 0.00015559367 0)
(0.29874272 0.0001488762 0)
(0.29765229 0.00014269807 0)
(0.29658064 0.00013619694 0)
(0.29556559 0.00013025635 0)
(0.29456364 0.00012400814 0)
(0.29362379 0.00011836127 0)
(0.29268988 0.00011241551 0)
(0.29182412 0.00010713052 0)
(0.29095541 0.00010155803 0)
(0.29016153 9.6704118e-05 0)
(0.28935398 9.1553883e-05 0)
(0.28862896 8.7151975e-05 0)
(0.28787771 8.2443197e-05 0)
(0.28721801 7.8503429e-05 0)
(0.28651747 7.4255249e-05 0)
(0.28591914 7.078443e-05 0)
(0.28526324 6.6995223e-05 0)
(0.28472239 6.3963449e-05 0)
(0.28410516 6.0579233e-05 0)
(0.28361865 5.7909457e-05 0)
(0.28303489 5.4839874e-05 0)
(0.28260085 5.2432054e-05 0)
(0.28204635 4.958529e-05 0)
(0.28166419 4.7358948e-05 0)
(0.28113527 4.4701919e-05 0)
(0.28080479 4.2656131e-05 0)
(0.28029714 4.0247696e-05 0)
(0.28001754 3.8446477e-05 0)
(0.2795255 3.6366346e-05 0)
(0.27929535 3.4842975e-05 0)
(0.27881238 3.3109298e-05 0)
(0.27863045 3.1835399e-05 0)
(0.27814967 3.0440517e-05 0)
(0.27801528 2.9405497e-05 0)
(0.27752889 2.8396953e-05 0)
(0.27744145 2.7675985e-05 0)
(0.27693927 2.7148611e-05 0)
(0.27689806 2.6855193e-05 0)
(0.276367 2.7420207e-05 0)
(0.9788207 0.014902511 0)
(0.97895948 0.018985015 0)
(0.98032673 0.022345132 0)
(0.98265345 0.024443664 0)
(0.98533679 0.025554747 0)
(0.98784608 0.026235629 0)
(0.98996111 0.026885695 0)
(0.99171915 0.027615311 0)
(0.99325804 0.028336277 0)
(0.99468299 0.028899102 0)
(0.99601371 0.029176987 0)
(0.99719033 0.029084792 0)
(0.99810781 0.028576926 0)
(0.99864128 0.027641872 0)
(0.99867813 0.026310727 0)
(0.99813093 0.024654987 0)
(0.99695538 0.022782315 0)
(0.99514808 0.020824241 0)
(0.99275132 0.018913763 0)
(0.98984005 0.017161049 0)
(0.98651423 0.015634261 0)
(0.98287723 0.014358221 0)
(0.97902398 0.013321661 0)
(0.97502686 0.012495041 0)
(0.9709344 0.01184011 0)
(0.96677296 0.011318539 0)
(0.96254895 0.010897591 0)
(0.9582575 0.010549674 0)
(0.95389006 0.010251795 0)
(0.94943764 0.0099856801 0)
(0.9448929 0.0097378514 0)
(0.94025031 0.0094991973 0)
(0.93550682 0.0092641326 0)
(0.93066147 0.0090296443 0)
(0.92571566 0.0087944783 0)
(0.92067243 0.0085585003 0)
(0.91553648 0.0083222588 0)
(0.91031339 0.0080866553 0)
(0.90500966 0.0078527467 0)
(0.89963201 0.0076215815 0)
(0.89418754 0.0073941317 0)
(0.8886832 0.0071712183 0)
(0.88312601 0.0069535189 0)
(0.87752264 0.0067415359 0)
(0.87187965 0.0065356439 0)
(0.86620325 0.0063360712 0)
(0.86049942 0.0061429685 0)
(0.85477383 0.0059563642 0)
(0.84903183 0.0057762337 0)
(0.84327855 0.0056024584 0)
(0.83751872 0.0054349058 0)
(0.83175697 0.0052733763 0)
(0.82599747 0.0051176878 0)
(0.82024437 0.0049676054 0)
(0.8145013 0.0048229331 0)
(0.80877199 0.0046834281 0)
(0.80305955 0.0045489012 0)
(0.79736733 0.0044191156 0)
(0.79169795 0.004293899 0)
(0.78605442 0.0041730279 0)
(0.78043887 0.0040563521 0)
(0.77485403 0.0039436643 0)
(0.76930154 0.0038348378 0)
(0.76378387 0.00372968 0)
(0.75830224 0.0036280851 0)
(0.75285885 0.003529873 0)
(0.7474545 0.0034349568 0)
(0.74209122 0.003343167 0)
(0.73676936 0.0032544334 0)
(0.73149081 0.0031685937 0)
(0.72625553 0.0030855912 0)
(0.72106527 0.0030052687 0)
(0.71591964 0.0029275807 0)
(0.71082029 0.0028523744 0)
(0.70576648 0.0027796152 0)
(0.7007598 0.0027091541 0)
(0.6957992 0.002640966 0)
(0.69088625 0.0025749048 0)
(0.68601958 0.0025109542 0)
(0.68120077 0.0024489702 0)
(0.67642819 0.0023889445 0)
(0.67170343 0.0023307359 0)
(0.66702461 0.0022743445 0)
(0.66239339 0.0022196311 0)
(0.65780765 0.0021666036 0)
(0.6532691 0.0021151251 0)
(0.64877542 0.002065212 0)
(0.64432842 0.0020167289 0)
(0.63992556 0.0019697006 0)
(0.63556876 0.0019239917 0)
(0.6312553 0.001879636 0)
(0.62698721 0.0018364967 0)
(0.6227616 0.0017946184 0)
(0.61858062 0.0017538612 0)
(0.6144412 0.0017142824 0)
(0.61034566 0.0016757361 0)
(0.60629075 0.0016382934 0)
(0.60227892 0.0016017987 0)
(0.59830678 0.0015663408 0)
(0.59437696 0.0015317513 0)
(0.59048586 0.0014981404 0)
(0.58663633 0.001465322 0)
(0.58282455 0.0014334308 0)
(0.57905362 0.0014022586 0)
(0.57531947 0.0013719694 0)
(0.57162551 0.0013423283 0)
(0.56796737 0.0013135323 0)
(0.5643488 0.0012853145 0)
(0.56076509 0.0012579089 0)
(0.55722041 0.0012310127 0)
(0.55370964 0.0012049025 0)
(0.55023742 0.0011792359 0)
(0.54679819 0.0011543335 0)
(0.54339712 0.0011298077 0)
(0.54002812 0.0011060274 0)
(0.53669698 0.001082559 0)
(0.53339703 0.0010598229 0)
(0.53013472 0.0010373351 0)
(0.52690276 0.0010155674 0)
(0.52370832 0.00099398398 0)
(0.52054343 0.0009731123 0)
(0.51741603 0.00095236381 0)
(0.51431746 0.00093231998 0)
(0.51125644 0.00091233773 0)
(0.5082236 0.00089305423 0)
(0.50522847 0.00087377585 0)
(0.50226096 0.00085519011 0)
(0.4993314 0.00083655387 0)
(0.49642906 0.0008186003 0)
(0.49356495 0.00080054883 0)
(0.49072783 0.00078316662 0)
(0.48792926 0.00076564537 0)
(0.48515769 0.00074877238 0)
(0.48242497 0.0007317299 0)
(0.47971954 0.00071530639 0)
(0.47705321 0.00069869211 0)
(0.47441484 0.00068266168 0)
(0.4718157 0.00066642907 0)
(0.46924559 0.00065074175 0)
(0.46671472 0.00063484211 0)
(0.46421441 0.00061945054 0)
(0.46175315 0.00060383196 0)
(0.45932449 0.00058869874 0)
(0.45693451 0.00057331507 0)
(0.45457964 0.00055841861 0)
(0.45226287 0.00054322879 0)
(0.4499842 0.00052855203 0)
(0.44774285 0.00051351249 0)
(0.44554303 0.00049903888 0)
(0.44337959 0.00048411732 0)
(0.44126153 0.00046984167 0)
(0.43917862 0.00045502912 0)
(0.43714537 0.00044095215 0)
(0.43514567 0.00042625532 0)
(0.4332004 0.00041238057 0)
(0.43128651 0.00039782821 0)
(0.4294324 0.00038417296 0)
(0.42760667 0.00036981211 0)
(0.42584676 0.00035640637 0)
(0.42411114 0.00034229667 0)
(0.42244818 0.00032919872 0)
(0.42080399 0.00031541876 0)
(0.41924018 0.00030270945 0)
(0.41768797 0.00028933204 0)
(0.41622482 0.00027710176 0)
(0.4147642 0.00026421008 0)
(0.41340227 0.0002525745 0)
(0.41203161 0.00024027475 0)
(0.41077028 0.00022937072 0)
(0.40948644 0.0002177973 0)
(0.40832369 0.00020775558 0)
(0.40712202 0.00019700121 0)
(0.40605476 0.00018787533 0)
(0.40492937 0.00017798242 0)
(0.40395375 0.00016980192 0)
(0.40289773 0.00016080154 0)
(0.40200932 0.00015357593 0)
(0.40101506 0.00014545037 0)
(0.40020944 0.00013911584 0)
(0.39926932 0.00013175298 0)
(0.39854291 0.00012616307 0)
(0.39765008 0.00011938993 0)
(0.39700075 0.0001143661 0)
(0.39614941 0.00010801834 0)
(0.39557646 0.00010343138 0)
(0.39476132 9.7455447e-05 0)
(0.39426458 9.3316343e-05 0)
(0.39347958 8.7807919e-05 0)
(0.39305831 8.4225304e-05 0)
(0.39229593 7.9301565e-05 0)
(0.3919488 7.632404e-05 0)
(0.39120049 7.1997853e-05 0)
(0.39092642 6.9576999e-05 0)
(0.39018323 6.5825182e-05 0)
(0.38998169 6.3947043e-05 0)
(0.38923383 6.0844695e-05 0)
(0.38910413 5.9619903e-05 0)
(0.38833993 5.7382384e-05 0)
(0.38827995 5.6914152e-05 0)
(0.38748652 5.6680344e-05 0)
(0.98088555 0.014584812 0)
(0.98096316 0.017840828 0)
(0.98196411 0.020814932 0)
(0.9838071 0.023054967 0)
(0.98615194 0.024479588 0)
(0.98857763 0.025367522 0)
(0.99081977 0.026048929 0)
(0.99283444 0.026705986 0)
(0.99471794 0.027340552 0)
(0.9965868 0.027849649 0)
(0.99850404 0.028113576 0)
(1.0004581 0.028044038 0)
(1.0023806 0.027595915 0)
(1.0041706 0.026764709 0)
(1.0057219 0.025584733 0)
(1.0069382 0.024123377 0)
(1.0077487 0.022474036 0)
(1.0081146 0.020746312 0)
(1.0080355 0.019050447 0)
(1.0075472 0.017480528 0)
(1.0067151 0.016099588 0)
(1.0056202 0.014935641 0)
(1.0043442 0.013985586 0)
(1.0029563 0.013226903 0)
(1.0015061 0.0126267 0)
(1.0000222 0.012149945 0)
(0.99851537 0.011766268 0)
(0.99698437 0.011451148 0)
(0.99542214 0.011184851 0)
(0.99381873 0.010951508 0)
(0.99216403 0.010738778 0)
(0.99044794 0.01053763 0)
(0.9886618 0.010341957 0)
(0.98679798 0.010148002 0)
(0.98485083 0.0099537649 0)
(0.9828159 0.0097584499 0)
(0.98069056 0.0095620595 0)
(0.97847301 0.0093650557 0)
(0.97616286 0.0091681548 0)
(0.97376009 0.0089721435 0)
(0.97126568 0.0087778055 0)
(0.96868067 0.0085858253 0)
(0.96600681 0.0083967954 0)
(0.96324574 0.0082111638 0)
(0.96039961 0.0080292854 0)
(0.95747039 0.0078513813 0)
(0.95446042 0.0076776079 0)
(0.95137189 0.0075080123 0)
(0.94820721 0.0073426148 0)
(0.94496871 0.0071813474 0)
(0.94165883 0.0070241478 0)
(0.93828 0.0068708835 0)
(0.93483469 0.0067214552 0)
(0.93132542 0.0065757023 0)
(0.92775465 0.0064335179 0)
(0.924125 0.0062947353 0)
(0.92043887 0.0061592565 0)
(0.91669902 0.0060269207 0)
(0.91290777 0.0058976474 0)
(0.90906797 0.0057712868 0)
(0.90518187 0.0056477804 0)
(0.9012524 0.0055269918 0)
(0.8972817 0.005408885 0)
(0.8932728 0.0052933348 0)
(0.88922768 0.0051803247 0)
(0.88514944 0.0050697373 0)
(0.88103989 0.0049615733 0)
(0.87690219 0.0048557213 0)
(0.87273797 0.0047521959 0)
(0.86855042 0.0046508879 0)
(0.86434093 0.0045518223 0)
(0.86011277 0.0044548885 0)
(0.85586706 0.0043601192 0)
(0.8516071 0.0042674014 0)
(0.84733375 0.0041767751 0)
(0.84305034 0.004088124 0)
(0.83875746 0.0040014935 0)
(0.83445844 0.0039167633 0)
(0.83015361 0.0038339831 0)
(0.82584631 0.0037530275 0)
(0.82153657 0.0036739502 0)
(0.81722777 0.0035966213 0)
(0.81291966 0.003521099 0)
(0.8086156 0.0034472487 0)
(0.80431509 0.0033751332 0)
(0.8000215 0.003304613 0)
(0.79573405 0.0032357566 0)
(0.79145612 0.0031684194 0)
(0.78718669 0.0031026769 0)
(0.78292912 0.0030383777 0)
(0.77868219 0.0029756049 0)
(0.77444923 0.0029141991 0)
(0.7702288 0.0028542541 0)
(0.76602424 0.002795601 0)
(0.76183392 0.0027383473 0)
(0.75766116 0.0026823112 0)
(0.75350413 0.0026276165 0)
(0.74936618 0.0025740641 0)
(0.74524529 0.0025217987 0)
(0.74114483 0.0024706 0)
(0.73706257 0.0024206393 0)
(0.73300195 0.0023716701 0)
(0.72896053 0.0023238953 0)
(0.72494183 0.0022770356 0)
(0.72094319 0.0022313307 0)
(0.71696826 0.002186463 0)
(0.71301409 0.0021427162 0)
(0.70908456 0.0020997281 0)
(0.70517637 0.0020578313 0)
(0.70129368 0.0020166129 0)
(0.69743281 0.0019764608 0)
(0.69359826 0.0019369071 0)
(0.68978592 0.0018984007 0)
(0.68600068 0.0018604115 0)
(0.68223796 0.001823452 0)
(0.67850313 0.0017869265 0)
(0.67479104 0.0017514181 0)
(0.67110763 0.0017162625 0)
(0.66744716 0.0016821145 0)
(0.66381616 0.0016482345 0)
(0.66020827 0.0016153533 0)
(0.65663064 0.0015826571 0)
(0.65307631 0.0015509556 0)
(0.64955306 0.0015193558 0)
(0.64605333 0.0014887449 0)
(0.64258548 0.0014581541 0)
(0.63914147 0.0014285489 0)
(0.63573013 0.0013988855 0)
(0.63234308 0.0013701975 0)
(0.62898945 0.0013413775 0)
(0.62566076 0.0013135207 0)
(0.62236617 0.0012854681 0)
(0.61909744 0.0012583559 0)
(0.61586334 0.0012309929 0)
(0.6126564 0.0012045399 0)
(0.60948443 0.0011777921 0)
(0.6063414 0.0011519158 0)
(0.60323337 0.0011257111 0)
(0.60015664 0.0011003375 0)
(0.59711462 0.0010746021 0)
(0.5941069 0.0010496596 0)
(0.59113322 0.0010243149 0)
(0.58819751 0.00099974458 0)
(0.58529479 0.00097471992 0)
(0.58243441 0.00095048397 0)
(0.57960557 0.00092571631 0)
(0.57682412 0.00090178398 0)
(0.57407238 0.00087720754 0)
(0.57137371 0.00085354931 0)
(0.56870259 0.00082911444 0)
(0.56609085 0.00080571994 0)
(0.56350405 0.00078141043 0)
(0.56098358 0.00075827939 0)
(0.55848487 0.00073410077 0)
(0.55606021 0.00071124157 0)
(0.55365331 0.00068723413 0)
(0.55132905 0.00066467932 0)
(0.54901742 0.00064091078 0)
(0.54679811 0.00061871299 0)
(0.5445848 0.00059527444 0)
(0.54247473 0.00057353197 0)
(0.54036212 0.00055054584 0)
(0.53836508 0.00052938906 0)
(0.53635473 0.00050697575 0)
(0.5344738 0.00048655683 0)
(0.53256624 0.00046485956 0)
(0.53080347 0.00044536901 0)
(0.52899789 0.00042456487 0)
(0.52735407 0.00040622669 0)
(0.52564796 0.00038653143 0)
(0.52412239 0.00036955828 0)
(0.52251154 0.00035112626 0)
(0.52110224 0.00033562487 0)
(0.51958091 0.00031853758 0)
(0.51828491 0.00030457356 0)
(0.51684601 0.00028888535 0)
(0.51565964 0.00027648357 0)
(0.51429509 0.00026216725 0)
(0.51321446 0.00025123696 0)
(0.5119159 0.00023812215 0)
(0.51093782 0.00022844716 0)
(0.50969735 0.00021627107 0)
(0.50881997 0.00020758835 0)
(0.50763057 0.00019610296 0)
(0.50685342 0.00018822683 0)
(0.50570847 0.0001773477 0)
(0.50503172 0.00017029636 0)
(0.50392383 0.00016015085 0)
(0.50334727 0.00015407812 0)
(0.5022676 0.00014482143 0)
(0.50179049 0.0001397931 0)
(0.50072905 0.0001314349 0)
(0.50035081 0.00012737805 0)
(0.4992971 0.00011988307 0)
(0.49901757 0.00011676341 0)
(0.49796037 0.00011025203 0)
(0.49777901 0.00010817497 0)
(0.49670565 0.00010303842 0)
(0.49661999 0.0001020644 0)
(0.49551686 9.992445e-05 0)
(0.98265024 0.014418925 0)
(0.98272661 0.017159714 0)
(0.98352553 0.019791099 0)
(0.98501858 0.021988515 0)
(0.98701165 0.023571768 0)
(0.98920825 0.024615111 0)
(0.99135846 0.025340775 0)
(0.99335652 0.025935896 0)
(0.99522997 0.026464182 0)
(0.9970636 0.026879029 0)
(0.99892595 0.027088712 0)
(1.0008321 0.027010906 0)
(1.0027445 0.026599542 0)
(1.004591 0.02584966 0)
(1.0062871 0.024792466 0)
(1.0077519 0.023487711 0)
(1.0089212 0.022015638 0)
(1.0097553 0.020467952 0)
(1.0102444 0.018936932 0)
(1.010409 0.017503371 0)
(1.0102972 0.016225425 0)
(1.009974 0.015133182 0)
(1.0095101 0.014230155 0)
(1.0089689 0.013500406 0)
(1.0083993 0.012916879 0)
(1.0078321 0.012449276 0)
(1.0072826 0.012070245 0)
(1.0067537 0.01175762 0)
(1.0062421 0.011493858 0)