/*--------------------------------*- C++ -*----------------------------------*\
| =========                 |                                                 |
| \\      /  F ield         | OpenFOAM: The Open Source CFD Toolbox           |
|  \\    /   O peration     | Version:  5.x                                   |
|   \\  /    A nd           | Web:      www.OpenFOAM.org                      |
|    \\/     M anipulation  |                                                 |
\*---------------------------------------------------------------------------*/
FoamFile
{
    version     2.0;
    format      ascii;
    class       volScalarField;
    location    "0.2";
    object      p;
}
// * * * * * * * * * * * * * * * * * * * * * * * * * * * * * * * * * * * * * //

dimensions      [0 2 -2 0 0 0 0];

internalField   nonuniform List<scalar> 
10800
(
0.0434139
0.0383601
0.0317283
0.0259722
0.0208129
0.015671
0.0104941
0.0059222
0.0029142
0.00185315
0.00227933
0.00336814
0.0045101
0.00541745
0.0060178
0.0063508
0.0064957
0.00652717
0.00649741
0.00643796
0.00636873
0.00630234
0.00624365
0.00619133
0.00614138
0.00608962
0.00603336
0.00597274
0.00590985
0.00584583
0.00577988
0.00571083
0.00563877
0.00556451
0.00548872
0.00541207
0.00533527
0.00525839
0.00518041
0.00510059
0.0050186
0.00493468
0.00485016
0.00476623
0.0046828
0.00459848
0.00451212
0.00442434
0.00433641
0.00424925
0.00416173
0.00407269
0.00398208
0.00389055
0.00379882
0.003707
0.00361408
0.0035204
0.00342678
0.0033338
0.00323942
0.00314251
0.00304297
0.00294356
0.00284445
0.0027431
0.00263767
0.00253241
0.00242874
0.00232463
0.00221883
0.00211343
0.00200775
0.00190128
0.00179633
0.00169252
0.001589
0.00148892
0.00139133
0.00129603
0.00120408
0.00111645
0.00103038
0.000951057
0.000877241
0.000805345
0.00073528
0.000669874
0.000606681
0.000543731
0.00048119
0.000420662
0.00036136
0.000302874
0.000247257
0.000191824
0.000141118
9.15365e-05
5.07045e-05
1.04126e-05
0.0399825
0.0369433
0.0312693
0.0256939
0.0206131
0.0156375
0.0106732
0.00627605
0.00329961
0.00215472
0.00248489
0.0035114
0.00461233
0.00549041
0.00607124
0.00639244
0.00653034
0.00655748
0.00652473
0.00646283
0.00639135
0.00632288
0.00626233
0.00620839
0.00615702
0.00610403
0.00604668
0.00598508
0.00592133
0.00585657
0.00578996
0.0057203
0.00564767
0.0055729
0.00549662
0.00541952
0.00534231
0.00526506
0.00518674
0.00510661
0.00502431
0.00494009
0.0048553
0.00477111
0.00468746
0.00460293
0.00451636
0.00442837
0.00434025
0.00425292
0.00416524
0.00407604
0.00398529
0.00389361
0.00380175
0.0037098
0.00361676
0.00352296
0.00342922
0.00333614
0.00324167
0.00314467
0.00304502
0.00294552
0.00284633
0.00274491
0.00263939
0.00253403
0.00243029
0.0023261
0.00222022
0.00211475
0.002009
0.00190245
0.00179743
0.00169355
0.00158996
0.00148981
0.00139216
0.00129678
0.00120477
0.00111709
0.00103095
0.000951566
0.00087771
0.000805767
0.000735658
0.00067021
0.000606989
0.000544007
0.00048144
0.000420883
0.000361564
0.000303051
0.000247422
0.000191968
0.000141254
9.16543e-05
5.0824e-05
1.05195e-05
0.0374158
0.0356445
0.030889
0.0255296
0.0204988
0.0156922
0.0110284
0.00691349
0.00401492
0.00272906
0.0028507
0.00372665
0.00474063
0.00556745
0.00612062
0.00642901
0.00656178
0.00658698
0.00655329
0.00649049
0.00641781
0.00634771
0.00628517
0.00622906
0.00617559
0.00612069
0.00606167
0.00599862
0.00593361
0.00586778
0.00580024
0.00572977
0.00565645
0.00558106
0.00550424
0.00542664
0.00534897
0.00527133
0.00519264
0.00511216
0.00502955
0.00494503
0.00485996
0.00477552
0.00469165
0.00460691
0.00452015
0.00443197
0.00434366
0.00425617
0.00416835
0.004079
0.0039881
0.00389629
0.0038043
0.00371226
0.0036191
0.00352519
0.00343136
0.00333818
0.00324363
0.00314655
0.00304681
0.00294722
0.00284798
0.00274649
0.00264088
0.00253544
0.00243164
0.0023274
0.00222144
0.00211591
0.0020101
0.00190348
0.00179839
0.00169446
0.0015908
0.00149059
0.00139289
0.00129746
0.00120538
0.00111766
0.00103146
0.000952023
0.000878136
0.000806149
0.000735998
0.000670514
0.00060727
0.000544257
0.000481664
0.000421082
0.000361747
0.000303207
0.000247568
0.000192089
0.000141366
9.1746e-05
5.09087e-05
1.05878e-05
0.0354193
0.0343376
0.0303968
0.025364
0.0204355
0.0158025
0.0114399
0.00761567
0.00482791
0.00343143
0.00333261
0.00401856
0.00491766
0.00568344
0.00620376
0.00649392
0.00661616
0.00663479
0.00659664
0.00653068
0.00645545
0.00638276
0.00631728
0.00625795
0.00620132
0.00614361
0.00608223
0.00601718
0.00595042
0.00588299
0.00581405
0.00574238
0.00566804
0.00559178
0.00551417
0.00543587
0.00535756
0.00527932
0.00520008
0.0051191
0.00503605
0.00495113
0.00486568
0.00478089
0.00469669
0.00461167
0.00452464
0.00443623
0.0043477
0.00426001
0.00417198
0.00408244
0.00399136
0.00389938
0.00380724
0.00371506
0.00362177
0.00352775
0.00343379
0.00334051
0.00324585
0.00314867
0.00304884
0.00294916
0.00284984
0.00274828
0.00264257
0.00253705
0.0024332
0.00232889
0.00222286
0.00211726
0.0020114
0.0019047
0.00179955
0.00169555
0.00159182
0.00149155
0.00139379
0.00129829
0.00120615
0.00111837
0.00103211
0.000952609
0.000878681
0.000806638
0.000736435
0.000670908
0.00060763
0.000544576
0.000481949
0.000421336
0.000361977
0.000303403
0.000247746
0.000192238
0.000141494
9.18478e-05
5.09835e-05
1.06431e-05
0.033727
0.0330139
0.0297594
0.0251477
0.0203997
0.0159468
0.0118493
0.0082834
0.00561318
0.00414238
0.00384802
0.00434165
0.00511639
0.00581769
0.00630547
0.00657727
0.00668754
0.00669756
0.00665315
0.00658284
0.00650441
0.0064287
0.00635973
0.00629651
0.00623595
0.00617468
0.00611029
0.00604269
0.0059736
0.005904
0.00583307
0.00575969
0.0056839
0.0056064
0.00552771
0.00544842
0.00536919
0.00529009
0.00521006
0.00512838
0.00504472
0.00495926
0.00487331
0.00478801
0.00470333
0.00461788
0.00453051
0.0044418
0.00435298
0.00426501
0.00417671
0.0040869
0.00399556
0.00390334
0.00381099
0.00371862
0.00362518
0.003531
0.00343689
0.00334345
0.00324864
0.00315135
0.0030514
0.00295163
0.00285221
0.00275055
0.00264474
0.00253913
0.00243521
0.00233083
0.00222472
0.00211905
0.00201312
0.00190634
0.00180112
0.00169706
0.00159324
0.0014929
0.00139508
0.0012995
0.00120728
0.00111943
0.00103308
0.000953503
0.000879507
0.000807381
0.000737104
0.000671509
0.000608173
0.000545058
0.000482382
0.000421723
0.000362324
0.000303701
0.000248012
0.000192459
0.000141678
9.19934e-05
5.10687e-05
1.0701e-05
0.0322347
0.0317192
0.0290186
0.0248798
0.0203845
0.0161197
0.0122463
0.00889875
0.00634388
0.00482974
0.00437206
0.00468284
0.00532805
0.00596012
0.00641503
0.00666964
0.00676827
0.00676906
0.00671746
0.00664209
0.00656013
0.00648127
0.00640876
0.00634151
0.00627681
0.00621173
0.00614411
0.00607376
0.00600213
0.00593006
0.00585684
0.00578147
0.00570398
0.00562498
0.00554495
0.00546445
0.00538407
0.00530388
0.00522283
0.00514026
0.00505585
0.00496974
0.00488315
0.00479719
0.00471186
0.00462585
0.00453803
0.00444896
0.0043598
0.00427147
0.0041828
0.00409264
0.00400098
0.00390847
0.00381582
0.00372321
0.00362956
0.00353521
0.0034409
0.00334724
0.00325223
0.00315479
0.00305473
0.00295484
0.00285528
0.0027535
0.00264758
0.00254189
0.00243789
0.00233343
0.00222724
0.00212149
0.00201549
0.00190863
0.00180333
0.00169919
0.00159529
0.00149488
0.00139698
0.0013013
0.00120898
0.00112104
0.0010346
0.000954902
0.000880792
0.000808543
0.000738162
0.000672459
0.000609024
0.000545814
0.000483066
0.000422335
0.000362874
0.000304177
0.000248433
0.000192812
0.000141969
9.22261e-05
5.11922e-05
1.07812e-05
0.0308859
0.0304885
0.0282293
0.0245656
0.0203763
0.0163126
0.0126306
0.00946497
0.00701863
0.00548682
0.00489838
0.00504104
0.00555389
0.00611061
0.00653045
0.00676848
0.00685619
0.00684751
0.00678787
0.00670649
0.00662028
0.00653787
0.0064616
0.0063902
0.00632126
0.00625229
0.00618135
0.00610816
0.0060339
0.0059593
0.00588372
0.0058063
0.00572702
0.00564645
0.00556499
0.00548317
0.00540152
0.00532011
0.00523794
0.00515438
0.00506913
0.0049823
0.00489502
0.00480831
0.00472222
0.00463554
0.00454721
0.00445772
0.00436816
0.0042794
0.0041903
0.00409974
0.00400772
0.00391485
0.00382187
0.00372895
0.00363506
0.0035405
0.00344595
0.00335201
0.00325674
0.00315914
0.00305897
0.00295895
0.00285922
0.00275728
0.00265126
0.00254549
0.0024414
0.00233685
0.00223059
0.00212476
0.0020187
0.00191177
0.00180639
0.00170216
0.00159817
0.00149768
0.00139971
0.00130392
0.00121146
0.00112341
0.00103686
0.000957012
0.000882729
0.000810308
0.000739782
0.000673913
0.000610324
0.000546975
0.000484123
0.000423284
0.000363727
0.000304923
0.000249091
0.000193371
0.00014243
9.26035e-05
5.13955e-05
1.09156e-05
0.0296511
0.0293397
0.0274345
0.0242138
0.0203589
0.0165122
0.0130028
0.00999105
0.00764332
0.00611129
0.00542152
0.00541425
0.00579527
0.00627037
0.0066513
0.00687253
0.00695023
0.00693231
0.00686392
0.00677547
0.00668405
0.00659747
0.00651714
0.00644144
0.00636815
0.00629517
0.00622081
0.00614469
0.00606773
0.00599054
0.00591258
0.00583306
0.00575199
0.00566981
0.00558687
0.00550368
0.00542072
0.00533804
0.00525468
0.00517007
0.00508395
0.00499639
0.00490838
0.00482089
0.004734
0.00464661
0.00455773
0.0044678
0.00437781
0.00428858
0.00419902
0.00410802
0.00401561
0.00392238
0.00382904
0.00373579
0.00364163
0.00354686
0.00345204
0.00335775
0.00326217
0.00316439
0.00306413
0.00296398
0.00286406
0.00276196
0.00265585
0.00254999
0.00244581
0.00234117
0.00223485
0.00212895
0.00202284
0.00191586
0.00181041
0.00170608
0.00160201
0.00150145
0.00140341
0.00130749
0.00121488
0.0011267
0.00104003
0.000959992
0.00088547
0.000812826
0.000742113
0.000676011
0.000612201
0.00054866
0.000485668
0.000424676
0.000364984
0.00030603
0.000250071
0.000194212
0.000143128
9.31862e-05
5.17279e-05
1.11444e-05
0.0285171
0.028281
0.0266621
0.0238357
0.0203207
0.0167048
0.0133614
0.010484
0.0082236
0.00670109
0.00593455
0.00579763
0.00605164
0.00644024
0.00677749
0.00698078
0.00704939
0.00702286
0.00694535
0.00684885
0.00675123
0.00665975
0.00657496
0.00649478
0.00641705
0.00633996
0.00626207
0.0061829
0.00610315
0.00602331
0.0059429
0.00586126
0.00577834
0.00569449
0.00561004
0.00552543
0.00544112
0.00535713
0.00527256
0.00518687
0.00509984
0.00501151
0.00492277
0.00483448
0.00474677
0.00465867
0.00456923
0.00447885
0.00438841
0.0042987
0.00420864
0.00411719
0.00402437
0.00393077
0.00383708
0.00374351
0.0036491
0.00355412
0.00345901
0.00336433
0.00326841
0.00317044
0.00307009
0.00296983
0.00286972
0.00276746
0.00266129
0.00255536
0.00245107
0.00234635
0.00223998
0.00213402
0.00202789
0.00192089
0.00181539
0.00171097
0.00160683
0.00150621
0.00140811
0.00131207
0.00121928
0.00113096
0.00104418
0.000963907
0.000889085
0.00081617
0.000745237
0.000678833
0.000614735
0.000550944
0.000487774
0.000426581
0.000366713
0.000307563
0.000251435
0.000195394
0.000144115
9.40224e-05
5.22322e-05
1.15042e-05
0.027475
0.0273117
0.0259284
0.0234444
0.020257
0.0168797
0.0137022
0.0109475
0.00876437
0.00725577
0.0064318
0.00618573
0.00632159
0.00662117
0.0069097
0.00709285
0.00715283
0.00711856
0.00703193
0.00692661
0.00682181
0.00672466
0.00663497
0.0065501
0.00646782
0.00638654
0.00630501
0.00622269
0.00614006
0.00605747
0.00597455
0.0058907
0.00580586
0.0057203
0.00563427
0.0055482
0.00546249
0.00537716
0.00529133
0.00520452
0.00511655
0.00502743
0.00493792
0.00484882
0.00476028
0.00467146
0.00458145
0.0044906
0.0043997
0.00430949
0.00421893
0.00412701
0.00403377
0.0039398
0.00384577
0.00375188
0.00365724
0.00356205
0.00346665
0.00337156
0.00327528
0.0031771
0.00307668
0.00297631
0.00287603
0.00277363
0.00266743
0.00256144
0.00245705
0.00235225
0.00224585
0.00213984
0.00203371
0.00192673
0.00182121
0.00171672
0.00161254
0.00151187
0.00141373
0.00131757
0.0012246
0.00113611
0.00104925
0.000968712
0.00089354
0.000820317
0.000749142
0.00068238
0.000617934
0.000553842
0.000490456
0.000429016
0.000368935
0.000309548
0.000253209
0.000196945
0.000145418
9.51356e-05
5.29321e-05
1.20145e-05
0.0265174
0.0264286
0.0252435
0.0230527
0.0201678
0.0170295
0.0140201
0.0113827
0.00927033
0.00777736
0.00691006
0.00657362
0.00660293
0.00681388
0.00704903
0.00720882
0.00725982
0.00721863
0.00712325
0.00700866
0.00689588
0.00679233
0.00669721
0.00660739
0.00652045
0.00643492
0.00634966
0.00626408
0.00617844
0.00609301
0.00600748
0.00592135
0.00583452
0.00574717
0.0056595
0.0055719
0.00548475
0.00539804
0.00531092
0.00522295
0.00513399
0.00504403
0.00495372
0.00486378
0.0047744
0.00468484
0.00459424
0.00450291
0.00441154
0.00432082
0.00422975
0.00413733
0.00404366
0.0039493
0.00385493
0.00376074
0.00366587
0.00357049
0.00347481
0.0033793
0.00328264
0.00318423
0.00308373
0.00298327
0.00288284
0.0027803
0.0026741
0.00256808
0.0024636
0.00235873
0.00225231
0.00214625
0.00204014
0.0019332
0.0018277
0.00172316
0.00161896
0.00151825
0.0014201
0.00132384
0.00123068
0.00114203
0.00105509
0.000974278
0.000898717
0.000825158
0.000753733
0.000686575
0.00062174
0.000557303
0.000493674
0.000431942
0.000371618
0.000311956
0.000255374
0.000198854
0.000147029
9.65194e-05
5.38266e-05
1.26687e-05
0.0256386
0.0256287
0.0246134
0.0226715
0.0200573
0.0171506
0.0143109
0.0117898
0.00974528
0.00826896
0.00736797
0.00695702
0.00689257
0.00701814
0.00719634
0.00732884
0.00736966
0.00732225
0.00721886
0.00709497
0.00697363
0.00686299
0.00676189
0.00666675
0.00657499
0.00648511
0.00639603
0.00630708
0.00621832
0.00612994
0.00604171
0.00595321
0.00586431
0.00577509
0.00568571
0.00559653
0.00550788
0.00541974
0.00533129
0.00524212
0.00515213
0.00506129
0.00497015
0.00487934
0.00478909
0.00469876
0.00460756
0.00451573
0.00442387
0.00433263
0.00424104
0.00414811
0.00405398
0.00395922
0.0038645
0.00377001
0.00367492
0.00357934
0.00348337
0.00338744
0.00329039
0.00319175
0.00309117
0.00299061
0.00289003
0.00278737
0.00268117
0.00257514
0.0024706
0.00236566
0.00225921
0.00215311
0.00204703
0.00194017
0.00183469
0.00173012
0.00162592
0.0015252
0.00142706
0.00133071
0.00123735
0.00114854
0.00106156
0.000980445
0.00090447
0.000830553
0.000758875
0.000691296
0.00062605
0.000561239
0.000497345
0.000435283
0.000374692
0.000314728
0.000257875
0.000201077
0.000148912
9.81422e-05
5.4892e-05
1.34375e-05
0.0248332
0.0249084
0.0240407
0.0223087
0.0199319
0.0172426
0.014572
0.0121679
0.0101911
0.00873306
0.0078053
0.00733249
0.00718679
0.00723266
0.00735215
0.00745338
0.00748214
0.0074289
0.00731843
0.00718554
0.00705522
0.00693683
0.00682916
0.00672826
0.00663142
0.00653709
0.00644411
0.00635168
0.00625971
0.00616827
0.00607724
0.00598628
0.00589524
0.00580408
0.0057129
0.00562207
0.00553189
0.00544227
0.00535245
0.00526204
0.00517098
0.00507921
0.00498718
0.00489548
0.00480434
0.00471323
0.0046214
0.00452904
0.00443668
0.00434491
0.00425277
0.00415932
0.0040647
0.00396953
0.00387445
0.00377966
0.00368434
0.00358856
0.0034923
0.00339593
0.00329849
0.00319961
0.00309894
0.00299829
0.00289756
0.00279477
0.00268859
0.00258255
0.00247795
0.00237295
0.00226649
0.00216034
0.00205429
0.00194751
0.00184208
0.00173749
0.00163331
0.00153257
0.00143446
0.00133802
0.00124448
0.00115551
0.00106849
0.000987074
0.000910666
0.000836373
0.00076444
0.000696425
0.000630754
0.000565551
0.000501379
0.000438959
0.000378076
0.000317791
0.000260641
0.000203554
0.000151014
9.99583e-05
5.60928e-05
1.42804e-05
0.0240946
0.0242627
0.0235251
0.0219703
0.019799
0.0173086
0.0148019
0.0125154
0.0106079
0.00917109
0.00822236
0.00769763
0.00748205
0.00745562
0.00751682
0.00758341
0.00759756
0.00753828
0.00742151
0.0072801
0.00714061
0.00701391
0.00689913
0.00679201
0.00668975
0.00659083
0.00649389
0.00639791
0.00630262
0.00620805
0.00611411
0.0060206
0.00592732
0.00583413
0.00574109
0.00564856
0.00555678
0.00546565
0.00537442
0.00528272
0.00519054
0.00509779
0.00500484
0.0049122
0.00482016
0.00472824
0.00463576
0.00454285
0.00444997
0.00435766
0.00426497
0.00417096
0.00407583
0.00398022
0.00388478
0.00378968
0.00369413
0.00359814
0.00350157
0.00340477
0.00330692
0.00320779
0.00310703
0.00300628
0.0029054
0.00280248
0.00269631
0.00259027
0.00248561
0.00238055
0.00227408
0.00216789
0.00206188
0.00195518
0.0018498
0.0017452
0.00164103
0.0015403
0.00144222
0.0013457
0.00125197
0.00116282
0.00107578
0.000994066
0.000917209
0.000842525
0.000770333
0.000701871
0.000635763
0.000570157
0.000505697
0.000442899
0.000381704
0.000321082
0.00026361
0.000206225
0.000153285
0.000101921
5.73928e-05
1.51587e-05
0.0234162
0.0236857
0.0230655
0.0216602
0.0196654
0.0173526
0.0150006
0.0128305
0.0109947
0.00958342
0.00861961
0.00805111
0.0077757
0.00768511
0.00769037
0.00771978
0.00771626
0.00764997
0.00752745
0.00737817
0.00722962
0.00709427
0.00697189
0.00685813
0.0067501
0.00664634
0.00654536
0.00644577
0.00634709
0.00624928
0.00615234
0.00605617
0.00596057
0.00586529
0.0057703
0.005676
0.00558258
0.00548989
0.00539721
0.00530419
0.00521083
0.00511706
0.00502314
0.00492953
0.00483656
0.00474381
0.00465064
0.00455717
0.00446376
0.00437089
0.00427762
0.00418303
0.00408736
0.0039913
0.00389549
0.00380007
0.00370429
0.00360809
0.0035112
0.00341394
0.00331568
0.00321629
0.00311543
0.00301459
0.00291356
0.0028105
0.00270432
0.00259828
0.00249358
0.00238846
0.00228198
0.00217574
0.00206976
0.00196315
0.00185782
0.00175321
0.00164907
0.00154834
0.00145029
0.00135369
0.00125977
0.00117044
0.00108338
0.00100136
0.000924042
0.000848954
0.000776497
0.000707577
0.000641021
0.000575002
0.000510244
0.000447055
0.000385526
0.000324557
0.000266739
0.000209047
0.000155682
0.000103992
5.87622e-05
1.60436e-05
0.0227914
0.0231708
0.0226593
0.0213807
0.0195361
0.0173795
0.0151698
0.0131126
0.0113503
0.00996971
0.00899741
0.00839263
0.00806597
0.00791901
0.00787192
0.00786278
0.00783852
0.0077637
0.00763572
0.00747931
0.00732209
0.00717793
0.00704754
0.00692676
0.00681257
0.00670366
0.0065985
0.00649525
0.00639311
0.00629198
0.00619196
0.00609305
0.00599503
0.00589756
0.00580056
0.00570441
0.0056093
0.00551502
0.00542084
0.00532644
0.00523187
0.00513703
0.0050421
0.00494747
0.00485354
0.00475995
0.00466608
0.004572
0.00447804
0.00438461
0.00429076
0.00419556
0.00409932
0.00400278
0.00390659
0.00381085
0.00371482
0.0036184
0.00352118
0.00342345
0.00332477
0.00322512
0.00312416
0.00302323
0.00292204
0.00281883
0.00271264
0.00260659
0.00250184
0.00239667
0.00229017
0.00218389
0.00207794
0.00197142
0.00186614
0.00176151
0.00165739
0.00155667
0.00145866
0.00136197
0.00126785
0.00117833
0.00109126
0.00100893
0.000931136
0.000855634
0.000782904
0.000713518
0.000646498
0.000580058
0.000514989
0.000451399
0.000389514
0.000328192
0.000270001
0.000211995
0.000158178
0.000106143
6.01811e-05
1.6917e-05
0.0222134
0.0227102
0.0223022
0.0211325
0.019415
0.0173939
0.0153122
0.0133618
0.011674
0.0103293
0.00935576
0.00872202
0.00835139
0.00815498
0.00805998
0.00801239
0.00796483
0.00787955
0.00774601
0.00758315
0.00741776
0.00726483
0.00712611
0.00699792
0.00687725
0.00676285
0.00665328
0.00654633
0.00644068
0.00633617
0.00623299
0.00613124
0.00603071
0.00593097
0.00583189
0.00573382
0.00563696
0.00554106
0.00544534
0.00534952
0.00525368
0.00515771
0.00506173
0.00496605
0.00487111
0.00477667
0.00468208
0.00458737
0.00449284
0.00439884
0.00430438
0.00420855
0.0041117
0.00401466
0.00391809
0.00382204
0.00372575
0.00362908
0.00353153
0.00343332
0.0033342
0.00323429
0.00313322
0.00303219
0.00293085
0.00282747
0.00272127
0.0026152
0.00251041
0.00240518
0.00229867
0.00219233
0.00208642
0.00198
0.00187476
0.0017701
0.00166601
0.00156529
0.00146732
0.00137054
0.00127621
0.0011865
0.00109941
0.00101677
0.000938481
0.000862555
0.000789545
0.000719685
0.000652181
0.000585311
0.000519916
0.000455918
0.000393654
0.000331972
0.000273385
0.000215054
0.000160759
0.000108357
6.16381e-05
1.77699e-05
0.0216754
0.0222959
0.0219895
0.020915
0.0193045
0.0174
0.0154314
0.0135797
0.0119656
0.0106615
0.00969399
0.00903863
0.00863064
0.00839103
0.00825299
0.00816836
0.0080957
0.00799778
0.00785808
0.00768925
0.00751621
0.00735477
0.00720758
0.00707165
0.00694422
0.00682402
0.00670974
0.00659897
0.00648981
0.00638184
0.00627542
0.00617077
0.00606764
0.00596555
0.0058643
0.00576425
0.00566559
0.00556801
0.00547073
0.00537343
0.00527627
0.00517913
0.00508203
0.00498526
0.0048893
0.00479397
0.00469866
0.00460331
0.00450818
0.00441359
0.00431851
0.00422201
0.00412453
0.00402695
0.00392999
0.00383365
0.00373709
0.00364016
0.00354225
0.00344355
0.00334399
0.00324379
0.00314263
0.0030415
0.00293999
0.00283644
0.00273021
0.00262413
0.00251929
0.002414
0.00230747
0.00220109
0.0020952
0.00198887
0.00188368
0.00177899
0.00167492
0.00157421
0.00147627
0.00137941
0.00128485
0.00119493
0.00110783
0.00102488
0.000946076
0.000869716
0.000796417
0.000726077
0.000658068
0.00059076
0.000525021
0.000460608
0.000397942
0.000335894
0.000276885
0.000218219
0.000163421
0.000110627
6.31282e-05
1.85989e-05
0.0211711
0.0219207
0.0217159
0.0207267
0.0192062
0.0174008
0.0155312
0.0137692
0.0122261
0.0109657
0.0100109
0.0093415
0.00890271
0.00862568
0.00844947
0.0083301
0.00823141
0.0081187
0.00797177
0.00779719
0.00761702
0.00744745
0.00729189
0.00714796
0.00701348
0.00688724
0.00676792
0.00665313
0.00654044
0.00642899
0.00631927
0.00621165
0.00610585
0.00600131
0.00589781
0.00579572
0.00569519
0.0055959
0.00549701
0.00539821
0.00529967
0.00520129
0.00510303
0.00500513
0.00490813
0.00481188
0.00471582
0.00461983
0.00452407
0.00442886
0.00433314
0.00423596
0.00413781
0.00403968
0.00394231
0.00384567
0.00374887
0.00365164
0.00355335
0.00345415
0.00335414
0.00325366
0.00315239
0.00305117
0.00294948
0.00284574
0.00273948
0.00263339
0.0025285
0.00242314
0.00231659
0.00221016
0.0021043
0.00199807
0.00189291
0.00178819
0.00168413
0.00158343
0.00148553
0.00138857
0.00129378
0.00120364
0.00111652
0.00103326
0.000953925
0.000877122
0.000803525
0.000732697
0.000664162
0.000596408
0.000530307
0.00046547
0.000402379
0.000339956
0.000280502
0.000221489
0.000166161
0.000112947
6.46499e-05
1.94036e-05
0.020696
0.0215781
0.0214757
0.0205654
0.0191206
0.017399
0.0156154
0.0139334
0.0124568
0.0112415
0.0103054
0.00962949
0.00916667
0.00885768
0.00864789
0.00849666
0.00837192
0.00824258
0.00808706
0.00790667
0.00771983
0.00754254
0.00737888
0.00722685
0.007085
0.00695252
0.00682794
0.00670884
0.00659255
0.00647764
0.00636453
0.00625387
0.00614534
0.00603827
0.00593244
0.00582825
0.0057258
0.00562473
0.0055242
0.00542385
0.00532388
0.00522423
0.00512475
0.00502567
0.00492758
0.0048304
0.00473357
0.00463694
0.00454056
0.00444469
0.00434829
0.00425039
0.00415155
0.00405286
0.00395507
0.00385811
0.00376109
0.00366356
0.00356483
0.00346512
0.00336467
0.0032639
0.00316252
0.0030612
0.00295932
0.00285539
0.00274909
0.00264297
0.00253803
0.00243261
0.00232604
0.00221957
0.00211373
0.00200759
0.00190246
0.0017977
0.00169365
0.00159296
0.00149509
0.00139804
0.001303
0.00121263
0.0011255
0.00104192
0.000962033
0.000884779
0.000810873
0.000739552
0.000670467
0.000602258
0.000535775
0.000470507
0.000406967
0.000344161
0.000284238
0.000224862
0.00016898
0.000115315
6.6203e-05
2.01854e-05
0.0202465
0.0212626
0.0212633
0.0204279
0.0190482
0.0173967
0.0156871
0.0140756
0.0126599
0.0114893
0.0105765
0.00990133
0.0094214
0.00908582
0.00884678
0.00866686
0.00851696
0.00836967
0.00820404
0.00801748
0.00782433
0.00763967
0.00746824
0.00730824
0.00715876
0.00701981
0.00688985
0.00676616
0.00664607
0.00652771
0.0064112
0.00629741
0.00618611
0.00607644
0.0059682
0.00586184
0.00575744
0.00565454
0.00555231
0.00545038
0.00534893
0.00524793
0.00514719
0.00504689
0.00494769
0.00484956
0.00475194
0.00465464
0.00455764
0.0044611
0.00436398
0.00426532
0.00416575
0.00406649
0.00396829
0.003871
0.00377373
0.00367592
0.00357673
0.00347645
0.00337558
0.00327453
0.00317303
0.0030716
0.00296953
0.0028654
0.00275904
0.00265291
0.00254791
0.00244242
0.00233583
0.0022293
0.00212349
0.00201744
0.00191234
0.00180753
0.00170349
0.0016028
0.00150497
0.00140782
0.00131251
0.00122191
0.00113476
0.00105086
0.000970407
0.000892691
0.000818467
0.000746646
0.000676989
0.000608316
0.000541432
0.000475723
0.000411711
0.000348511
0.000288096
0.00022834
0.000171881
0.000117729
6.77877e-05
2.09466e-05
0.0198198
0.0209693
0.0210733
0.0203112
0.0189888
0.0173956
0.0157488
0.0141989
0.012838
0.0117104
0.0108238
0.0101557
0.00966557
0.00930889
0.00904474
0.00883944
0.00866599
0.00850012
0.00832288
0.00812947
0.00793018
0.00773847
0.00755959
0.00739195
0.00723477
0.00708906
0.00695363
0.00682519
0.00670098
0.00657911
0.00645925
0.00634227
0.00622813
0.00611583
0.0060051
0.00589649
0.00579012
0.00568536
0.00558136
0.00547779
0.00537481
0.00527241
0.00517036
0.0050688
0.00496845
0.00486936
0.00477094
0.00467294
0.00457533
0.00447811
0.00438021
0.00428073
0.00418041
0.00408058
0.003982
0.00388438
0.00378682
0.00368871
0.00358907
0.00348819
0.00338686
0.00328556
0.00318395
0.00308239
0.00298011
0.00287576
0.00276936
0.0026632
0.00255814
0.00245258
0.00234595
0.00223939
0.00213359
0.00202764
0.00192256
0.00181769
0.00171365
0.00161298
0.00151517
0.00141792
0.00132234
0.00123149
0.00114431
0.0010601
0.000979051
0.000900867
0.000826314
0.000753987
0.000683734
0.000614588
0.000547283
0.000481123
0.000416614
0.000353009
0.000292081
0.000231922
0.000174866
0.00012019
6.9404e-05
2.16896e-05
0.0194142
0.0206948
0.0209016
0.0202119
0.0189416
0.0173968
0.0158024
0.0143058
0.0129937
0.0119063
0.0110476
0.0103916
0.00989778
0.00952563
0.00924047
0.00901308
0.00881828
0.00863394
0.00844372
0.0082425
0.00803714
0.00783868
0.00765261
0.00747772
0.00731299
0.00716022
0.00701914
0.00688594
0.00675735
0.00663176
0.00650861
0.00638845
0.00627141
0.00615645
0.00604316
0.00593222
0.00582381
0.00571719
0.00561139
0.00550609
0.00540154
0.00529768
0.00519426
0.0050914
0.00498988
0.00488982
0.00479061
0.00469189
0.00459362
0.00449574
0.00439703
0.00429665
0.00419555
0.00409512
0.00399618
0.00389828
0.00380039
0.00370192
0.00360183
0.00350036
0.00339853
0.00329699
0.0031953
0.00309358
0.00299107
0.00288651
0.00278005
0.00267386
0.00256874
0.00246309
0.00235644
0.00224983
0.00214405
0.00203818
0.00193312
0.00182819
0.00172415
0.00162348
0.0015257
0.00142834
0.00133247
0.00124138
0.00115416
0.00106963
0.000987973
0.000909311
0.00083442
0.00076158
0.000690708
0.000621078
0.000553334
0.00048671
0.000421683
0.000357656
0.000296195
0.00023561
0.000177936
0.000122697
7.10518e-05
2.24173e-05
0.0190288
0.0204366
0.0207445
0.0201265
0.0189049
0.0174008
0.0158497
0.0143986
0.0131297
0.0120793
0.0112485
0.0106083
0.0101166
0.00973468
0.00943277
0.00918647
0.00897282
0.00877086
0.00856671
0.00835657
0.00814498
0.00794008
0.00774699
0.00756514
0.00739324
0.00723326
0.00708623
0.00694834
0.0068153
0.00668567
0.00655919
0.00643592
0.00631591
0.00619826
0.00608238
0.00596903
0.00585852
0.00575003
0.0056424
0.00553531
0.00542912
0.00532375
0.00521889
0.0051147
0.00501199
0.00491094
0.00481093
0.00471151
0.00461254
0.00451396
0.00441444
0.00431311
0.00421115
0.00411014
0.00401085
0.0039127
0.00381448
0.00371557
0.00361499
0.00351297
0.00341063
0.00330882
0.00320707
0.0031052
0.00300241
0.00289763
0.00279112
0.00268491
0.0025797
0.00247398
0.00236728
0.00226064
0.00215488
0.0020491
0.00194403
0.00183903
0.00173499
0.00163433
0.00153657
0.00143911
0.00134292
0.00125157
0.00116432
0.00107947
0.000997179
0.00091803
0.000842792
0.000769432
0.000697917
0.000627792
0.00055959
0.000492489
0.000426922
0.000362455
0.000300443
0.000239404
0.000181093
0.000125249
7.27308e-05
2.31324e-05
0.0186628
0.020193
0.020599
0.0200517
0.0188767
0.0174078
0.0158921
0.0144793
0.0132483
0.0122315
0.0114276
0.0108055
0.0103208
0.0099347
0.00962047
0.00935833
0.00912835
0.00891035
0.00869197
0.00847173
0.0082535
0.00804243
0.00784247
0.00765382
0.00747516
0.00730814
0.00715484
0.0070122
0.00687486
0.00674093
0.00661088
0.00648459
0.00636162
0.00624119
0.00612274
0.00600695
0.00589427
0.00578387
0.00567441
0.00556546
0.00545753
0.00535061
0.00524426
0.00513869
0.00503478
0.00493274
0.00483193
0.0047318
0.00463211
0.00453277
0.00443243
0.00433013
0.00422724
0.00412563
0.00402601
0.00392763
0.00382913
0.00372969
0.00362853
0.003526
0.00342321
0.00332108
0.00321925
0.00311726
0.00301416
0.00290914
0.00280259
0.00269635
0.00259105
0.00248524
0.0023785
0.00227182
0.00216608
0.00206038
0.00195531
0.00185023
0.00174617
0.00164554
0.00154779
0.00145021
0.0013537
0.00126208
0.0011748
0.00108962
0.00100668
0.00092703
0.000851436
0.000777548
0.000705367
0.000634734
0.000566057
0.000498464
0.000432335
0.000367409
0.000304827
0.000243305
0.000184339
0.000127849
7.44402e-05
2.38376e-05
0.0183157
0.0199628
0.0204631
0.0199846
0.018855
0.0174175
0.0159308
0.0145497
0.0133515
0.012365
0.0115864
0.0109834
0.0105095
0.0101244
0.00980234
0.00952744
0.00928359
0.00905165
0.00881952
0.0085881
0.00836247
0.0081454
0.00793884
0.00774345
0.00755839
0.00738472
0.00722499
0.00707734
0.00693589
0.0067976
0.00666361
0.00653433
0.00640852
0.00628525
0.00616421
0.00604597
0.00593106
0.0058187
0.00570739
0.00559655
0.00548679
0.00537822
0.00527036
0.00516337
0.00505824
0.00495524
0.00485365
0.00475279
0.00465236
0.00455218
0.00445095
0.0043477
0.00424386
0.00414162
0.00404169
0.00394308
0.00384431
0.00374434
0.00364249
0.00353941
0.00343626
0.00333382
0.00323185
0.00312973
0.00302634
0.00292105
0.00281447
0.0027082
0.0026028
0.00249688
0.00239011
0.00228339
0.00217766
0.00207205
0.00196695
0.00186179
0.00175772
0.0016571
0.00155936
0.00146166
0.00136482
0.00127291
0.00118559
0.00110008
0.00101647
0.000936317
0.000860358
0.000785934
0.000713065
0.000641911
0.000572742
0.000504639
0.000437928
0.00037252
0.000309353
0.000247313
0.000187673
0.000130497
7.61795e-05
2.45355e-05
0.0179867
0.019745
0.0203352
0.0199232
0.0188377
0.0174291
0.0159665
0.0146113
0.013441
0.0124814
0.0117264
0.0111428
0.0106824
0.0103025
0.00997712
0.00969272
0.00943733
0.00919368
0.00894905
0.00870579
0.00847173
0.00824869
0.00803592
0.00783386
0.00764252
0.00746268
0.00729664
0.00714366
0.00699813
0.00685568
0.00671744
0.00658498
0.00645657
0.00633047
0.00620672
0.00608606
0.00596889
0.00585451
0.00574133
0.00562858
0.0055169
0.0054066
0.00529719
0.00518874
0.00508237
0.00497844
0.00487609
0.00477449
0.00467331
0.00457223
0.00446999
0.00436578
0.00426104
0.00415813
0.00405789
0.00395906
0.00385999
0.00375953