/*--------------------------------*- C++ -*----------------------------------*\
| =========                 |                                                 |
| \\      /  F ield         | OpenFOAM: The Open Source CFD Toolbox           |
|  \\    /   O peration     | Version:  5.x                                   |
|   \\  /    A nd           | Web:      www.OpenFOAM.org                      |
|    \\/     M anipulation  |                                                 |
\*---------------------------------------------------------------------------*/
FoamFile
{
    version     2.0;
    format      ascii;
    class       surfaceScalarField;
    location    "0.2";
    object      phi;
}
// * * * * * * * * * * * * * * * * * * * * * * * * * * * * * * * * * * * * * //

dimensions      [0 3 -1 0 0 0 0];

internalField   nonuniform List<scalar> 
21390
(
7.41007e-08
6.75222e-09
-8.0853e-08
6.57116e-08
8.38915e-09
5.74576e-08
8.25398e-09
4.94326e-08
8.02503e-09
4.16617e-08
7.77083e-09
3.44704e-08
7.19132e-09
2.83499e-08
6.12048e-09
2.36904e-08
4.65951e-09
2.05464e-08
3.14408e-09
1.85757e-08
1.97061e-09
1.73243e-08
1.25147e-09
1.64756e-08
8.48708e-10
1.58467e-08
6.28896e-10
1.53266e-08
5.20036e-10
1.48515e-08
4.75098e-10
1.43944e-08
4.57151e-10
1.39488e-08
4.45558e-10
1.3517e-08
4.3181e-10
1.3103e-08
4.14054e-10
1.27102e-08
3.92812e-10
1.23411e-08
3.69041e-10
1.19969e-08
3.4417e-10
1.1677e-08
3.1999e-10
1.13791e-08
2.97832e-10
1.11008e-08
2.7833e-10
1.08393e-08
2.61495e-10
1.05924e-08
2.46879e-10
1.03586e-08
2.33773e-10
1.01369e-08
2.21756e-10
9.92603e-09
2.10862e-10
9.72483e-09
2.01198e-10
9.53226e-09
1.92574e-10
9.3476e-09
1.8466e-10
9.17032e-09
1.77277e-10
8.99996e-09
1.70362e-10
8.83615e-09
1.63806e-10
8.67858e-09
1.57575e-10
8.52684e-09
1.51737e-10
8.38041e-09
1.46429e-10
8.2389e-09
1.41511e-10
8.10191e-09
1.36989e-10
7.96923e-09
1.32677e-10
7.84082e-09
1.28413e-10
7.71659e-09
1.24226e-10
7.59629e-09
1.20305e-10
7.47947e-09
1.16816e-10
7.36584e-09
1.13637e-10
7.25536e-09
1.10472e-10
7.14812e-09
1.07247e-10
7.04411e-09
1.04004e-10
6.943e-09
1.0111e-10
6.84457e-09
9.8434e-11
6.74866e-09
9.59119e-11
6.65524e-09
9.34118e-11
6.56431e-09
9.09367e-11
6.47576e-09
8.85453e-11
6.38937e-09
8.63877e-11
6.30523e-09
8.414e-11
6.22339e-09
8.18447e-11
6.14391e-09
7.94757e-11
6.06635e-09
7.75681e-11
5.99056e-09
7.57807e-11
5.91649e-09
7.40794e-11
5.84467e-09
7.18189e-11
5.77496e-09
6.97076e-11
5.70703e-09
6.79308e-11
5.64057e-09
6.64627e-11
5.57632e-09
6.42491e-11
5.51422e-09
6.20972e-11
5.45411e-09
6.01075e-11
5.39586e-09
5.82554e-11
5.33986e-09
5.59919e-11
5.28586e-09
5.4007e-11
5.23393e-09
5.19224e-11
5.18437e-09
4.95675e-11
5.13701e-09
4.73545e-11
5.09178e-09
4.52306e-11
5.0492e-09
4.25871e-11
5.00887e-09
4.03268e-11
4.97098e-09
3.78902e-11
4.93553e-09
3.54443e-11
4.90267e-09
3.28599e-11
4.87173e-09
3.09459e-11
4.84374e-09
2.79856e-11
4.81805e-09
2.56949e-11
4.79443e-09
2.36137e-11
4.77254e-09
2.18895e-11
4.75297e-09
1.95738e-11
4.73491e-09
1.80649e-11
4.71841e-09
1.64949e-11
4.70297e-09
1.54385e-11
4.68915e-09
1.3819e-11
4.67618e-09
1.29771e-11
4.66451e-09
1.1664e-11
4.65357e-09
1.09415e-11
4.64355e-09
1.00247e-11
4.63402e-09
9.52119e-12
4.62505e-09
8.97457e-12
4.61632e-09
8.73315e-12
9.2018e-12
8.53758e-08
6.20761e-09
-8.48312e-08
8.44705e-08
9.29443e-09
8.26015e-08
1.0123e-08
8.0193e-08
1.04335e-08
7.72452e-08
1.07187e-08
7.37884e-08
1.06482e-08
6.99791e-08
9.92978e-09
6.60827e-08
8.5559e-09
6.24064e-08
6.82038e-09
5.91428e-08
5.23422e-09
5.62788e-08
4.11538e-09
5.37251e-08
3.40246e-09
5.14274e-08
2.92654e-09
4.9356e-08
2.59149e-09
4.7477e-08
2.35408e-09
4.57618e-08
2.17239e-09
4.41874e-08
2.01998e-09
4.27352e-08
1.88401e-09
4.139e-08
1.75916e-09
4.01405e-08
1.64237e-09
3.89781e-08
1.53142e-09
3.78961e-08
1.42616e-09
3.68877e-08
1.32842e-09
3.59456e-08
1.23996e-09
3.50624e-08
1.16151e-09
3.42314e-08
1.09246e-09
3.3447e-08
1.03126e-09
3.27048e-08
9.76039e-10
3.20007e-08
9.25776e-10
3.13313e-08
8.8036e-10
3.06927e-08
8.39699e-10
3.00823e-08
8.03036e-10
2.94976e-08
7.69387e-10
2.89367e-08
7.3812e-10
2.83982e-08
7.08911e-10
2.78805e-08
6.81436e-10
2.73825e-08
6.55609e-10
2.69027e-08
6.31539e-10
2.64397e-08
6.09416e-10
2.59924e-08
5.88819e-10
2.55598e-08
5.69601e-10
2.51412e-08
5.51243e-10
2.47362e-08
5.33487e-10
2.43439e-08
5.16461e-10
2.39636e-08
5.00587e-10
2.35944e-08
4.86039e-10
2.32357e-08
4.72399e-10
2.28871e-08
4.58981e-10
2.25487e-08
4.45689e-10
2.222e-08
4.3268e-10
2.19004e-08
4.20712e-10
2.15894e-08
4.09426e-10
2.12866e-08
3.98709e-10
2.09918e-08
3.88246e-10
2.07046e-08
3.78116e-10
2.04248e-08
3.68364e-10
2.0152e-08
3.59198e-10
1.98863e-08
3.4984e-10
1.96276e-08
3.40539e-10
1.93757e-08
3.31329e-10
1.913e-08
3.23338e-10
1.88902e-08
3.15585e-10
1.86563e-08
3.07992e-10
1.84289e-08
2.99209e-10
1.82076e-08
2.91016e-10
1.7992e-08
2.83469e-10
1.7782e-08
2.7645e-10
1.75786e-08
2.67676e-10
1.73815e-08
2.59234e-10
1.71906e-08
2.50958e-10
1.70059e-08
2.4296e-10
1.6828e-08
2.33925e-10
1.66564e-08
2.25551e-10
1.64918e-08
2.16597e-10
1.63342e-08
2.07169e-10
1.61837e-08
1.97866e-10
1.60402e-08
1.88699e-10
1.59046e-08
1.78196e-10
1.57763e-08
1.68642e-10
1.56558e-08
1.58353e-10
1.55429e-08
1.48361e-10
1.54379e-08
1.37861e-10
1.53399e-08
1.28953e-10
1.52504e-08
1.17469e-10
1.51676e-08
1.08433e-10
1.50918e-08
9.9487e-11
1.50216e-08
9.20357e-11
1.49582e-08
8.29799e-11
1.48994e-08
7.69126e-11
1.48458e-08
7.0093e-11
1.47957e-08
6.54733e-11
1.47508e-08
5.87439e-11
1.47086e-08
5.51479e-11
1.4671e-08
4.92942e-11
1.46354e-08
4.65618e-11
1.46036e-08
4.18278e-11
1.45729e-08
4.02071e-11
1.45453e-08
3.65634e-11
1.45177e-08
3.63783e-11
3.5754e-11
8.92023e-08
5.7511e-09
-8.87457e-08
8.9634e-08
8.86269e-09
8.95864e-08
1.01707e-08
8.93553e-08
1.06646e-08
8.8992e-08
1.10819e-08
8.83573e-08
1.12829e-08
8.73375e-08
1.09495e-08
8.59377e-08
9.95578e-09
8.42776e-08
8.48042e-09
8.25375e-08
6.97429e-09
8.08189e-08
5.83405e-09
7.91203e-08
5.10105e-09
7.74269e-08
4.61992e-09
7.57449e-08
4.27351e-09
7.40852e-08
4.01373e-09
7.24532e-08
3.80444e-09
7.08518e-08
3.62135e-09
6.92832e-08
3.45263e-09
6.7749e-08
3.29337e-09
6.62514e-08
3.1399e-09
6.47939e-08
2.98899e-09
6.33798e-08
2.84026e-09
6.2012e-08
2.69625e-09
6.0692e-08
2.55995e-09
5.94202e-08
2.43332e-09
5.8196e-08
2.31657e-09
5.70188e-08
2.20846e-09
5.58876e-08
2.10725e-09
5.48009e-08
2.01245e-09
5.37566e-08
1.92468e-09
5.2752e-08
1.84433e-09
5.17844e-08
1.77058e-09
5.08516e-08
1.70219e-09
4.99515e-08
1.63824e-09
4.90823e-08
1.57817e-09
4.82423e-08
1.52144e-09
4.743e-08
1.46791e-09
4.66438e-08
1.41772e-09
4.58821e-08
1.37113e-09
4.51434e-08
1.32748e-09
4.44266e-08
1.2864e-09
4.37309e-08
1.24699e-09
4.30554e-08
1.20897e-09
4.23992e-08
1.17265e-09
4.17611e-08
1.1387e-09
4.11399e-08
1.10717e-09
4.05351e-08
1.07727e-09
3.99462e-08
1.04789e-09
3.93729e-08
1.01899e-09
3.88147e-08
9.9082e-10
3.8271e-08
9.64473e-10
3.7741e-08
9.39381e-10
3.72243e-08
9.15425e-10
3.67204e-08
8.92128e-10
3.62288e-08
8.69709e-10
3.5749e-08
8.48126e-10
3.52807e-08
8.27555e-10
3.48238e-08
8.06715e-10
3.43782e-08
7.86174e-10
3.39434e-08
7.66059e-10
3.35188e-08
7.47975e-10
3.31042e-08
7.3019e-10
3.26995e-08
7.12695e-10
3.23052e-08
6.9355e-10
3.19206e-08
6.75548e-10
3.15458e-08
6.58341e-10
3.11804e-08
6.41787e-10
3.08256e-08
6.22477e-10
3.04811e-08
6.03793e-10
3.0147e-08
5.85038e-10
2.98233e-08
5.66677e-10
2.95107e-08
5.46521e-10
2.92088e-08
5.27369e-10
2.89186e-08
5.06838e-10
2.86401e-08
4.85688e-10
2.83736e-08
4.6432e-10
2.81191e-08
4.43248e-10
2.78776e-08
4.19687e-10
2.76486e-08
3.97636e-10
2.7433e-08
3.73911e-10
2.72302e-08
3.51231e-10
2.70409e-08
3.27146e-10
2.6864e-08
3.0581e-10
2.67014e-08
2.80127e-10
2.65502e-08
2.59578e-10
2.64113e-08
2.38412e-10
2.62825e-08
2.20864e-10
2.61652e-08
2.00242e-10
2.60559e-08
1.8618e-10
2.59563e-08
1.69718e-10
2.58631e-08
1.58661e-10
2.57792e-08
1.42667e-10
2.57003e-08
1.34093e-10
2.56298e-08
1.19727e-10
2.55629e-08
1.13484e-10
2.55036e-08
1.01105e-10
2.54462e-08
9.76419e-11
2.53955e-08
8.72392e-11
2.53447e-08
8.71874e-11
8.26721e-11
9.29862e-08
5.55844e-09
-9.27935e-08
9.35188e-08
8.33001e-09
9.37956e-08
9.8939e-09
9.39793e-08
1.0481e-08
9.42294e-08
1.08318e-08
9.44695e-08
1.10428e-08
9.45515e-08
1.08676e-08
9.43784e-08
1.01288e-08
9.39399e-08
8.91895e-09
9.33287e-08
7.58546e-09
9.26503e-08
6.51254e-09
9.19339e-08
5.81738e-09
9.11679e-08
5.38591e-09
9.03511e-08
5.09039e-09
8.94938e-08
4.87095e-09
8.86031e-08
4.69516e-09
8.76817e-08
4.54273e-09
8.67308e-08
4.40354e-09
8.57512e-08
4.27305e-09
8.47442e-08
4.14683e-09
8.37129e-08
4.0203e-09
8.26611e-08
3.89202e-09
8.15933e-08
3.76412e-09
8.05137e-08
3.63957e-09
7.94264e-08
3.52056e-09
7.83355e-08
3.40745e-09
7.7245e-08
3.29898e-09
7.61589e-08
3.19335e-09
7.5081e-08
3.0904e-09
7.40142e-08
2.99149e-09
7.29607e-08
2.89778e-09
7.19222e-08
2.80907e-09
7.08998e-08
2.72463e-09
6.9894e-08
2.64399e-09
6.89053e-08
2.56692e-09
6.79337e-08
2.49299e-09
6.69794e-08
2.4222e-09
6.60424e-08
2.35477e-09
6.51225e-08
2.29101e-09
6.42198e-08
2.23025e-09
6.33341e-08
2.1721e-09
6.24656e-08
2.11545e-09
6.16144e-08
2.06014e-09
6.07803e-08
2.00678e-09
5.99625e-08
1.95646e-09
5.91605e-08
1.90921e-09
5.83738e-08
1.86395e-09
5.76025e-08
1.81919e-09
5.68466e-08
1.7749e-09
5.6106e-08
1.73143e-09
5.53804e-08
1.69011e-09
5.46695e-08
1.65023e-09
5.39732e-08
1.61176e-09
5.32912e-08
1.57412e-09
5.26231e-08
1.53781e-09
5.19685e-08
1.50274e-09
5.13269e-08
1.46909e-09
5.06987e-08
1.43499e-09
5.00835e-08
1.40137e-09
4.9481e-08
1.36847e-09
4.88907e-08
1.33832e-09
4.83126e-08
1.3083e-09
4.77467e-08
1.27855e-09
4.71936e-08
1.24671e-09
4.66525e-08
1.21666e-09
4.61235e-08
1.18734e-09
4.56066e-08
1.15869e-09
4.51028e-08
1.12626e-09
4.46118e-08
1.09476e-09
4.41343e-08
1.06257e-09
4.36701e-08
1.03083e-09
4.32204e-08
9.96291e-10
4.27847e-08
9.6307e-10
4.23642e-08
9.27256e-10
4.19591e-08
8.90795e-10
4.15702e-08
8.53204e-10
4.11972e-08
8.16304e-10
4.08415e-08
7.75335e-10
4.05027e-08
7.36445e-10
4.01824e-08
6.94261e-10
3.98791e-08
6.545e-10
3.95946e-08
6.11649e-10
3.93275e-08
5.7296e-10
3.908e-08
5.27583e-10
3.88486e-08
4.91035e-10
3.86348e-08
4.52175e-10
3.84355e-08
4.20201e-10
3.82529e-08
3.82841e-10
3.80818e-08
3.57226e-10
3.79253e-08
3.26184e-10
3.77784e-08
3.05644e-10
3.76454e-08
2.75628e-10
3.75198e-08
2.59664e-10
3.74074e-08
2.32144e-10
3.73002e-08
2.2067e-10
3.72052e-08
1.96081e-10
3.71131e-08
1.89747e-10
3.70322e-08
1.68159e-10
3.69516e-08
1.6777e-10
1.55591e-10
9.69956e-08
5.49333e-09
-9.69304e-08
9.74691e-08
7.85651e-09
9.7838e-08
9.52501e-09
9.80895e-08
1.02294e-08
9.83999e-08
1.05214e-08
9.87732e-08
1.06695e-08
9.91062e-08
1.05346e-08
9.92941e-08
9.94085e-09
9.92874e-08
8.92566e-09
9.91284e-08
7.74446e-09
9.89064e-08
6.73452e-09
9.86653e-08
6.05845e-09
9.83994e-08
5.65181e-09
9.80997e-08
5.39011e-09
9.777e-08
5.20067e-09
9.74149e-08
5.05024e-09
9.70353e-08
4.9224e-09
9.66291e-08
4.80974e-09
9.61934e-08
4.70875e-09
9.57254e-08
4.61479e-09
9.52233e-08
4.52236e-09
9.46865e-08
4.42885e-09
9.41152e-08
4.33547e-09
9.35102e-08
4.24458e-09
9.28727e-08
4.15797e-09
9.22045e-08
4.07566e-09
9.15076e-08
3.99592e-09
9.07845e-08
3.91639e-09
9.00385e-08
3.83645e-09
8.92728e-08
3.75721e-09
8.84906e-08
3.67993e-09
8.76951e-08
3.60456e-09
8.6889e-08
3.53073e-09
8.60745e-08
3.45848e-09
8.52533e-08
3.38818e-09
8.44265e-08
3.31979e-09
8.3595e-08
3.25366e-09
8.27597e-08
3.19012e-09
8.19212e-08
3.12941e-09
8.10809e-08
3.07063e-09
8.02397e-08
3.01324e-09
7.93994e-08
2.95582e-09
7.85612e-08
2.89834e-09
7.77263e-08
2.84164e-09
7.68954e-08
2.78734e-09
7.6069e-08
2.73565e-09
7.52473e-08
2.68559e-09
7.44311e-08
2.63543e-09
7.36208e-08
2.58521e-09
7.2817e-08
2.53523e-09
7.20202e-08
2.4869e-09
7.12312e-08
2.43924e-09
7.04506e-08
2.39236e-09
6.96792e-08
2.34553e-09
6.89173e-08
2.29973e-09
6.81651e-08
2.25493e-09
6.74225e-08
2.21165e-09
6.669e-08
2.16751e-09
6.59675e-08
2.12383e-09
6.52552e-08
2.08086e-09
6.45524e-08
2.0411e-09
6.38598e-08
2.00088e-09
6.31779e-08
1.96046e-09
6.25076e-08
1.917e-09
6.18485e-08
1.8758e-09
6.12009e-08
1.83493e-09
6.05649e-08
1.79462e-09
5.99419e-08
1.74934e-09
5.93312e-08
1.70541e-09
5.87341e-08
1.65963e-09
5.81507e-08
1.61426e-09
5.75824e-08
1.56463e-09
5.70289e-08
1.51656e-09
5.64922e-08
1.46399e-09
5.59719e-08
1.41102e-09
5.547e-08
1.35515e-09
5.49857e-08
1.3006e-09
5.45212e-08
1.23985e-09
5.40757e-08
1.18197e-09
5.36519e-08
1.11804e-09
5.32477e-08
1.05866e-09
5.28658e-08
9.9355e-10
5.25045e-08
9.34316e-10
5.21671e-08
8.64936e-10
5.1849e-08
8.09161e-10
5.15532e-08
7.4796e-10
5.12753e-08
6.9811e-10
5.1019e-08
6.3917e-10
5.07772e-08
5.98985e-10
5.05549e-08
5.4847e-10
5.03448e-08
5.15748e-10
5.01536e-08
4.66804e-10
4.99721e-08
4.41222e-10
4.98086e-08
3.95603e-10
4.96521e-08
3.77244e-10
4.95127e-08
3.35466e-10
4.93772e-08
3.25198e-10
4.92579e-08
2.87455e-10
4.91396e-08
2.86132e-10
2.61423e-10
1.01177e-07
5.47692e-09
-1.0116e-07
1.01564e-07
7.46909e-09
1.01971e-07
9.11803e-09
1.02267e-07
9.93355e-09
1.02568e-07
1.02207e-08
1.02925e-07
1.03118e-08
1.03283e-07
1.01772e-08
1.03545e-07
9.67841e-09
1.03656e-07
8.8146e-09
1.03632e-07
7.76859e-09
1.03549e-07
6.81745e-09
1.03461e-07
6.14709e-09
1.03372e-07
5.74085e-09
1.03271e-07
5.4904e-09
1.03159e-07
5.3133e-09
1.03037e-07
5.17146e-09
1.02909e-07
5.0505e-09
1.02773e-07
4.94608e-09
1.02625e-07
4.85659e-09
1.02462e-07
4.77798e-09
1.0228e-07
4.70445e-09
1.02076e-07
4.63267e-09
1.01849e-07
4.56304e-09
1.01596e-07
4.49738e-09
1.01317e-07
4.43714e-09
1.0101e-07
4.38208e-09
1.00676e-07
4.33017e-09
1.00314e-07
4.27857e-09
9.99241e-08
4.22606e-09
9.95082e-08
4.1731e-09
9.90676e-08
4.12051e-09
9.86042e-08
4.06796e-09
9.81199e-08
4.01508e-09
9.76163e-08
3.96205e-09
9.70948e-08
3.9097e-09
9.65561e-08
3.85846e-09
9.60006e-08
3.80914e-09
9.54284e-08
3.76242e-09
9.48392e-08
3.71855e-09
9.42335e-08
3.67636e-09
9.36117e-08
3.63498e-09
9.29752e-08
3.59237e-09
9.23252e-08
3.54829e-09
9.16635e-08
3.5034e-09
9.09912e-08
3.45963e-09
9.03095e-08
3.41732e-09
8.96193e-08
3.37583e-09
8.89212e-08
3.33346e-09
8.82159e-08
3.29055e-09
8.75038e-08
3.24731e-09
8.67855e-08
3.20522e-09
8.6062e-08
3.16272e-09
8.53345e-08
3.11987e-09
8.46047e-08
3.07533e-09
8.3874e-08
3.03043e-09
8.31438e-08
2.98513e-09
8.24148e-08
2.94068e-09
8.16878e-08
2.89446e-09
8.09631e-08
2.84852e-09
8.02409e-08
2.80306e-09
7.95208e-08
2.76121e-09
7.88036e-08
2.71811e-09
7.809e-08
2.67403e-09
7.7382e-08
2.62505e-09
7.66798e-08
2.57802e-09
7.59845e-08
2.53014e-09
7.52967e-08
2.48248e-09
7.46177e-08
2.42831e-09
7.3947e-08
2.37616e-09
7.3286e-08
2.32062e-09
7.26348e-08
2.26545e-09
7.19955e-08
2.20387e-09
7.1368e-08
2.1441e-09
7.07552e-08
2.07677e-09
7.01566e-08
2.00962e-09
6.9575e-08
1.93675e-09
6.90096e-08
1.86604e-09
6.84633e-08
1.7861e-09
6.79348e-08
1.71045e-09
6.74284e-08
1.6245e-09
6.69411e-08
1.54593e-09
6.64767e-08
1.45797e-09
6.60329e-08
1.37809e-09
6.56149e-08
1.28298e-09
6.52168e-08
1.20724e-09
6.48436e-08
1.12113e-09
6.44897e-08
1.052e-09
6.41608e-08
9.68082e-10
6.3848e-08
9.1182e-10
6.35584e-08
8.38047e-10
6.32825e-08
7.91645e-10
6.30296e-08
7.19667e-10
6.27878e-08
6.83072e-10
6.25685e-08
6.1487e-10
6.23572e-08
5.88544e-10
6.21678e-08
5.24837e-10
6.1983e-08
5.10022e-10
6.18192e-08
4.51238e-10
6.16566e-08
4.48725e-10
4.06202e-10
1.05495e-07
5.47056e-09
-1.05488e-07
1.05802e-07
7.16155e-09
1.06213e-07
8.70759e-09
1.0655e-07
9.59633e-09
1.06852e-07
9.91894e-09
1.07185e-07
9.97836e-09
1.07529e-07
9.83364e-09
1.07804e-07
9.40306e-09
1.07954e-07
8.66459e-09
1.07977e-07
7.74516e-09
1.07935e-07
6.85961e-09
1.07885e-07
6.19689e-09
1.07845e-07
5.7814e-09
1.07805e-07
5.53036e-09
1.07761e-07
5.35749e-09
1.07715e-07
5.21747e-09
1.0767e-07
5.09512e-09
1.07628e-07
4.98864e-09
1.07585e-07
4.89881e-09
1.07541e-07
4.82281e-09
1.0749e-07
4.75499e-09
1.07431e-07
4.69157e-09
1.07362e-07
4.63233e-09
1.0728e-07
4.5787e-09
1.07186e-07
4.53194e-09
1.07076e-07
4.49175e-09
1.0695e-07
4.45607e-09
1.06807e-07
4.4219e-09
1.06645e-07
4.38766e-09
1.06465e-07
4.35321e-09
1.06267e-07
4.31894e-09
1.0605e-07
4.28409e-09
1.05817e-07
4.24819e-09
1.05568e-07
4.21131e-09
1.05303e-07
4.17449e-09
1.05023e-07
4.13852e-09
1.04728e-07
4.10469e-09
1.04416e-07
4.07414e-09
1.04087e-07
4.04748e-09
1.0374e-07
4.02346e-09
1.03374e-07
4.00106e-09
1.02989e-07
3.97755e-09
1.02585e-07
3.95232e-09
1.02163e-07
3.92542e-09
1.01723e-07
3.89883e-09
1.01268e-07
3.87269e-09
1.00797e-07
3.84676e-09
1.00311e-07
3.8194e-09
9.98103e-08
3.79143e-09
9.92945e-08
3.76315e-09
9.87633e-08
3.73641e-09
9.8217e-08
3.70907e-09
9.76557e-08
3.68111e-09
9.70811e-08
3.65001e-09
9.64945e-08
3.61699e-09
9.58982e-08
3.58138e-09
9.52937e-08
3.54522e-09
9.46825e-08
3.5057e-09
9.40649e-08
3.46605e-09
9.34415e-08
3.42651e-09
9.28113e-08
3.39138e-09
9.21747e-08
3.35472e-09
9.15317e-08
3.31704e-09
9.08844e-08
3.27233e-09
9.02338e-08
3.22862e-09
8.95824e-08
3.18158e-09
8.89309e-08
3.13394e-09
8.82818e-08
3.07738e-09
8.76341e-08
3.02385e-09
8.69895e-08
2.96526e-09
8.63472e-08
2.90774e-09
8.57101e-08
2.84102e-09
8.50773e-08
2.77684e-09
8.44535e-08
2.7006e-09
8.38378e-08
2.62536e-09
8.32341e-08
2.54037e-09
8.26414e-08
2.45874e-09
8.20639e-08
2.36362e-09
8.14993e-08
2.27504e-09
8.09534e-08
2.17047e-09
8.04227e-08
2.07658e-09
7.99121e-08
1.96861e-09
7.94184e-08
1.87175e-09
7.89485e-08
1.75287e-09
7.84958e-08
1.65994e-09
7.80673e-08
1.54963e-09
7.76564e-08
1.46289e-09
7.72713e-08
1.35318e-09
7.69015e-08
1.28167e-09
7.65564e-08
1.18311e-09
7.62245e-08
1.12361e-09
7.59175e-08
1.02658e-09
7.56214e-08
9.79263e-10
7.53507e-08
8.85556e-10
7.50878e-08
8.51362e-10
7.48505e-08
7.62162e-10
7.46175e-08
7.4302e-10
7.44092e-08
6.59536e-10
7.42018e-08
6.56191e-10
5.91578e-10
1.09936e-07
5.45998e-09
-1.09925e-07
1.10181e-07
6.9168e-09
1.10573e-07
8.31573e-09
1.10939e-07
9.23025e-09
1.11253e-07
9.60447e-09
1.11573e-07
9.65901e-09
1.11898e-07
9.50819e-09
1.12174e-07
9.1273e-09
1.12346e-07
8.49258e-09
1.12401e-07
7.69025e-09
1.12381e-07
6.87904e-09
1.12345e-07
6.23308e-09
1.12318e-07
5.80805e-09
1.12298e-07
5.55097e-09
1.12276e-07
5.3796e-09
1.12252e-07
5.24117e-09
1.1223e-07
5.11683e-09
1.12213e-07
5.00597e-09
1.122e-07
4.91185e-09
1.12189e-07
4.83335e-09
1.12179e-07
4.76534e-09
1.12167e-07
4.70372e-09
1.12151e-07
4.64774e-09
1.12132e-07
4.59839e-09
1.12107e-07
4.55681e-09
1.12076e-07
4.52267e-09
1.12038e-07
4.49408e-09
1.11992e-07
4.46801e-09
1.11937e-07
4.44283e-09
1.11872e-07
4.41793e-09
1.11797e-07
4.39344e-09
1.11713e-07
4.36828e-09
1.1162e-07
4.34186e-09
1.11517e-07
4.31407e-09
1.11405e-07
4.28606e-09
1.11285e-07
4.25875e-09
1.11156e-07
4.23386e-09
1.11017e-07
4.21285e-09
1.10868e-07
4.19695e-09
1.10706e-07
4.18496e-09
1.10531e-07
4.17615e-09
1.10341e-07
4.16717e-09
1.10137e-07
4.15729e-09
1.09916e-07
4.14569e-09
1.09681e-07
4.13436e-09
1.0943e-07
4.12294e-09
1.09166e-07
4.11157e-09
1.08887e-07
4.09848e-09
1.08593e-07
4.08509e-09
1.08284e-07
4.07167e-09
1.0796e-07
4.06094e-09
1.07619e-07
4.05044e-09
1.07259e-07
4.04053e-09
1.06882e-07
4.02725e-09
1.06487e-07
4.01148e-09
1.06078e-07
3.99112e-09
1.05654e-07
3.96881e-09
1.05219e-07
3.94118e-09
1.04772e-07
3.9128e-09
1.04315e-07
3.8838e-09
1.03846e-07
3.86037e-09
1.03364e-07
3.83581e-09
1.0287e-07
3.81189e-09
1.02362e-07
3.77983e-09
1.01842e-07
3.74852e-09
1.01313e-07
3.71061e-09
1.00776e-07
3.67092e-09
1.00235e-07
3.61853e-09
9.96887e-08
3.57019e-09
9.91392e-08
3.51477e-09
9.85842e-08
3.46274e-09
9.80266e-08
3.39858e-09
9.74644e-08
3.33911e-09
9.69029e-08
3.26212e-09
9.63409e-08
3.18731e-09
9.57839e-08
3.09733e-09
9.52302e-08
3.0125e-09
9.46851e-08
2.90873e-09
9.41455e-08
2.81459e-09
9.36182e-08
2.69782e-09
9.30995e-08
2.59525e-09
9.25953e-08
2.47286e-09
9.21014e-08
2.3656e-09
9.1626e-08
2.22831e-09
9.11615e-08
2.1244e-09
9.07168e-08
1.99434e-09
9.02845e-08
1.89516e-09
8.98755e-08
1.76218e-09
8.94785e-08
1.67865e-09
8.91051e-08
1.55659e-09
8.87418e-08
1.48686e-09
8.84027e-08
1.36574e-09
8.80716e-08
1.31035e-09
8.77662e-08
1.19097e-09
8.74669e-08
1.15065e-09
8.71943e-08
1.03469e-09
8.69252e-08
1.01213e-09
8.6682e-08
9.02794e-10
8.64387e-08
8.99449e-10
8.11182e-10
1.14505e-07
5.44401e-09
-1.14489e-07
1.14706e-07
6.71528e-09
1.15067e-07
7.95467e-09
1.15445e-07
8.85214e-09
1.15776e-07
9.27351e-09
1.1609e-07
9.34521e-09
1.16399e-07
9.19905e-09
1.1667e-07
8.85654e-09
1.16856e-07
8.30624e-09
1.16939e-07
7.60819e-09
1.16941e-07
6.87663e-09
1.16916e-07
6.258e-09
1.16896e-07
5.82788e-09
1.16885e-07
5.56222e-09
1.16874e-07
5.39052e-09
1.1686e-07
5.25486e-09
1.16847e-07
5.13062e-09
1.16836e-07
5.01657e-09
1.1683e-07
4.91797e-09
1.16827e-07
4.83577e-09
1.16827e-07
4.76582e-09
1.16827e-07
4.70382e-09
1.16826e-07
4.64854e-09
1.16824e-07
4.60044e-09
1.1682e-07
4.56054e-09
1.16815e-07
4.52838e-09
1.16806e-07
4.50233e-09
1.16795e-07
4.47938e-09
1.1678e-07
4.45798e-09
1.16761e-07
4.43719e-09
1.16737e-07
4.41706e-09
1.16709e-07
4.39621e-09
1.16677e-07
4.37407e-09
1.16641e-07
4.35029e-09
1.166e-07
4.32615e-09
1.16557e-07
4.30243e-09
1.16509e-07
4.28127e-09
1.16458e-07
4.26412e-09
1.16402e-07
4.25292e-09
1.16341e-07
4.24648e-09
1.16272e-07
4.24464e-09
1.16196e-07
4.24362e-09
1.1611e-07
4.24285e-09
1.16015e-07
4.24066e-09
1.1591e-07
4.23915e-09
1.15796e-07
4.2373e-09
1.15672e-07
4.23571e-09
1.15538e-07
4.23217e-09
1.15394e-07
4.22876e-09
1.15241e-07
4.2254e-09
1.15076e-07
4.22599e-09
1.14898e-07
4.22787e-09
1.14706e-07
4.23246e-09
1.14499e-07
4.23447e-09
1.14276e-07
4.23468e-09
1.14038e-07
4.22904e-09
1.13786e-07
4.22062e-09
1.13522e-07
4.20502e-09
1.13247e-07
4.18815e-09
1.12961e-07
4.16943e-09
1.12664e-07
4.15747e-09
1.12355e-07
4.1448e-09
1.12031e-07
4.13592e-09
1.11692e-07
4.11911e-09
1.11336e-07
4.10479e-09
1.10965e-07
4.08088e-09
1.10582e-07
4.05476e-09
1.10189e-07
4.01075e-09
1.09788e-07
3.97165e-09
1.0938e-07
3.9223e-09
1.08963e-07
3.88041e-09
1.08538e-07
3.82365e-09
1.08101e-07
3.77592e-09
1.07658e-07
3.70526e-09
1.07206e-07
3.6389e-09
1.06752e-07
3.55095e-09
1.06295e-07
3.47037e-09
1.05839e-07
3.36477e-09
1.05381e-07
3.27249e-09
1.04928e-07
3.15099e-09
1.04476e-07
3.04723e-09
1.04031e-07
2.91716e-09
1.0359e-07
2.80687e-09
1.0316e-07
2.65796e-09
1.02734e-07
2.55077e-09
1.0232e-07
2.40798e-09
1.01911e-07
2.30413e-09
1.0152e-07
2.15377e-09
1.01135e-07
2.06334e-09
1.0077e-07
1.92145e-09
1.00411e-07
1.84563e-09
1.00073e-07
1.70409e-09
9.97382e-08
1.64523e-09
9.94258e-08
1.5034e-09
9.91161e-08
1.46032e-09
9.8831e-08
1.31977e-09
9.85484e-08
1.29472e-09
9.82896e-08
1.16155e-09
9.80302e-08
1.15892e-09
1.04915e-09
1.19217e-07
5.42531e-09
-1.19198e-07
1.19391e-07
6.5412e-09
1.19717e-07
7.62883e-09
1.20092e-07
8.4775e-09
1.20436e-07
8.92885e-09
1.20749e-07
9.03227e-09
1.21045e-07
8.90285e-09
1.21308e-07
8.59406e-09
1.21502e-07
8.11244e-09
1.21606e-07
7.50409e-09
1.2163e-07
6.85225e-09
1.21618e-07
6.27048e-09
1.21603e-07
5.84207e-09
1.21598e-07
5.56744e-09
1.21595e-07
5.39326e-09
1.2159e-07
5.26076e-09
1.21581e-07
5.13892e-09
1.21574e-07
5.02377e-09
1.2157e-07
4.92175e-09
1.2157e-07
4.83595e-09
1.21572e-07
4.76372e-09
1.21575e-07
4.70077e-09
1.21578e-07
4.64547e-09
1.21581e-07
4.59767e-09
1.21583e-07
4.55826e-09
1.21585e-07
4.52655e-09
1.21586e-07
4.50121e-09
1.21587e-07
4.4792e-09
1.21585e-07
4.45922e-09
1.21583e-07
4.43999e-09
1.21578e-07
4.42166e-09
1.21572e-07
4.40254e-09
1.21563e-07
4.38225e-09
1.21554e-07
4.36009e-09
1.21542e-07
4.33758e-09
1.21529e-07
4.31515e-09
1.21515e-07
4.29531e-09
1.215e-07
4.27922e-09
1.21484e-07
4.26952e-09
1.21465e-07
4.26478e-09
1.21444e-07
4.26566e-09
1.2142e-07
4.26791e-09
1.21391e-07
4.27146e-09
1.21358e-07
4.27382e-09
1.2132e-07
4.27741e-09
1.21277e-07
4.28043e-09
1.21229e-07
4.28411e-09
1.21175e-07
4.28553e-09
1.21116e-07
4.28751e-09
1.21053e-07
4.28922e-09
1.20983e-07
4.2958e-09
1.20906e-07
4.30432e-09
1.20821e-07
4.31766e-09
1.20726e-07
4.32949e-09
1.2062e-07
4.34093e-09
1.20503e-07
4.34589e-09
1.20376e-07
4.34795e-09
1.2024e-07
4.34121e-09
1.20095e-07
4.3331e-09
1.19942e-07
4.32154e-09
1.19782e-07
4.31777e-09
1.19614e-07
4.31301e-09
1.19434e-07
4.31583e-09
1.19242e-07
4.31133e-09
1.19033e-07
4.31311e-09
1.18811e-07
4.30301e-09
1.18574e-07
4.29213e-09
1.18327e-07
4.25739e-09
1.1807e-07
4.22867e-09
1.17808e-07
4.18476e-09
1.17535e-07
4.1535e-09
1.17254e-07
4.10449e-09
1.16959e-07
4.07092e-09
1.16654e-07
4.00995e-09
1.16337e-07
3.95662e-09
1.16012e-07
3.87537e-09
1.15679e-07
3.80371e-09
1.15342e-07
3.70117e-09
1.14999e-07
3.61559e-09
1.14655e-07
3.49542e-09
1.14305e-07
3.3966e-09
1.13958e-07
3.26487e-09
1.13607e-07
3.15758e-09
1.13262e-07
3.00293e-09
1.12914e-07
2.8988e-09
1.12572e-07
2.75029e-09
1.12226e-07
2.64958e-09
1.1189e-07
2.48993e-09
1.11555e-07
2.39861e-09
1.11234e-07
2.24211e-09
1.10916e-07
2.16416e-09
1.10613e-07
2.0069e-09
1.10309e-07
1.94943e-09
1.10021e-07
1.79107e-09
1.09732e-07
1.74923e-09
1.09462e-07
1.59024e-09
1.09193e-07
1.56324e-09
1.08944e-07
1.41096e-09
1.08694e-07
1.40885e-09
1.28285e-09
1.24092e-07
5.40548e-09
-1.24072e-07
1.24248e-07
6.38485e-09
1.24541e-07
7.33674e-09
1.24901e-07
8.11698e-09
1.25252e-07
8.57819e-09
1.25566e-07
8.71772e-09
1.25853e-07
8.61613e-09
1.26106e-07
8.34098e-09
1.26302e-07
7.91684e-09
1.26422e-07
7.38424e-09
1.26466e-07
6.80728e-09
1.26467e-07
6.26956e-09
1.26459e-07
5.8504e-09
1.26458e-07
5.56859e-09
1.26461e-07
5.38979e-09
1.26463e-07
5.25964e-09
1.2646e-07
5.1418e-09
1.26456e-07
5.02766e-09
1.26454e-07
4.92369e-09
1.26455e-07
4.83483e-09
1.26458e-07
4.76032e-09
1.26463e-07
4.69624e-09
1.26468e-07
4.6407e-09
1.26472e-07
4.59289e-09
1.26477e-07
4.55361e-09
1.26482e-07
4.52179e-09
1.26487e-07
4.49644e-09
1.26491e-07
4.47443e-09
1.26496e-07
4.45485e-09
1.265e-07
4.43605e-09
1.26503e-07
4.41844e-09
1.26505e-07
4.39998e-09
1.26507e-07
4.38063e-09
1.26508e-07
4.35922e-09
1.26508e-07
4.33766e-09
1.26507e-07
4.31585e-09
1.26506e-07
4.29675e-09
1.26504e-07
4.28087e-09
1.26502e-07
4.27161e-09
1.265e-07
4.26704e-09
1.26497e-07
4.26873e-09
1.26493e-07
4.2719e-09
1.26487e-07
4.27724e-09
1.26479e-07
4.28139e-09
1.26469e-07
4.28735e-09
1.26457e-07
4.29243e-09
1.26443e-07
4.29863e-09
1.26426e-07
4.30219e-09
1.26407e-07
4.30672e-09
1.26386e-07
4.31039e-09
1.26362e-07
4.31943e-09
1.26336e-07
4.33049e-09
1.26306e-07
4.34794e-09
1.2627e-07
4.36469e-09
1.26229e-07
4.38253e-09
1.26181e-07
4.39354e-09
1.26127e-07
4.40204e-09
1.26068e-07
4.40037e-09
1.26003e-07
4.39773e-09
1.25935e-07
4.38982e-09
1.25862e-07
4.39078e-09
1.25786e-07
4.38939e-09
1.25702e-07
4.39943e-09
1.25611e-07
4.40196e-09
1.25509e-07
4.41585e-09
1.25396e-07
4.41569e-09
1.2527e-07
4.41845e-09
1.25136e-07
4.39116e-09
1.24993e-07
4.37193e-09
1.24846e-07
4.331e-09
1.24692e-07
4.30826e-09
1.24532e-07
4.26436e-09
1.2436e-07
4.24313e-09
1.24178e-07
4.19134e-09
1.23984e-07
4.15128e-09
1.23781e-07
4.07833e-09
1.23568e-07
4.01656e-09
1.2335e-07
3.91923e-09
1.23124e-07
3.84155e-09
1.22893e-07
3.72585e-09
1.22655e-07
3.63514e-09
1.22414e-07
3.50576e-09
1.22166e-07
3.40512e-09
1.21921e-07
3.24854e-09
1.21669e-07
3.15068e-09
1.21418e-07
3.00117e-09
1.21159e-07
2.90858e-09
1.20901e-07
2.74746e-09
1.20639e-07
2.66089e-09
1.20386e-07
2.49568e-09
1.20131e-07
2.41843e-09
1.19889e-07
2.24968e-09
1.19642e-07
2.19645e-09
1.19404e-07
2.02836e-09
1.19163e-07
1.99051e-09
1.18931e-07
1.82219e-09
1.18701e-07
1.7936e-09
1.18483e-07
1.62846e-09
1.18266e-07
1.62549e-09
1.4896e-09
1.29147e-07
5.38398e-09
-1.29125e-07
1.2929e-07
6.24137e-09
1.29554e-07
7.07337e-09
1.29894e-07
7.77644e-09
1.30242e-07
8.23035e-09
1.30558e-07
8.40147e-09
1.30839e-07
8.33561e-09
1.31083e-07
8.09654e-09
1.31277e-07
7.72292e-09
1.31407e-07
7.25445e-09
1.3147e-07
6.74457e-09
1.31484e-07
6.25473e-09
1.31483e-07
5.852e-09
1.31485e-07
5.56668e-09
1.31493e-07
5.38189e-09
1.315e-07
5.25246e-09
1.31502e-07
5.13925e-09
1.31502e-07
5.02792e-09
1.31502e-07
4.92358e-09
1.31505e-07
4.83244e-09
1.31509e-07
4.75583e-09
1.31515e-07
4.69048e-09
1.31521e-07
4.6346e-09
1.31527e-07
4.58663e-09
1.31533e-07
4.54736e-09
1.3154e-07
4.51523e-09
1.31547e-07
4.48959e-09
1.31554e-07
4.46716e-09
1.31561e-07
4.44751e-09
1.31569e-07
4.4286e-09
1.31576e-07
4.41123e-09
1.31583e-07
4.39295e-09
1.3159e-07
4.3742e-09
1.31596e-07
4.35325e-09
1.31601e-07
4.33255e-09
1.31605e-07
4.31127e-09
1.31609e-07
4.29296e-09
1.31613e-07
4.27725e-09
1.31616e-07
4.2683e-09
1.3162e-07
4.26351e-09
1.31623e-07
4.26541e-09
1.31626e-07
4.2686e-09
1.31629e-07
4.27466e-09
1.31631e-07
4.27941e-09
1.31632e-07
4.2865e-09
1.31632e-07
4.29234e-09
1.3163e-07
4.29977e-09
1.31628e-07
4.30422e-09
1.31625e-07
4.30997e-09
1.31621e-07
4.31427e-09
1.31617e-07
4.3241e-09
1.31611e-07
4.33567e-09
1.31605e-07
4.35457e-09
1.31596e-07
4.37313e-09
1.31585e-07
4.39397e-09
1.31571e-07
4.40773e-09
1.31553e-07
4.41964e-09
1.31533e-07
4.4202e-09
1.3151e-07
4.42064e-09
1.31486e-07
4.4139e-09
1.3146e-07
4.41738e-09
1.31433e-07
4.41619e-09
1.31402e-07
4.43017e-09
1.31369e-07
4.435e-09
1.31328e-07
4.45678e-09
1.31282e-07
4.46167e-09
1.31226e-07
4.475e-09
1.31165e-07
4.45217e-09
1.31096e-07
4.44078e-09
1.31026e-07
4.40037e-09
1.30951e-07
4.38352e-09
1.30874e-07
4.34162e-09
1.30788e-07
4.32894e-09
1.30696e-07
4.28385e-09
1.30593e-07
4.25406e-09
1.30482e-07
4.18878e-09
1.30364e-07
4.13494e-09
1.3024e-07
4.04298e-09
1.3011e-07
3.97152e-09
1.29975e-07
3.86076e-09
1.29832e-07
3.77828e-09
1.29685e-07
3.65301e-09
1.2953e-07
3.56023e-09
1.29375e-07
3.40364e-09
1.29213e-07
3.31241e-09
1.2905e-07
3.16388e-09
1.28879e-07
3.08034e-09
1.28703e-07
2.92297e-09
1.28519e-07
2.84497e-09
1.28338e-07
2.67663e-09
1.28155e-07
2.6018e-09
1.27979e-07
2.42488e-09
1.278e-07
2.37581e-09
1.27625e-07
2.20365e-09
1.27446e-07
2.16979e-09
1.27266e-07
2.0016e-09
1.27088e-07
1.97203e-09
1.26916e-07
1.80053e-09
1.26746e-07
1.79474e-09
1.65393e-09
1.34394e-07
5.35857e-09
-1.34368e-07
1.34527e-07
6.10789e-09
1.34767e-07
6.83328e-09
1.35086e-07
7.45818e-09
1.35424e-07
7.89242e-09
1.35739e-07
8.08591e-09
1.36016e-07
8.0585e-09
1.36254e-07
7.85882e-09
1.36445e-07
7.53199e-09
1.3658e-07
7.11897e-09
1.36657e-07
6.66775e-09
1.36686e-07
6.22601e-09
1.36692e-07
5.84571e-09
1.36697e-07
5.56167e-09
1.36708e-07
5.37097e-09
1.3672e-07
5.24032e-09
1.36728e-07
5.13142e-09
1.36732e-07
5.02422e-09
1.36734e-07
4.92109e-09
1.36738e-07
4.82863e-09
1.36744e-07
4.75024e-09
1.36751e-07
4.68356e-09
1.36758e-07
4.62726e-09
1.36766e-07
4.57903e-09
1.36773e-07