/*--------------------------------*- C++ -*----------------------------------*\
| =========                 |                                                 |
| \\      /  F ield         | OpenFOAM: The Open Source CFD Toolbox           |
|  \\    /   O peration     | Version:  5.x                                   |
|   \\  /    A nd           | Web:      www.OpenFOAM.org                      |
|    \\/     M anipulation  |                                                 |
\*---------------------------------------------------------------------------*/
FoamFile
{
    version     2.0;
    format      ascii;
    class       volVectorField;
    location    "0.2";
    object      U;
}
// * * * * * * * * * * * * * * * * * * * * * * * * * * * * * * * * * * * * * //

dimensions      [0 1 -1 0 0 0 0];

internalField   nonuniform List<vector> 
10800
(
(0.912088 0.010161 0)
(0.818687 0.0139377 0)
(0.725526 0.013871 0)
(0.6311 0.0129198 0)
(0.536834 0.0118779 0)
(0.446213 0.010306 0)
(0.365379 0.00796315 0)
(0.301193 0.00477001 0)
(0.257066 0.00174091 0)
(0.229282 -3.34371e-06 0)
(0.211343 -0.000538373 0)
(0.199178 -0.00056527 0)
(0.190514 -0.00044382 0)
(0.183785 -0.000276471 0)
(0.177949 -0.000113098 0)
(0.172479 1.18151e-05 0)
(0.167178 9.14708e-05 0)
(0.162017 0.000133833 0)
(0.157036 0.000150692 0)
(0.152281 0.000152371 0)
(0.147792 0.000146005 0)
(0.14359 0.000136129 0)
(0.139677 0.000125521 0)
(0.136038 0.000115555 0)
(0.132644 0.000106801 0)
(0.129463 9.93194e-05 0)
(0.126467 9.28139e-05 0)
(0.123635 8.68035e-05 0)
(0.12095 8.11009e-05 0)
(0.1184 7.58847e-05 0)
(0.115971 7.1321e-05 0)
(0.113649 6.73045e-05 0)
(0.111424 6.36228e-05 0)
(0.109289 6.0182e-05 0)
(0.107239 5.69512e-05 0)
(0.105268 5.38581e-05 0)
(0.103372 5.08953e-05 0)
(0.101548 4.81334e-05 0)
(0.0997887 4.56779e-05 0)
(0.0980901 4.34362e-05 0)
(0.0964468 4.1424e-05 0)
(0.0948559 3.9502e-05 0)
(0.0933154 3.75611e-05 0)
(0.0918252 3.5635e-05 0)
(0.0903823 3.38552e-05 0)
(0.0889832 3.23358e-05 0)
(0.0876231 3.09905e-05 0)
(0.0863007 2.96424e-05 0)
(0.0850158 2.82491e-05 0)
(0.0837696 2.68457e-05 0)
(0.082559 2.56443e-05 0)
(0.0813818 2.45572e-05 0)
(0.0802346 2.35432e-05 0)
(0.0791177 2.25335e-05 0)
(0.0780296 2.15276e-05 0)
(0.0769706 2.05766e-05 0)
(0.0759377 1.97589e-05 0)
(0.0749316 1.89069e-05 0)
(0.0739517 1.80291e-05 0)
(0.0730004 1.71161e-05 0)
(0.072073 1.64298e-05 0)
(0.0711683 1.5818e-05 0)
(0.070283 1.52547e-05 0)
(0.0694227 1.44481e-05 0)
(0.0685867 1.37163e-05 0)
(0.0677749 1.31701e-05 0)
(0.0669805 1.27726e-05 0)
(0.0662099 1.20786e-05 0)
(0.0654632 1.14208e-05 0)
(0.0647427 1.08734e-05 0)
(0.0640429 1.03908e-05 0)
(0.0633695 9.77851e-06 0)
(0.0627191 9.29238e-06 0)
(0.0620944 8.81417e-06 0)
(0.0614949 8.23583e-06 0)
(0.0609229 7.753e-06 0)
(0.0603761 7.3174e-06 0)
(0.0598576 6.72954e-06 0)
(0.0593686 6.28633e-06 0)
(0.058906 5.82435e-06 0)
(0.0584749 5.34329e-06 0)
(0.0580697 4.85421e-06 0)
(0.0576956 4.58036e-06 0)
(0.057345 4.00041e-06 0)
(0.0570333 3.56968e-06 0)
(0.0567368 3.24653e-06 0)
(0.0564757 2.97583e-06 0)
(0.0562229 2.56301e-06 0)
(0.0560123 2.30268e-06 0)
(0.0557952 2.08003e-06 0)
(0.0556232 1.92514e-06 0)
(0.0554313 1.68467e-06 0)
(0.0552969 1.55874e-06 0)
(0.0551238 1.39629e-06 0)
(0.0550243 1.2657e-06 0)
(0.0548609 1.19527e-06 0)
(0.0547935 1.08137e-06 0)
(0.0546284 1.08515e-06 0)
(0.0545917 9.76634e-07 0)
(0.0544065 1.16499e-06 0)
(0.967101 0.0190436 0)
(0.960417 0.026708 0)
(0.94752 0.0279286 0)
(0.926203 0.0274756 0)
(0.896069 0.0269113 0)
(0.858132 0.0257055 0)
(0.815124 0.0233079 0)
(0.770646 0.0192993 0)
(0.728412 0.0143876 0)
(0.690241 0.00997974 0)
(0.655738 0.00689628 0)
(0.624515 0.00492981 0)
(0.596486 0.00367712 0)
(0.571467 0.00291168 0)
(0.549011 0.00246048 0)
(0.528676 0.00218278 0)
(0.510103 0.00198823 0)
(0.493019 0.00183036 0)
(0.477217 0.00168854 0)
(0.462545 0.00155372 0)
(0.448895 0.0014228 0)
(0.436185 0.00129771 0)
(0.424343 0.00118277 0)
(0.413293 0.00108089 0)
(0.40295 0.000992536 0)
(0.393236 0.000916311 0)
(0.38408 0.000849903 0)
(0.375427 0.00079076 0)
(0.367229 0.00073736 0)
(0.359443 0.000689341 0)
(0.352026 0.000646475 0)
(0.344944 0.000607884 0)
(0.338165 0.000572519 0)
(0.331668 0.000539806 0)
(0.325431 0.000509472 0)
(0.31944 0.000481162 0)
(0.313679 0.000454733 0)
(0.308132 0.000430244 0)
(0.302783 0.000407851 0)
(0.297619 0.000387115 0)
(0.292625 0.000367957 0)
(0.287796 0.000349886 0)
(0.283123 0.000332579 0)
(0.278599 0.000316091 0)
(0.274216 0.000300773 0)
(0.269963 0.000286837 0)
(0.265831 0.000273927 0)
(0.261817 0.000261443 0)
(0.257918 0.000249268 0)
(0.254133 0.000237513 0)
(0.250453 0.000226802 0)
(0.246876 0.000216818 0)
(0.243391 0.000207432 0)
(0.240001 0.000198384 0)
(0.236697 0.000189693 0)
(0.233479 0.000181428 0)
(0.230341 0.000173779 0)
(0.227286 0.000166193 0)
(0.224309 0.000158787 0)
(0.221413 0.000151551 0)
(0.218587 0.000145269 0)
(0.215832 0.000139315 0)
(0.213141 0.000133619 0)
(0.210525 0.000127284 0)
(0.207975 0.000121427 0)
(0.205497 0.000116184 0)
(0.203079 0.00011145 0)
(0.200735 0.000105826 0)
(0.198458 0.000100514 0)
(0.196258 9.55322e-05 0)
(0.194123 9.08541e-05 0)
(0.192067 8.57859e-05 0)
(0.19008 8.12269e-05 0)
(0.188172 7.66143e-05 0)
(0.186342 7.18535e-05 0)
(0.184593 6.73852e-05 0)
(0.182924 6.31241e-05 0)
(0.181338 5.84036e-05 0)
(0.179842 5.42776e-05 0)
(0.178426 5.00362e-05 0)
(0.177108 4.59612e-05 0)
(0.175862 4.18695e-05 0)
(0.17472 3.85878e-05 0)
(0.173645 3.43299e-05 0)
(0.172685 3.10149e-05 0)
(0.171766 2.79636e-05 0)
(0.170963 2.54161e-05 0)
(0.170177 2.23759e-05 0)
(0.169521 2.03151e-05 0)
(0.168839 1.8201e-05 0)
(0.168305 1.67094e-05 0)
(0.167703 1.46977e-05 0)
(0.167286 1.35537e-05 0)
(0.166743 1.19355e-05 0)
(0.166437 1.1031e-05 0)
(0.165926 9.85605e-06 0)
(0.165725 9.24702e-06 0)
(0.165216 8.45813e-06 0)
(0.165117 8.19289e-06 0)
(0.164562 8.26588e-06 0)
(0.971348 0.0175553 0)
(0.972614 0.0255148 0)
(0.975507 0.0283253 0)
(0.976839 0.0290562 0)
(0.974876 0.0294605 0)
(0.968985 0.0293368 0)
(0.959151 0.0279498 0)
(0.945764 0.0248218 0)
(0.929688 0.020501 0)
(0.912024 0.0162381 0)
(0.893364 0.0130119 0)
(0.874199 0.0108552 0)
(0.855026 0.00938531 0)
(0.836201 0.00832951 0)
(0.817799 0.00752575 0)
(0.7998 0.00687221 0)
(0.782175 0.00630771 0)
(0.764909 0.00580199 0)
(0.748001 0.00534122 0)
(0.731468 0.00491542 0)
(0.715344 0.00451648 0)
(0.699667 0.00414243 0)
(0.684476 0.00379697 0)
(0.669799 0.00348438 0)
(0.655648 0.00320614 0)
(0.642022 0.00296002 0)
(0.628913 0.00274139 0)
(0.616315 0.00254526 0)
(0.604212 0.00236869 0)
(0.592585 0.00221053 0)
(0.581406 0.00206934 0)
(0.570646 0.0019424 0)
(0.560277 0.0018268 0)
(0.550276 0.00172051 0)
(0.540621 0.00162234 0)
(0.531295 0.00153129 0)
(0.522279 0.00144687 0)
(0.513556 0.00136893 0)
(0.505109 0.0012974 0)
(0.496922 0.00123114 0)
(0.488977 0.00116956 0)
(0.481269 0.00111155 0)
(0.473785 0.00105666 0)
(0.466519 0.00100497 0)
(0.459455 0.000956942 0)
(0.452582 0.000912544 0)
(0.445889 0.000870931 0)
(0.439374 0.000831 0)
(0.433029 0.000792615 0)
(0.426855 0.000755962 0)
(0.420839 0.000721997 0)
(0.41498 0.000690079 0)
(0.409265 0.000659992 0)
(0.403696 0.000631226 0)
(0.398262 0.000603859 0)
(0.392961 0.000577831 0)
(0.387783 0.000553308 0)
(0.382734 0.000529271 0)
(0.377806 0.000506111 0)
(0.373003 0.000483846 0)
(0.368309 0.000463716 0)
(0.363729 0.000444393 0)
(0.359254 0.000425798 0)
(0.354896 0.000406442 0)
(0.35064 0.000388383 0)
(0.346497 0.000371466 0)
(0.342451 0.000355524 0)
(0.338524 0.000338186 0)
(0.334701 0.000321759 0)
(0.330999 0.000305886 0)
(0.327404 0.000290742 0)
(0.323933 0.000274988 0)
(0.320574 0.000260333 0)
(0.317343 0.00024544 0)
(0.314238 0.000230613 0)
(0.31126 0.00021627 0)
(0.308419 0.000202473 0)
(0.305704 0.000187861 0)
(0.303143 0.000174553 0)
(0.300706 0.000160937 0)
(0.298437 0.000148121 0)
(0.296276 0.000135204 0)
(0.2943 0.000124028 0)
(0.292422 0.000111148 0)
(0.290745 0.00010088 0)
(0.289121 9.08748e-05 0)
(0.287713 8.25491e-05 0)
(0.286311 7.32431e-05 0)
(0.285151 6.67465e-05 0)
(0.283923 5.97167e-05 0)
(0.282977 5.47688e-05 0)
(0.281887 4.82822e-05 0)
(0.281147 4.4524e-05 0)
(0.28016 3.90432e-05 0)
(0.279616 3.62827e-05 0)
(0.278688 3.18776e-05 0)
(0.278335 3.01917e-05 0)
(0.277417 2.67494e-05 0)
(0.27725 2.63074e-05 0)
(0.276278 2.50332e-05 0)
(0.975824 0.0162699 0)
(0.976552 0.0233757 0)
(0.980088 0.0269145 0)
(0.984493 0.0281498 0)
(0.988294 0.0287119 0)
(0.990988 0.0287937 0)
(0.992295 0.0278146 0)
(0.991839 0.0253572 0)
(0.989262 0.021794 0)
(0.984593 0.0180717 0)
(0.978149 0.0151074 0)
(0.97046 0.0131243 0)
(0.96206 0.0118341 0)
(0.953304 0.010918 0)
(0.944316 0.0101981 0)
(0.935097 0.00958756 0)
(0.925609 0.00904238 0)
(0.91582 0.00854192 0)
(0.905717 0.00807589 0)
(0.895306 0.00763365 0)
(0.884611 0.00720476 0)
(0.87367 0.00678608 0)
(0.86253 0.00638206 0)
(0.851241 0.00599889 0)
(0.839849 0.00564062 0)
(0.828398 0.00530754 0)
(0.816931 0.00499681 0)
(0.805492 0.00470477 0)
(0.79412 0.00443051 0)
(0.78285 0.00417551 0)
(0.771711 0.00394058 0)
(0.760723 0.0037241 0)
(0.749899 0.00352349 0)
(0.739249 0.00333671 0)
(0.728775 0.00316225 0)
(0.718483 0.00299868 0)
(0.708371 0.00284538 0)
(0.69844 0.00270222 0)
(0.688688 0.00256925 0)
(0.679119 0.00244511 0)
(0.669726 0.00232884 0)
(0.660517 0.00221873 0)
(0.651488 0.00211422 0)
(0.642641 0.00201564 0)
(0.633968 0.00192372 0)
(0.625464 0.0018381 0)
(0.617122 0.0017573 0)
(0.608942 0.00167962 0)
(0.600923 0.00160494 0)
(0.593067 0.00153354 0)
(0.585367 0.00146669 0)
(0.577826 0.00140349 0)
(0.570436 0.0013437 0)
(0.563202 0.00128659 0)
(0.556113 0.00123235 0)
(0.54917 0.00118073 0)
(0.542362 0.00113179 0)
(0.535697 0.00108392 0)
(0.529167 0.00103788 0)
(0.522777 0.000993751 0)
(0.516512 0.000953145 0)
(0.510378 0.000913939 0)
(0.504369 0.000876171 0)
(0.498498 0.000837836 0)
(0.492749 0.000801845 0)
(0.487131 0.000767534 0)
(0.481636 0.000734776 0)
(0.476281 0.000700262 0)
(0.471053 0.000667383 0)
(0.465969 0.000635218 0)
(0.461022 0.00060435 0)
(0.456224 0.000572672 0)
(0.451573 0.000542813 0)
(0.447075 0.000512435 0)
(0.442745 0.000482508 0)
(0.438566 0.000453126 0)
(0.434577 0.000424931 0)
(0.430734 0.00039541 0)
(0.427106 0.000368039 0)
(0.42362 0.000340024 0)
(0.420379 0.000313928 0)
(0.417251 0.000287344 0)
(0.414402 0.000263779 0)
(0.41165 0.000237706 0)
(0.409202 0.000216612 0)
(0.406787 0.000195466 0)
(0.404715 0.00017796 0)
(0.402604 0.00015874 0)
(0.400879 0.000145118 0)
(0.399009 0.00012994 0)
(0.397597 0.000119352 0)
(0.39592 0.000105476 0)
(0.394809 9.74204e-05 0)
(0.393277 8.54162e-05 0)
(0.392458 7.96076e-05 0)
(0.391014 6.95144e-05 0)
(0.39048 6.60282e-05 0)
(0.389058 5.76774e-05 0)
(0.388807 5.67019e-05 0)
(0.387331 5.23544e-05 0)
(0.97983 0.0157747 0)
(0.980209 0.0219272 0)
(0.983102 0.0258044 0)
(0.987354 0.0273623 0)
(0.991688 0.0278666 0)
(0.995622 0.0277899 0)
(0.999024 0.0268408 0)
(1.00165 0.0247266 0)
(1.00306 0.0216828 0)
(1.00299 0.0184047 0)
(1.00149 0.0156662 0)
(0.998945 0.0137881 0)
(0.995847 0.0125961 0)
(0.992528 0.0117861 0)
(0.989115 0.0111605 0)
(0.985601 0.0106278 0)
(0.981922 0.0101518 0)
(0.978008 0.00971889 0)
(0.973804 0.00932142 0)
(0.969274 0.00894756 0)
(0.964396 0.00858407 0)
(0.959157 0.00822512 0)
(0.95356 0.00787346 0)
(0.947614 0.00753427 0)
(0.941333 0.00721118 0)
(0.934731 0.00690429 0)
(0.927828 0.00661047 0)
(0.920649 0.00632569 0)
(0.913221 0.00604921 0)
(0.905576 0.00578338 0)
(0.897749 0.00553043 0)
(0.889773 0.00529006 0)
(0.881678 0.00506117 0)
(0.873489 0.00484314 0)
(0.865225 0.00463566 0)
(0.856899 0.00443788 0)
(0.848523 0.00424961 0)
(0.840102 0.00407087 0)
(0.831646 0.00390175 0)
(0.823165 0.00374091 0)
(0.814669 0.00358749 0)
(0.806174 0.00343965 0)
(0.797694 0.00329714 0)
(0.789243 0.00316085 0)
(0.780829 0.00303234 0)
(0.772457 0.00291142 0)
(0.764133 0.00279634 0)
(0.755861 0.00268483 0)
(0.747646 0.00257675 0)
(0.739493 0.0024724 0)
(0.731407 0.00237333 0)
(0.723398 0.0022785 0)
(0.715469 0.00218786 0)
(0.707631 0.00210062 0)
(0.699887 0.0020174 0)
(0.69224 0.00193794 0)
(0.684691 0.00186231 0)
(0.677242 0.00178818 0)
(0.669895 0.00171662 0)
(0.66265 0.00164783 0)
(0.655502 0.00158382 0)
(0.648454 0.00152154 0)
(0.641511 0.00146117 0)
(0.634685 0.00140042 0)
(0.627969 0.00134323 0)
(0.621369 0.00128816 0)
(0.614886 0.00123518 0)
(0.60853 0.00118009 0)
(0.602298 0.00112746 0)
(0.596195 0.0010754 0)
(0.590236 0.00102523 0)
(0.584414 0.000973898 0)
(0.578753 0.000925172 0)
(0.573236 0.000875396 0)
(0.567913 0.000826673 0)
(0.562726 0.000778141 0)
(0.557775 0.000731756 0)
(0.552947 0.000683315 0)
(0.548391 0.000638011 0)
(0.54395 0.000591243 0)
(0.539833 0.000548122 0)
(0.535787 0.000503648 0)
(0.532118 0.000463756 0)
(0.528496 0.000420169 0)
(0.525302 0.00038471 0)
(0.522069 0.000348279 0)
(0.519331 0.000318276 0)
(0.516458 0.0002853 0)
(0.514154 0.000261819 0)
(0.511571 0.000234948 0)
(0.50967 0.000216431 0)
(0.507323 0.000191892 0)
(0.505816 0.000177723 0)
(0.503648 0.000156144 0)
(0.502527 0.000145938 0)
(0.50047 0.000127291 0)
(0.499732 0.000121076 0)
(0.497708 0.000105152 0)
(0.497355 0.00010301 0)
(0.495278 9.32702e-05 0)
(0.983194 0.0155685 0)
(0.983433 0.0208675 0)
(0.985818 0.0247933 0)
(0.989648 0.0266129 0)
(0.993829 0.0271169 0)
(0.997765 0.0268978 0)
(1.0013 0.0259279 0)
(1.00429 0.0240459 0)
(1.00645 0.0213898 0)
(1.0075 0.018461 0)
(1.00744 0.015891 0)
(1.00654 0.0140445 0)
(1.00524 0.0128587 0)
(1.00385 0.0120745 0)
(1.00254 0.0114831 0)
(1.00132 0.0109797 0)
(1.00013 0.0105285 0)
(0.998904 0.0101219 0)
(0.997578 0.00975631 0)
(0.996107 0.00942126 0)
(0.994457 0.0091026 0)
(0.992595 0.00879248 0)
(0.990506 0.00849155 0)
(0.988174 0.00820353 0)
(0.98559 0.00793105 0)
(0.982744 0.00767336 0)
(0.979631 0.00742645 0)
(0.976247 0.00718527 0)
(0.972593 0.00694801 0)
(0.968675 0.00671606 0)
(0.96451 0.00649117 0)
(0.960112 0.00627298 0)
(0.955505 0.00606084 0)
(0.950701 0.00585491 0)
(0.945721 0.00565602 0)
(0.940569 0.00546426 0)
(0.935255 0.00528024 0)
(0.929776 0.00510438 0)
(0.924134 0.00493666 0)
(0.918328 0.00477532 0)
(0.912363 0.00461914 0)
(0.906248 0.00446571 0)
(0.899997 0.00431489 0)
(0.893621 0.00416784 0)
(0.887139 0.00402694 0)
(0.880558 0.00389247 0)
(0.873894 0.00376312 0)
(0.867148 0.00363655 0)
(0.860333 0.00351281 0)
(0.853445 0.00339209 0)
(0.846496 0.00327596 0)
(0.839489 0.0031629 0)
(0.83244 0.00305302 0)
(0.825356 0.00294532 0)
(0.818262 0.00284113 0)
(0.81116 0.00274045 0)
(0.804074 0.00264396 0)
(0.796998 0.00254891 0)
(0.789952 0.00245681 0)
(0.78292 0.00236777 0)
(0.775918 0.0022843 0)
(0.768931 0.00220223 0)
(0.761983 0.00212182 0)
(0.755073 0.00204025 0)
(0.748226 0.00196303 0)
(0.741429 0.00188798 0)
(0.734717 0.00181539 0)
(0.728073 0.00174012 0)
(0.721525 0.00166822 0)
(0.715042 0.00159627 0)
(0.708683 0.00152661 0)
(0.702395 0.00145496 0)
(0.696261 0.00138663 0)
(0.690205 0.00131606 0)
(0.684359 0.00124743 0)
(0.678575 0.00117793 0)
(0.673062 0.00111172 0)
(0.667593 0.00104232 0)
(0.662449 0.000977345 0)
(0.657328 0.000909181 0)
(0.652613 0.000846984 0)
(0.647861 0.000781967 0)
(0.643591 0.000723365 0)
(0.639249 0.000659037 0)
(0.635469 0.000606759 0)
(0.631513 0.000551676 0)
(0.628224 0.00050662 0)
(0.624639 0.000456422 0)
(0.621838 0.00042082 0)
(0.618556 0.000378874 0)
(0.61622 0.000350419 0)
(0.613191 0.000311944 0)
(0.611318 0.000289982 0)
(0.608482 0.000255662 0)
(0.607075 0.000239757 0)
(0.604357 0.00020951 0)
(0.603423 0.000199633 0)
(0.600736 0.000173214 0)
(0.60028 0.00016925 0)
(0.597532 0.000151265 0)
(0.985914 0.0154637 0)
(0.986091 0.0200563 0)
(0.9881 0.0237874 0)
(0.991518 0.0257623 0)
(0.995465 0.0263281 0)
(0.999283 0.0260466 0)
(1.00273 0.0250844 0)
(1.00567 0.0233898 0)
(1.00789 0.0210561 0)
(1.00919 0.0184345 0)
(1.00954 0.0160277 0)
(1.00916 0.0142019 0)
(1.00839 0.0129907 0)
(1.00757 0.0121951 0)
(1.00687 0.011608 0)
(1.00632 0.0111097 0)
(1.0059 0.0106582 0)
(1.00555 0.0102493 0)
(1.00521 0.00988467 0)
(1.00485 0.00955699 0)
(1.00443 0.0092529 0)
(1.00393 0.00896346 0)
(1.00334 0.00868746 0)
(1.00263 0.00842728 0)
(1.00181 0.00818485 0)
(1.00086 0.00795899 0)
(0.99976 0.00774539 0)
(0.998503 0.00753842 0)
(0.997081 0.00733541 0)
(0.995482 0.00713644 0)
(0.993713 0.00694237 0)
(0.991772 0.00675219 0)
(0.989673 0.00656511 0)
(0.987416 0.00638136 0)
(0.985015 0.00620241 0)
(0.982468 0.00602909 0)
(0.979782 0.00586283 0)
(0.976944 0.00570471 0)
(0.973955 0.00555492 0)
(0.970797 0.00541138 0)
(0.967468 0.00527242 0)
(0.963956 0.00513462 0)
(0.960271 0.00499743 0)
(0.956406 0.00486149 0)
(0.952384 0.00472946 0)
(0.948197 0.00460168 0)
(0.943873 0.00447748 0)
(0.939398 0.00435477 0)
(0.934794 0.00423416 0)
(0.930039 0.00411592 0)
(0.925153 0.00400177 0)
(0.920112 0.00388944 0)
(0.914943 0.00377885 0)
(0.909626 0.00366805 0)
(0.904205 0.00355864 0)
(0.898665 0.00345055 0)
(0.893063 0.00334549 0)
(0.887371 0.00324069 0)
(0.881642 0.0031387 0)
(0.875833 0.00303967 0)
(0.869989 0.00294687 0)
(0.864059 0.00285495 0)
(0.858094 0.0027641 0)
(0.852049 0.00267009 0)
(0.845997 0.00257992 0)
(0.839891 0.00249067 0)
(0.833823 0.00240379 0)
(0.827725 0.00231304 0)
(0.821694 0.00222677 0)
(0.815623 0.00213947 0)
(0.809648 0.00205485 0)
(0.803626 0.00196661 0)
(0.797741 0.00188234 0)
(0.791805 0.00179339 0)
(0.786088 0.00170742 0)
(0.780298 0.00161861 0)
(0.774812 0.00153431 0)
(0.769227 0.00144483 0)
(0.764021 0.00136159 0)
(0.758679 0.00127228 0)
(0.753825 0.00119164 0)
(0.748762 0.00110602 0)
(0.744285 0.00102902 0)
(0.739546 0.000943065 0)
(0.735506 0.000873636 0)
(0.731084 0.000798358 0)
(0.727507 0.000737387 0)
(0.723407 0.000667802 0)
(0.720317 0.000619057 0)
(0.716489 0.000559678 0)
(0.713881 0.000520246 0)
(0.710278 0.000465327 0)
(0.70816 0.000434535 0)
(0.70473 0.000384786 0)
(0.703123 0.000362303 0)
(0.699796 0.000317712 0)
(0.69872 0.000303568 0)
(0.695407 0.000263953 0)
(0.694873 0.000257737 0)
(0.69148 0.000228628 0)
(0.988032 0.0154021 0)
(0.98817 0.0194013 0)
(0.989888 0.0228056 0)
(0.992928 0.024819 0)
(0.996612 0.0254699 0)
(1.00029 0.0251981 0)
(1.00364 0.0242724 0)
(1.0065 0.0227298 0)
(1.00871 0.0206602 0)
(1.0101 0.0183165 0)
(1.01064 0.0160866 0)
(1.01051 0.0143044 0)
(1.00999 0.0130708 0)
(1.00937 0.0122545 0)
(1.00885 0.0116644 0)
(1.00848 0.0111684 0)
(1.00826 0.0107136 0)
(1.00813 0.0102958 0)
(1.00805 0.0099217 0)
(1.00799 0.00958848 0)
(1.00792 0.00928444 0)
(1.00783 0.00900013 0)
(1.00771 0.00873283 0)
(1.00755 0.00848354 0)
(1.00735 0.00825372 0)
(1.0071 0.00804212 0)
(1.0068 0.00784458 0)
(1.00642 0.00765535 0)
(1.00597 0.00747133 0)
(1.00542 0.00729164 0)
(1.0048 0.00711645 0)
(1.00408 0.00694415 0)
(1.00329 0.00677381 0)
(1.0024 0.00660541 0)
(1.00144 0.00644071 0)
(1.0004 0.00628096 0)
(0.999281 0.00612827 0)
(0.998073 0.00598431 0)
(0.996786 0.00584998 0)
(0.995387 0.00572318 0)
(0.993882 0.00560225 0)
(0.99224 0.00548281 0)
(0.990475 0.0053639 0)
(0.988556 0.00524508 0)
(0.986515 0.00512895 0)
(0.984321 0.00501537 0)
(0.982017 0.00490425 0)
(0.979563 0.00479354 0)
(0.977002 0.00468463 0)
(0.974285 0.00457787 0)
(0.971455 0.00447571 0)
(0.968452 0.00437534 0)
(0.96532 0.00427673 0)
(0.961993 0.00417632 0)
(0.95854 0.00407542 0)
(0.954903 0.00397291 0)
(0.951176 0.00387139 0)
(0.947292 0.0037679 0)
(0.94335 0.00366642 0)
(0.939264 0.00356726 0)
(0.935129 0.00347521 0)
(0.930836 0.003384 0)
(0.926483 0.00329434 0)
(0.921947 0.0031996 0)
(0.91736 0.00310761 0)
(0.912602 0.00301367 0)
(0.907851 0.00292109 0)
(0.902958 0.00282217 0)
(0.898125 0.00272883 0)
(0.89314 0.00263322 0)
(0.88825 0.0025415 0)
(0.883169 0.00244391 0)
(0.878228 0.00235136 0)
(0.873066 0.00225035 0)
(0.868141 0.00215326 0)
(0.862965 0.00205017 0)
(0.858135 0.001953 0)
(0.853015 0.00184754 0)
(0.84834 0.00175059 0)
(0.843319 0.00164363 0)
(0.83887 0.00154814 0)
(0.833995 0.00144471 0)
(0.829811 0.00135265 0)
(0.825127 0.00124728 0)
(0.821269 0.00116328 0)
(0.816775 0.001069 0)
(0.813287 0.00099372 0)
(0.809005 0.00090471 0)
(0.805944 0.000843578 0)
(0.801861 0.000766232 0)
(0.799247 0.000716364 0)
(0.795323 0.00064418 0)
(0.793169 0.000604816 0)
(0.789357 0.000538215 0)
(0.787705 0.000509129 0)
(0.783951 0.000448392 0)
(0.782843 0.000429906 0)
(0.779075 0.00037539 0)
(0.778522 0.000366863 0)
(0.774649 0.000324618 0)
(0.989655 0.0153434 0)
(0.989755 0.0188334 0)
(0.991235 0.0218718 0)
(0.993933 0.0238321 0)
(0.997334 0.0245588 0)
(1.00084 0.0243469 0)
(1.00409 0.0234835 0)
(1.00688 0.0220738 0)
(1.00907 0.0202224 0)
(1.0105 0.0181276 0)
(1.01118 0.016083 0)
(1.01123 0.014372 0)
(1.01089 0.0131297 0)
(1.01041 0.0122911 0)
(1.00998 0.0116942 0)
(1.00968 0.0112011 0)
(1.00952 0.0107462 0)
(1.00944 0.0103212 0)
(1.00943 0.00993688 0)
(1.00944 0.00959498 0)
(1.00946 0.00928632 0)
(1.00946 0.00900142 0)
(1.00946 0.00873642 0)
(1.00945 0.00849087 0)
(1.00943 0.00826567 0)
(1.00938 0.0080594 0)
(1.00932 0.00786829 0)
(1.00924 0.0076865 0)
(1.00913 0.00751099 0)
(1.00897 0.00734017 0)
(1.00879 0.00717393 0)
(1.00856 0.00701016 0)
(1.00831 0.00684794 0)
(1.00801 0.00668691 0)
(1.00769 0.00652899 0)
(1.00732 0.00637547 0)
(1.00693 0.00622905 0)
(1.0065 0.00609166 0)
(1.00604 0.00596515 0)
(1.00553 0.00584746 0)
(1.00498 0.00573751 0)
(1.00434 0.00563019 0)
(1.00366 0.00552445 0)
(1.00287 0.00541868 0)
(1.00202 0.00531545 0)
(1.00105 0.00521384 0)
(1.00004 0.00511429 0)
(0.998907 0.00501445 0)
(0.99773 0.00491646 0)
(0.996423 0.0048205 0)
(0.995071 0.00473023 0)
(0.99357 0.00464255 0)
(0.992003 0.00455824 0)
(0.990252 0.00447207 0)
(0.988422 0.00438497 0)
(0.986394 0.00429394 0)
(0.984309 0.00420217 0)
(0.982042 0.00410596 0)
(0.979749 0.00401074 0)
(0.977283 0.00391653 0)
(0.974809 0.00383034 0)
(0.972148 0.00374527 0)
(0.969468 0.00366382 0)
(0.966551 0.00357665 0)
(0.963602 0.00349233 0)
(0.960391 0.00340272 0)
(0.9572 0.00331319 0)
(0.953762 0.00321323 0)
(0.95042 0.00311951 0)
(0.946822 0.00302152 0)
(0.943376 0.00293004 0)
(0.939605 0.00283036 0)
(0.936028 0.00273809 0)
(0.932055 0.00263293 0)
(0.928373 0.00253279 0)
(0.924246 0.00242222 0)
(0.920537 0.0023192 0)
(0.916332 0.00220384 0)
(0.912657 0.00209962 0)
(0.908417 0.00198086 0)
(0.904832 0.00187619 0)
(0.9006 0.00175982 0)
(0.897157 0.00165801 0)
(0.892978 0.00153784 0)
(0.889734 0.0014443 0)
(0.885602 0.00133502 0)
(0.882596 0.00124967 0)
(0.878529 0.00114379 0)
(0.875837 0.00107276 0)
(0.871869 0.000978896 0)
(0.869547 0.000920661 0)
(0.865655 0.000832517 0)
(0.863718 0.000786508 0)
(0.859848 0.000703648 0)
(0.858345 0.00066911 0)
(0.854466 0.00059209 0)
(0.853457 0.000569583 0)
(0.849539 0.000500139 0)
(0.849037 0.000489552 0)
(0.844998 0.000433948 0)
(0.990928 0.0152802 0)
(0.990979 0.0183269 0)
(0.992257 0.0210077 0)
(0.994646 0.0228476 0)
(0.997758 0.0236228 0)
(1.00106 0.0234951 0)
(1.00418 0.0227175 0)
(1.0069 0.0214364 0)
(1.00905 0.0197701 0)
(1.01052 0.0178927 0)
(1.01129 0.0160291 0)
(1.01149 0.0144095 0)
(1.0113 0.0131751 0)
(1.01095 0.012316 0)
(1.0106 0.0117082 0)
(1.01033 0.0112171 0)
(1.0102 0.0107652 0)
(1.01015 0.0103375 0)
(1.01017 0.00994572 0)
(1.0102 0.009596 0)
(1.01024 0.00928231 0)
(1.01027 0.00899546 0)
(1.0103 0.0087309 0)
(1.01032 0.00848686 0)
(1.01035 0.00826351 0)
(1.01035 0.00805899 0)
(1.01037 0.00787003 0)
(1.01037 0.00769084 0)
(1.01038 0.00751866 0)
(1.01035 0.0073514 0)
(1.01033 0.00718898 0)
(1.01027 0.00702878 0)
(1.01022 0.00687007 0)
(1.01014 0.00671206 0)
(1.01006 0.00655688 0)
(1.00995 0.0064055 0)
(1.00985 0.00626119 0)
(1.00971 0.00612565 0)
(1.0096 0.00600176 0)
(1.00944 0.00588728 0)
(1.00929 0.00578209 0)
(1.00909 0.00568043 0)
(1.00889 0.00558165 0)
(1.00861 0.00548297 0)
(1.00834 0.00538726 0)
(1.00797 0.00529266 0)
(1.00762 0.00520024 0)
(1.00717 0.00510696 0)
(1.00674 0.0050158 0)
(1.00619 0.00492623 0)
(1.00567 0.00484341 0)
(1.00503 0.00476393 0)
(1.0044 0.00469 0)
(1.00362 0.00461508 0)
(1.00282 0.00454009 0)
(1.00185 0.00445979 0)
(1.00088 0.00437789 0)
(0.999732 0.00428941 0)
(0.998618 0.00420125 0)
(0.997323 0.00411237 0)
(0.996087 0.00403227 0)
(0.994658 0.00395319 0)
(0.993291 0.00388086 0)
(0.99167 0.00380309 0)
(0.990093 0.00373039 0)
(0.988204 0.00364964 0)
(0.9864 0.00356884 0)
(0.984263 0.0034724 0)
(0.982299 0.00338265 0)
(0.979989 0.00328516 0)
(0.977937 0.00319793 0)
(0.97545 0.0031002 0)
(0.973268 0.00301402 0)
(0.970545 0.00291085 0)
(0.968208 0.00281455 0)
(0.965258 0.00270276 0)
(0.96282 0.00260013 0)
(0.959715 0.00248074 0)
(0.957231 0.00237522 0)
(0.954008 0.00225091 0)
(0.951513 0.00214315 0)
(0.948195 0.00201932 0)
(0.945738 0.00191329 0)
(0.942368 0.0017835 0)
(0.940008 0.00168601 0)
(0.936574 0.00156717 0)
(0.934329 0.00147753 0)
(0.930826 0.00135969 0)
(0.928751 0.00128255 0)
(0.92524 0.00117516 0)
(0.923438 0.00111131 0)
(0.919931 0.00101001 0)
(0.918423 0.000960435 0)
(0.914853 0.000864075 0)
(0.913669 0.000826297 0)
(0.91002 0.000735155 0)
(0.909213 0.000709024 0)
(0.905514 0.000626429 0)
(0.905119 0.000614004 0)
(0.901305 0.000546925 0)
(0.991974 0.0152213 0)
(0.991968 0.0178732 0)
(0.993066 0.0202176 0)
(0.995181 0.0218951 0)
(0.998012 0.022686 0)
(1.0011 0.022648 0)
(1.00407 0.0219733 0)
(1.00669 0.0208208 0)
(1.0088 0.0193164 0)
(1.01027 0.0176246 0)
(1.01112 0.0159286 0)
(1.01143 0.014412 0)
(1.01137 0.0132032 0)
(1.01112 0.0123291 0)
(1.01084 0.0117076 0)
(1.01062 0.0112169 0)
(1.01051 0.0107713 0)
(1.01048 0.0103461 0)
(1.01052 0.00995119 0)
(1.01056 0.00959586 0)
(1.01062 0.00927769 0)
(1.01066 0.00898836 0)
(1.0107 0.00872326 0)
(1.01073 0.00847959 0)
(1.01078 0.00825694 0)
(1.0108 0.00805264 0)
(1.01085 0.00786403 0)
(1.01088 0.00768532 0)
(1.01093 0.00751429 0)
(1.01095 0.00734829 0)
(1.01099 0.00718756 0)
(1.011 0.00702891 0)
(1.01103 0.00687197 0)
(1.01102 0.00671536 0)
(1.01104 0.00656167 0)
(1.01102 0.00641118 0)
(1.01103 0.00626783 0)
(1.011 0.00613259 0)
(1.01101 0.00600939 0)
(1.01096 0.00589544 0)
(1.01097 0.00579182 0)
(1.01091 0.00569204 0)
(1.01091 0.00559633 0)
(1.01082 0.00550073 0)
(1.01079 0.00540871 0)
(1.01066 0.00531737 0)
(1.01059 0.00522861 0)
(1.01043 0.00513842 0)
(1.01033 0.0050507 0)
(1.01012 0.00496386 0)
(1.00999 0.00488444 0)
(1.00974 0.00480861 0)
(1.00957 0.00474023 0)
(1.00926 0.00467174 0)
(1.00901 0.00460463 0)
(1.00859 0.00453148 0)
(1.00825 0.00445664 0)
(1.00773 0.00437352 0)
(1.0073 0.00429066 0)
(1.00669 0.00420517 0)
(1.00621 0.00412922 0)
(1.00553 0.00405336 0)
(1.00499 0.00398766 0)
(1.00419 0.00391667 0)
(1.00354 0.00385458 0)
(1.00255 0.00378231 0)
(1.00174 0.00371187 0)
(1.00053 0.00362025 0)
(0.999596 0.00353624 0)
(0.998237 0.00343949 0)
(0.997259 0.00335728 0)
(0.995763 0.00326198 0)
(0.994704 0.00318358 0)
(0.993007 0.00308502 0)
(0.991809 0.00299606 0)
(0.989888 0.00288699 0)
(0.98857 0.00278841 0)
(0.986483 0.00266902 0)
(0.985087 0.00256577 0)
(0.982866 0.00244061 0)
(0.981411 0.00233438 0)
(0.979046 0.0022078 0)
(0.977565 0.00210195 0)
(0.975089 0.0019668 0)
(0.973642 0.0018695 0)
(0.971054 0.0017459 0)
(0.969642 0.0016571 0)
(0.966906 0.00153326 0)
(0.965534 0.00145434 0)
(0.962699 0.00133737 0)
(0.961497 0.00127042 0)
(0.95862 0.00115912 0)
(0.957635 0.00110881 0)
(0.95465 0.00100305 0)
(0.953868 0.000964446 0)
(0.950762 0.000863656 0)
(0.950197 0.000834321 0)
(0.947039 0.000741673 0)
(0.946768 0.000727229 0)
(0.943526 0.000651966 0)
(0.992875 0.0151654 0)
(0.9928 0.0174626 0)
(0.993741 0.0194949 0)
(0.995617 0.0209941 0)
(0.998189 0.0217689 0)
(1.00105 0.0218116 0)
(1.00387 0.0212466 0)
(1.00638 0.0202212 0)
(1.00843 0.0188639 0)
(1.0099 0.017332 0)
(1.01079 0.0157876 0)
(1.01118 0.0143778 0)
(1.01123 0.0132111 0)
(1.01107 0.0123321 0)
(1.01087 0.0116971 0)
(1.01068 0.0112052 0)
(1.01059 0.0107678 0)
(1.01057 0.0103488 0)
(1.01063 0.00995418 0)
(1.01068 0.0095947 0)
(1.01076 0.0092721 0)
(1.0108 0.00897967 0)
(1.01086 0.0087132 0)
(1.01089 0.0084691 0)
(1.01095 0.00824677 0)
(1.01098 0.00804227 0)
(1.01105 0.00785347 0)
(1.01108 0.00767443 0)
(1.01116 0.0075037 0)
(1.0112 0.00733795 0)
(1.01127 0.00717803 0)
(1.01131 0.00702009 0)
(1.01138 0.00686435 0)
(1.0114 0.00670868 0)
(1.01147 0.0065564 0)
(1.01148 0.00640677 0)
(1.01154 0.00626451 0)
(1.01154 0.0061295 0)
(1.0116 0.00600672 0)
(1.01159 0.00589255 0)
(1.01165 0.00578939 0)
(1.01164 0.00568993 0)
(1.01171 0.00559555 0)
(1.01168 0.00550112 0)
(1.01174 0.00541092 0)
(1.01169 0.00532089 0)
(1.01174 0.00523401 0)
(1.01168 0.00514512 0)
(1.01171 0.00505912 0)
(1.01162 0.00497318 0)
(1.01165 0.00489497 0)
(1.01155 0.00482012 0)
(1.01157 0.00475401 0)
(1.01145 0.00468827 0)
(1.01144 0.0046253 0)
(1.01127 0.00455588 0)
(1.01122 0.00448517 0)
(1.011 0.00440478 0)
(1.01092 0.00432521 0)
(1.01065 0.00424106 0)
(1.01055 0.00416748 0)
(1.01024 0.00409211 0)
(1.01014 0.00403029 0)
(1.00977 0.00396227 0)
(1.00963 0.00390785 0)
(1.00914 0.00384096 0)
(1.00892 0.00377976 0)
(1.00827 0.0036919 0)
(1.00798 0.00361368 0)
(1.00721 0.00351674 0)
(1.00692 0.00343869 0)
(1.00605 0.00334446 0)
(1.00573 0.00327259 0)
(1.00473 0.00317845 0)
(1.00431 0.00309681 0)
(1.00314 0.00299194 0)
(1.00262 0.00289814 0)
(1.00131 0.00278069 0)
(1.00072 0.00268059 0)
(0.999311 0.0025569 0)
(0.998655 0.00245443 0)
(0.997104 0.00232816 0)
(0.996395 0.00222514 0)
(0.99472 0.00208748 0)
(0.994014 0.00199237 0)
(0.992224 0.00186697 0)
(0.991522 0.00178173 0)
(0.989576 0.00165693 0)
(0.988831 0.00158003 0)
(0.986733 0.00145766 0)
(0.986064 0.0013896 0)
(0.9839 0.001271 0)
(0.983387 0.00122134 0)
(0.981123 0.00111028 0)
(0.980716 0.00107225 0)
(0.978339 0.000967466 0)
(0.97799 0.000935596 0)
(0.975559 0.00083657 0)
(0.975388 0.00081955 0)
(0.972914 0.000739446 0)
(0.993674 0.0150995 0)
(0.993521 0.0170833 0)
(0.994324 0.0188307 0)
(0.995994 0.0201522 0)
(0.998335 0.0208843 0)
(1.00098 0.0209879 0)
(1.00364 0.0205299 0)
(1.00602 0.0196292 0)
(1.00801 0.0184117 0)
(1.00946 0.0170233 0)
(1.01039 0.0156153 0)
(1.01084 0.0143106 0)
(1.01098 0.0131992 0)
(1.01091 0.0123275 0)
(1.01077 0.0116819 0)
(1.01062 0.0111862 0)
(1.01055 0.0107556 0)
(1.01053 0.0103441 0)
(1.0106 0.0099518 0)
(1.01067 0.00958981 0)
(1.01076 0.00926353 0)
(1.01081 0.00896819 0)
(1.01088 0.00870039 0)
(1.01091 0.00845558 0)
(1.01098 0.00823354 0)
(1.01102 0.00802892 0)
(1.0111 0.00783992 0)
(1.01114 0.00766023 0)