# vtk DataFile Version 2.0
outlet
ASCII
DATASET POLYDATA
POINTS 182 float
0.1 0.02 0 0.1 0.0207299 0 0.1 0.0207299 0.001 0.1 0.02
0.001 0.1 0.021488 0 0.1 0.021488 0.001 0.1 0.0222754 0
0.1 0.0222754 0.001 0.1 0.0230932 0 0.1 0.0230932 0.001 0.1
0.0239425 0 0.1 0.0239425 0.001 0.1 0.0248247 0 0.1 0.0248247
0.001 0.1 0.0257409 0 0.1 0.0257409 0.001 0.1 0.0266925 0
0.1 0.0266925 0.001 0.1 0.0276808 0 0.1 0.0276808 0.001 0.1
0.0287073 0 0.1 0.0287073 0.001 0.1 0.0297734 0 0.1 0.0297734
0.001 0.1 0.0308807 0 0.1 0.0308807 0.001 0.1 0.0320307 0
0.1 0.0320307 0.001 0.1 0.0332251 0 0.1 0.0332251 0.001 0.1
0.0344656 0 0.1 0.0344656 0.001 0.1 0.0357541 0 0.1 0.0357541
0.001 0.1 0.0370923 0 0.1 0.0370923 0.001 0.1 0.0384821 0
0.1 0.0384821 0.001 0.1 0.0399257 0 0.1 0.0399257 0.001 0.1
0.0414249 0 0.1 0.0414249 0.001 0.1 0.042982 0 0.1 0.042982
0.001 0.1 0.0445993 0 0.1 0.0445993 0.001 0.1 0.046279 0
0.1 0.046279 0.001 0.1 0.0480236 0 0.1 0.0480236 0.001 0.1
0.0498355 0 0.1 0.0498355 0.001 0.1 0.0517173 0 0.1 0.0517173
0.001 0.1 0.0536719 0 0.1 0.0536719 0.001 0.1 0.0557019 0
0.1 0.0557019 0.001 0.1 0.0578102 0 0.1 0.0578102 0.001 0.1
0.06 0 0.1 0.06 0.001 0.1 0 0 0.1 8.46956e-05
0 0.1 8.46956e-05 0.001 0.1 0 0.001 0.1 0.000172762 0
0.1 0.000172762 0.001 0.1 0.000264333 0 0.1 0.000264333 0.001 0.1
0.000359549 0 0.1 0.000359549 0.001 0.1 0.000458554 0 0.1 0.000458554
0.001 0.1 0.0005615 0 0.1 0.0005615 0.001 0.1 0.000668542 0
0.1 0.000668542 0.001 0.1 0.000779845 0 0.1 0.000779845 0.001 0.1
0.000895577 0 0.1 0.000895577 0.001 0.1 0.00101591 0 0.1 0.00101591
0.001 0.1 0.00114104 0 0.1 0.00114104 0.001 0.1 0.00127115 0
0.1 0.00127115 0.001 0.1 0.00140644 0 0.1 0.00140644 0.001 0.1
0.0015471 0 0.1 0.0015471 0.001 0.1 0.00169337 0 0.1 0.00169337
0.001 0.1 0.00184546 0 0.1 0.00184546 0.001 0.1 0.0020036 0
0.1 0.0020036 0.001 0.1 0.00216804 0 0.1 0.00216804 0.001 0.1
0.00233902 0 0.1 0.00233902 0.001 0.1 0.00251681 0 0.1 0.00251681
0.001 0.1 0.00270167 0 0.1 0.00270167 0.001 0.1 0.00289388 0
0.1 0.00289388 0.001 0.1 0.00309375 0 0.1 0.00309375 0.001 0.1
0.00330157 0 0.1 0.00330157 0.001 0.1 0.00351767 0 0.1 0.00351767
0.001 0.1 0.00374236 0 0.1 0.00374236 0.001 0.1 0.00397599 0
0.1 0.00397599 0.001 0.1 0.00421893 0 0.1 0.00421893 0.001 0.1
0.00447153 0 0.1 0.00447153 0.001 0.1 0.00473419 0 0.1 0.00473419
0.001 0.1 0.0050073 0 0.1 0.0050073 0.001 0.1 0.00529127 0
0.1 0.00529127 0.001 0.1 0.00558655 0 0.1 0.00558655 0.001 0.1
0.00589359 0 0.1 0.00589359 0.001 0.1 0.00621284 0 0.1 0.00621284
0.001 0.1 0.00654479 0 0.1 0.00654479 0.001 0.1 0.00688996 0
0.1 0.00688996 0.001 0.1 0.00724887 0 0.1 0.00724887 0.001 0.1
0.00762206 0 0.1 0.00762206 0.001 0.1 0.0080101 0 0.1 0.0080101
0.001 0.1 0.00841358 0 0.1 0.00841358 0.001 0.1 0.00883312 0
0.1 0.00883312 0.001 0.1 0.00926936 0 0.1 0.00926936 0.001 0.1
0.00972297 0 0.1 0.00972297 0.001 0.1 0.0101946 0 0.1 0.0101946
0.001 0.1 0.010685 0 0.1 0.010685 0.001 0.1 0.011195 0
0.1 0.011195 0.001 0.1 0.0117252 0 0.1 0.0117252 0.001 0.1
0.0122766 0 0.1 0.0122766 0.001 0.1 0.0128499 0 0.1 0.0128499
0.001 0.1 0.013446 0 0.1 0.013446 0.001 0.1 0.0140658 0
0.1 0.0140658 0.001 0.1 0.0147103 0 0.1 0.0147103 0.001 0.1
0.0153804 0 0.1 0.0153804 0.001 0.1 0.0160772 0 0.1 0.0160772
0.001 0.1 0.0168018 0 0.1 0.0168018 0.001 0.1 0.0175551 0
0.1 0.0175551 0.001 0.1 0.0183385 0 0.1 0.0183385 0.001 0.1
0.019153 0 0.1 0.019153 0.001 
POLYGONS 90 450
4 0 1 2 3 4 1 4 5 2 4
4 6 7 5 4 6 8 9 7 4
8 10 11 9 4 10 12 13 11 4
12 14 15 13 4 14 16 17 15 4
16 18 19 17 4 18 20 21 19 4
20 22 23 21 4 22 24 25 23 4
24 26 27 25 4 26 28 29 27 4
28 30 31 29 4 30 32 33 31 4
32 34 35 33 4 34 36 37 35 4
36 38 39 37 4 38 40 41 39 4
40 42 43 41 4 42 44 45 43 4
44 46 47 45 4 46 48 49 47 4
48 50 51 49 4 50 52 53 51 4
52 54 55 53 4 54 56 57 55 4
56 58 59 57 4 58 60 61 59 4
62 63 64 65 4 63 66 67 64 4
66 68 69 67 4 68 70 71 69 4
70 72 73 71 4 72 74 75 73 4
74 76 77 75 4 76 78 79 77 4
78 80 81 79 4 80 82 83 81 4
82 84 85 83 4 84 86 87 85 4
86 88 89 87 4 88 90 91 89 4
90 92 93 91 4 92 94 95 93 4
94 96 97 95 4 96 98 99 97 4
98 100 101 99 4 100 102 103 101 4
102 104 105 103 4 104 106 107 105 4
106 108 109 107 4 108 110 111 109 4
110 112 113 111 4 112 114 115 113 4
114 116 117 115 4 116 118 119 117 4
118 120 121 119 4 120 122 123 121 4
122 124 125 123 4 124 126 127 125 4
126 128 129 127 4 128 130 131 129 4
130 132 133 131 4 132 134 135 133 4
134 136 137 135 4 136 138 139 137 4
138 140 141 139 4 140 142 143 141 4
142 144 145 143 4 144 146 147 145 4
146 148 149 147 4 148 150 151 149 4
150 152 153 151 4 152 154 155 153 4
154 156 157 155 4 156 158 159 157 4
158 160 161 159 4 160 162 163 161 4
162 164 165 163 4 164 166 167 165 4
166 168 169 167 4 168 170 171 169 4
170 172 173 171 4 172 174 175 173 4
174 176 177 175 4 176 178 179 177 4
178 180 181 179 4 180 0 3 181 
CELL_DATA 90
FIELD attributes 3
patchID 1 90 float
2 2 2 2 2 2 2 2 2 2 2
2 2 2 2 2 2 2 2 2 2
2 2 2 2 2 2 2 2 2 2
2 2 2 2 2 2 2 2 2 2
2 2 2 2 2 2 2 2 2 2
2 2 2 2 2 2 2 2 2 2
2 2 2 2 2 2 2 2 2 2
2 2 2 2 2 2 2 2 2 2
2 2 2 2 2 2 2 2 2 
p 1 90 float
0 0 0 0 0 0 0 0 0 0 0
0 0 0 0 0 0 0 0 0 0
0 0 0 0 0 0 0 0 0 0
0 0 0 0 0 0 0 0 0 0
0 0 0 0 0 0 0 0 0 0
0 0 0 0 0 0 0 0 0 0
0 0 0 0 0 0 0 0 0 0
0 0 0 0 0 0 0 0 0 0
0 0 0 0 0 0 0 0 0 
U 3 90 float
0.503057 4.75776e-05 0 0.503056 4.85946e-05 0 0.503054 4.957e-05 0 0.503053 5.04927e-05
0 0.503051 5.13524e-05 0 0.503049 5.21374e-05 0 0.503048 5.28348e-05 0
0.503046 5.34304e-05 0 0.503044 5.39091e-05 0 0.503042 5.42545e-05 0 0.503039
5.44487e-05 0 0.503037 5.44731e-05 0 0.503035 5.43076e-05 0 0.503032 5.3931e-05
0 0.50303 5.33216e-05 0 0.503027 5.24565e-05 0 0.503025 5.13125e-05 0
0.503022 4.98664e-05 0 0.503019 4.80948e-05 0 0.503016 4.59755e-05 0 0.503014
4.34872e-05 0 0.503011 4.06109e-05 0 0.503009 3.73303e-05 0 0.503006 3.36333e-05
0 0.503004 2.95126e-05 0 0.503002 2.49674e-05 0 0.503001 2.00023e-05 0
0.502999 1.46497e-05 0 0.502998 8.86249e-06 0 0.502918 2.91987e-06 0 0.0383027
1.49775e-09 0 0.114944 1.30389e-08 0 0.190078 4.20711e-08 0 0.260555 9.03509e-08
0 0.323494 1.63173e-07 0 0.376715 2.67093e-07 0 0.419089 4.08357e-07 0
0.450666 5.91704e-07 0 0.47256 8.19293e-07 0 0.4866 1.09016e-06 0 0.494876
1.40057e-06 0 0.499336 1.74513e-06 0 0.501522 2.11819e-06 0 0.50249 2.51504e-06
0 0.502877 2.93242e-06 0 0.503016 3.36859e-06 0 0.50306 3.8229e-06 0
0.503073 4.29539e-06 0 0.503076 4.78649e-06 0 0.503077 5.29677e-06 0 0.503077
5.82689e-06 0 0.503077 6.37752e-06 0 0.503077 6.94938e-06 0 0.503077 7.54317e-06
0 0.503077 8.15963e-06 0 0.503077 8.79949e-06 0 0.503077 9.46348e-06 0
0.503077 1.01524e-05 0 0.503076 1.08668e-05 0 0.503076 1.16077e-05 0 0.503076
1.23756e-05 0 0.503076 1.31713e-05 0 0.503076 1.39955e-05 0 0.503076 1.48488e-05
0 0.503076 1.57318e-05 0 0.503075 1.66451e-05 0 0.503075 1.75893e-05 0
0.503075 1.85647e-05 0 0.503075 1.95717e-05 0 0.503074 2.06105e-05 0 0.503074
2.16814e-05 0 0.503074 2.27842e-05 0 0.503073 2.39189e-05 0 0.503073 2.5085e-05
0 0.503073 2.6282e-05 0 0.503072 2.7509e-05 0 0.503071 2.8765e-05 0
0.503071 3.00486e-05 0 0.50307 3.13579e-05 0 0.50307 3.26907e-05 0 0.503069
3.40445e-05 0 0.503068 3.54159e-05 0 0.503067 3.68013e-05 0 0.503066 3.81963e-05
0 0.503065 3.95957e-05 0 0.503064 4.09936e-05 0 0.503063 4.23832e-05 0
0.503062 4.37567e-05 0 0.50306 4.51059e-05 0 0.503059 4.64192e-05 0 
POINT_DATA  182
FIELD attributes 2
p 1 182 float
0 0 0 0 0 0 0 0 0 0 0
0 0 0 0 0 0 0 0 0 0
0 0 0 0 0 0 0 0 0 0
0 0 0 0 0 0 0 0 0 0
0 0 0 0 0 0 0 0 0 0
0 0 0 0 0 0 0 0 0 0
0 0 0 0 0 0 0 0 0 0
0 0 0 0 0 0 0 0 0 0
0 0 0 0 0 0 0 0 0 0
0 0 0 0 0 0 0 0 0 0
0 0 0 0 0 0 0 0 0 0
0 0 0 0 0 0 0 0 0 0
0 0 0 0 0 0 0 0 0 0
0 0 0 0 0 0 0 0 0 0
0 0 0 0 0 0 0 0 0 0
0 0 0 0 0 0 0 0 0 0
0 0 0 0 0 0 0 0 0 0
0 0 0 0 0 0 0 0 0 0
0 
U 3 182 float
0.503058 4.70149e-05 0 0.503057 4.80827e-05 0 0.503057 4.80827e-05 0 0.503058 4.70149e-05
0 0.503055 4.90789e-05 0 0.503055 4.90789e-05 0 0.503054 5.00279e-05 0
0.503054 5.00279e-05 0 0.503052 5.09192e-05 0 0.503052 5.09192e-05 0 0.50305
5.17418e-05 0 0.50305 5.17418e-05 0 0.503049 5.24832e-05 0 0.503049 5.24832e-05
0 0.503047 5.313e-05 0 0.503047 5.313e-05 0 0.503045 5.36676e-05 0
0.503045 5.36676e-05 0 0.503043 5.40802e-05 0 0.503043 5.40802e-05 0 0.50304
5.43506e-05 0 0.50304 5.43506e-05 0 0.503038 5.44608e-05 0 0.503038 5.44608e-05
0 0.503036 5.43912e-05 0 0.503036 5.43912e-05 0 0.503034 5.41214e-05 0
0.503034 5.41214e-05 0 0.503031 5.36298e-05 0 0.503031 5.36298e-05 0 0.503028
5.28941e-05 0 0.503028 5.28941e-05 0 0.503026 5.18914e-05 0 0.503026 5.18914e-05
0 0.503023 5.05984e-05 0 0.503023 5.05984e-05 0 0.503021 4.89918e-05 0
0.503021 4.89918e-05 0 0.503018 4.70489e-05 0 0.503018 4.70489e-05 0 0.503015
4.47478e-05 0 0.503015 4.47478e-05 0 0.503013 4.20685e-05 0 0.503013 4.20685e-05
0 0.50301 3.89933e-05 0 0.50301 3.89933e-05 0 0.503008 3.55079e-05 0
0.503008 3.55079e-05 0 0.503005 3.16026e-05 0 0.503005 3.16026e-05 0 0.503003
2.72733e-05 0 0.503003 2.72733e-05 0 0.503002 2.25219e-05 0 0.503002 2.25219e-05
0 0.503 1.73665e-05 0 0.503 1.73665e-05 0 0.502999 1.18005e-05 0
0.502999 1.18005e-05 0 0.502959 5.93743e-06 0 0.502959 5.93743e-06 0 0.502918
2.91987e-06 0 0.502918 2.91987e-06 0 0.0383027 1.49775e-09 0 0.0766176 7.2675e-09
0 0.0766176 7.2675e-09 0 0.0383027 1.49775e-09 0 0.152505 2.75527e-08 0
0.152505 2.75527e-08 0 0.22531 6.62069e-08 0 0.22531 6.62069e-08 0 0.292019
1.26755e-07 0 0.292019 1.26755e-07 0 0.350099 2.15123e-07 0 0.350099 2.15123e-07
0 0.397897 3.3771e-07 0 0.397897 3.3771e-07 0 0.434874 5.00009e-07 0
0.434874 5.00009e-07 0 0.46161 7.0547e-07 0 0.46161 7.0547e-07 0 0.479578
9.54691e-07 0 0.479578 9.54691e-07 0 0.490737 1.24532e-06 0 0.490737 1.24532e-06
0 0.497106 1.5728e-06 0 0.497106 1.5728e-06 0 0.500429 1.9316e-06 0
0.500429 1.9316e-06 0 0.502006 2.31654e-06 0 0.502006 2.31654e-06 0 0.502684
2.72365e-06 0 0.502684 2.72365e-06 0 0.502946 3.15041e-06 0 0.502946 3.15041e-06
0 0.503038 3.59564e-06 0 0.503038 3.59564e-06 0 0.503067 4.05903e-06 0
0.503067 4.05903e-06 0 0.503075 4.54081e-06 0 0.503075 4.54081e-06 0 0.503076
5.04148e-06 0 0.503076 5.04148e-06 0 0.503077 5.56166e-06 0 0.503077 5.56166e-06
0 0.503077 6.10202e-06 0 0.503077 6.10202e-06 0 0.503077 6.66324e-06 0
0.503077 6.66324e-06 0 0.503077 7.24604e-06 0 0.503077 7.24604e-06 0 0.503077
7.85114e-06 0 0.503077 7.85114e-06 0 0.503077 8.47927e-06 0 0.503077 8.47927e-06
0 0.503077 9.13116e-06 0 0.503077 9.13116e-06 0 0.503077 9.80756e-06 0
0.503077 9.80756e-06 0 0.503077 1.05092e-05 0 0.503077 1.05092e-05 0 0.503076
1.12368e-05 0 0.503076 1.12368e-05 0 0.503076 1.19911e-05 0 0.503076 1.19911e-05
0 0.503076 1.27729e-05 0 0.503076 1.27729e-05 0 0.503076 1.35828e-05 0
0.503076 1.35828e-05 0 0.503076 1.44214e-05 0 0.503076 1.44214e-05 0 0.503076
1.52895e-05 0 0.503076 1.52895e-05 0 0.503076 1.61876e-05 0 0.503076 1.61876e-05
0 0.503075 1.71162e-05 0 0.503075 1.71162e-05 0 0.503075 1.80759e-05 0
0.503075 1.80759e-05 0 0.503075 1.9067e-05 0 0.503075 1.9067e-05 0 0.503075
2.00898e-05 0 0.503075 2.00898e-05 0 0.503074 2.11445e-05 0 0.503074 2.11445e-05
0 0.503074 2.22312e-05 0 0.503074 2.22312e-05 0 0.503074 2.33498e-05 0
0.503074 2.33498e-05 0 0.503073 2.45e-05 0 0.503073 2.45e-05 0 0.503073
2.56814e-05 0 0.503073 2.56814e-05 0 0.503072 2.68932e-05 0 0.503072 2.68932e-05
0 0.503072 2.81346e-05 0 0.503072 2.81346e-05 0 0.503071 2.94041e-05 0
0.503071 2.94041e-05 0 0.503071 3.07003e-05 0 0.503071 3.07003e-05 0 0.50307
3.20212e-05 0 0.50307 3.20212e-05 0 0.503069 3.33642e-05 0 0.503069 3.33642e-05
0 0.503068 3.47266e-05 0 0.503068 3.47266e-05 0 0.503068 3.61048e-05 0
0.503068 3.61048e-05 0 0.503067 3.74947e-05 0 0.503067 3.74947e-05 0 0.503066
3.88916e-05 0 0.503066 3.88916e-05 0 0.503065 4.029e-05 0 0.503065 4.029e-05
0 0.503063 4.16836e-05 0 0.503063 4.16836e-05 0 0.503062 4.3065e-05 0
0.503062 4.3065e-05 0 0.503061 4.44262e-05 0 0.503061 4.44262e-05 0 0.50306
4.57573e-05 0 0.50306 4.57573e-05 0 
