# vtk DataFile Version 2.0
outlet
ASCII
DATASET POLYDATA
POINTS 182 float
0.1 0.02 0 0.1 0.0207299 0 0.1 0.0207299 0.001 0.1 0.02
0.001 0.1 0.021488 0 0.1 0.021488 0.001 0.1 0.0222754 0
0.1 0.0222754 0.001 0.1 0.0230932 0 0.1 0.0230932 0.001 0.1
0.0239425 0 0.1 0.0239425 0.001 0.1 0.0248247 0 0.1 0.0248247
0.001 0.1 0.0257409 0 0.1 0.0257409 0.001 0.1 0.0266925 0
0.1 0.0266925 0.001 0.1 0.0276808 0 0.1 0.0276808 0.001 0.1
0.0287073 0 0.1 0.0287073 0.001 0.1 0.0297734 0 0.1 0.0297734
0.001 0.1 0.0308807 0 0.1 0.0308807 0.001 0.1 0.0320307 0
0.1 0.0320307 0.001 0.1 0.0332251 0 0.1 0.0332251 0.001 0.1
0.0344656 0 0.1 0.0344656 0.001 0.1 0.0357541 0 0.1 0.0357541
0.001 0.1 0.0370923 0 0.1 0.0370923 0.001 0.1 0.0384821 0
0.1 0.0384821 0.001 0.1 0.0399257 0 0.1 0.0399257 0.001 0.1
0.0414249 0 0.1 0.0414249 0.001 0.1 0.042982 0 0.1 0.042982
0.001 0.1 0.0445993 0 0.1 0.0445993 0.001 0.1 0.046279 0
0.1 0.046279 0.001 0.1 0.0480236 0 0.1 0.0480236 0.001 0.1
0.0498355 0 0.1 0.0498355 0.001 0.1 0.0517173 0 0.1 0.0517173
0.001 0.1 0.0536719 0 0.1 0.0536719 0.001 0.1 0.0557019 0
0.1 0.0557019 0.001 0.1 0.0578102 0 0.1 0.0578102 0.001 0.1
0.06 0 0.1 0.06 0.001 0.1 0 0 0.1 8.46956e-05
0 0.1 8.46956e-05 0.001 0.1 0 0.001 0.1 0.000172762 0
0.1 0.000172762 0.001 0.1 0.000264333 0 0.1 0.000264333 0.001 0.1
0.000359549 0 0.1 0.000359549 0.001 0.1 0.000458554 0 0.1 0.000458554
0.001 0.1 0.0005615 0 0.1 0.0005615 0.001 0.1 0.000668542 0
0.1 0.000668542 0.001 0.1 0.000779845 0 0.1 0.000779845 0.001 0.1
0.000895577 0 0.1 0.000895577 0.001 0.1 0.00101591 0 0.1 0.00101591
0.001 0.1 0.00114104 0 0.1 0.00114104 0.001 0.1 0.00127115 0
0.1 0.00127115 0.001 0.1 0.00140644 0 0.1 0.00140644 0.001 0.1
0.0015471 0 0.1 0.0015471 0.001 0.1 0.00169337 0 0.1 0.00169337
0.001 0.1 0.00184546 0 0.1 0.00184546 0.001 0.1 0.0020036 0
0.1 0.0020036 0.001 0.1 0.00216804 0 0.1 0.00216804 0.001 0.1
0.00233902 0 0.1 0.00233902 0.001 0.1 0.00251681 0 0.1 0.00251681
0.001 0.1 0.00270167 0 0.1 0.00270167 0.001 0.1 0.00289388 0
0.1 0.00289388 0.001 0.1 0.00309375 0 0.1 0.00309375 0.001 0.1
0.00330157 0 0.1 0.00330157 0.001 0.1 0.00351767 0 0.1 0.00351767
0.001 0.1 0.00374236 0 0.1 0.00374236 0.001 0.1 0.00397599 0
0.1 0.00397599 0.001 0.1 0.00421893 0 0.1 0.00421893 0.001 0.1
0.00447153 0 0.1 0.00447153 0.001 0.1 0.00473419 0 0.1 0.00473419
0.001 0.1 0.0050073 0 0.1 0.0050073 0.001 0.1 0.00529127 0
0.1 0.00529127 0.001 0.1 0.00558655 0 0.1 0.00558655 0.001 0.1
0.00589359 0 0.1 0.00589359 0.001 0.1 0.00621284 0 0.1 0.00621284
0.001 0.1 0.00654479 0 0.1 0.00654479 0.001 0.1 0.00688996 0
0.1 0.00688996 0.001 0.1 0.00724887 0 0.1 0.00724887 0.001 0.1
0.00762206 0 0.1 0.00762206 0.001 0.1 0.0080101 0 0.1 0.0080101
0.001 0.1 0.00841358 0 0.1 0.00841358 0.001 0.1 0.00883312 0
0.1 0.00883312 0.001 0.1 0.00926936 0 0.1 0.00926936 0.001 0.1
0.00972297 0 0.1 0.00972297 0.001 0.1 0.0101946 0 0.1 0.0101946
0.001 0.1 0.010685 0 0.1 0.010685 0.001 0.1 0.011195 0
0.1 0.011195 0.001 0.1 0.0117252 0 0.1 0.0117252 0.001 0.1
0.0122766 0 0.1 0.0122766 0.001 0.1 0.0128499 0 0.1 0.0128499
0.001 0.1 0.013446 0 0.1 0.013446 0.001 0.1 0.0140658 0
0.1 0.0140658 0.001 0.1 0.0147103 0 0.1 0.0147103 0.001 0.1
0.0153804 0 0.1 0.0153804 0.001 0.1 0.0160772 0 0.1 0.0160772
0.001 0.1 0.0168018 0 0.1 0.0168018 0.001 0.1 0.0175551 0
0.1 0.0175551 0.001 0.1 0.0183385 0 0.1 0.0183385 0.001 0.1
0.019153 0 0.1 0.019153 0.001 
POLYGONS 90 450
4 0 1 2 3 4 1 4 5 2 4
4 6 7 5 4 6 8 9 7 4
8 10 11 9 4 10 12 13 11 4
12 14 15 13 4 14 16 17 15 4
16 18 19 17 4 18 20 21 19 4
20 22 23 21 4 22 24 25 23 4
24 26 27 25 4 26 28 29 27 4
28 30 31 29 4 30 32 33 31 4
32 34 35 33 4 34 36 37 35 4
36 38 39 37 4 38 40 41 39 4
40 42 43 41 4 42 44 45 43 4
44 46 47 45 4 46 48 49 47 4
48 50 51 49 4 50 52 53 51 4
52 54 55 53 4 54 56 57 55 4
56 58 59 57 4 58 60 61 59 4
62 63 64 65 4 63 66 67 64 4
66 68 69 67 4 68 70 71 69 4
70 72 73 71 4 72 74 75 73 4
74 76 77 75 4 76 78 79 77 4
78 80 81 79 4 80 82 83 81 4
82 84 85 83 4 84 86 87 85 4
86 88 89 87 4 88 90 91 89 4
90 92 93 91 4 92 94 95 93 4
94 96 97 95 4 96 98 99 97 4
98 100 101 99 4 100 102 103 101 4
102 104 105 103 4 104 106 107 105 4
106 108 109 107 4 108 110 111 109 4
110 112 113 111 4 112 114 115 113 4
114 116 117 115 4 116 118 119 117 4
118 120 121 119 4 120 122 123 121 4
122 124 125 123 4 124 126 127 125 4
126 128 129 127 4 128 130 131 129 4
130 132 133 131 4 132 134 135 133 4
134 136 137 135 4 136 138 139 137 4
138 140 141 139 4 140 142 143 141 4
142 144 145 143 4 144 146 147 145 4
146 148 149 147 4 148 150 151 149 4
150 152 153 151 4 152 154 155 153 4
154 156 157 155 4 156 158 159 157 4
158 160 161 159 4 160 162 163 161 4
162 164 165 163 4 164 166 167 165 4
166 168 169 167 4 168 170 171 169 4
170 172 173 171 4 172 174 175 173 4
174 176 177 175 4 176 178 179 177 4
178 180 181 179 4 180 0 3 181 
CELL_DATA 90
FIELD attributes 3
patchID 1 90 float
2 2 2 2 2 2 2 2 2 2 2
2 2 2 2 2 2 2 2 2 2
2 2 2 2 2 2 2 2 2 2
2 2 2 2 2 2 2 2 2 2
2 2 2 2 2 2 2 2 2 2
2 2 2 2 2 2 2 2 2 2
2 2 2 2 2 2 2 2 2 2
2 2 2 2 2 2 2 2 2 2
2 2 2 2 2 2 2 2 2 
p 1 90 float
0 0 0 0 0 0 0 0 0 0 0
0 0 0 0 0 0 0 0 0 0
0 0 0 0 0 0 0 0 0 0
0 0 0 0 0 0 0 0 0 0
0 0 0 0 0 0 0 0 0 0
0 0 0 0 0 0 0 0 0 0
0 0 0 0 0 0 0 0 0 0
0 0 0 0 0 0 0 0 0 0
0 0 0 0 0 0 0 0 0 
U 3 90 float
0.507296 0.0014351 0 0.507191 0.00141168 0 0.507082 0.00139001 0 0.506969 0.00136506
0 0.506853 0.0013397 0 0.506734 0.00131302 0 0.50661 0.00128463 0
0.506484 0.00125473 0 0.506355 0.00122313 0 0.506226 0.00118956 0 0.506098
0.00115402 0 0.505973 0.00111636 0 0.505854 0.00107654 0 0.505741 0.00103464
0 0.505637 0.000990627 0 0.505541 0.000944488 0 0.505451 0.000896212 0
0.505369 0.000845718 0 0.505293 0.000792928 0 0.505223 0.000737782 0 0.505158
0.000680164 0 0.505099 0.000619969 0 0.505046 0.000557129 0 0.504998 0.000491526
0 0.504955 0.000423014 0 0.504919 0.000351561 0 0.504889 0.000277108 0
0.504865 0.000199983 0 0.504847 0.00011731 0 0.504639 3.68619e-05 0 0.0164631
2.02766e-06 0 0.0499928 1.54721e-05 0 0.0847459 4.70986e-05 0 0.120653 9.57568e-05
0 0.157565 0.000162492 0 0.195237 0.000248475 0 0.233302 0.000354215 0
0.27126 0.0004793 0 0.308474 0.000622068 0 0.344184 0.000779256 0 0.377555
0.000945796 0 0.407754 0.00111493 0 0.434061 0.00127875 0 0.455982 0.00142923
0 0.473344 0.00155948 0 0.486334 0.001665 0 0.495459 0.00174444 0
0.501443 0.0017995 0 0.505086 0.00183421 0 0.507134 0.00185365 0 0.508193
0.00186275 0 0.508692 0.00186555 0 0.508905 0.00186483 0 0.508985 0.0018623
0 0.509009 0.00185886 0 0.509011 0.00185492 0 0.509004 0.00185064 0
0.508994 0.00184609 0 0.508981 0.00184127 0 0.508968 0.00183618 0 0.508952
0.0018308 0 0.508935 0.00182513 0 0.508917 0.00181914 0 0.508897 0.00181282
0 0.508876 0.00180615 0 0.508852 0.00179912 0 0.508827 0.00179172 0
0.5088 0.0017839 0 0.508771 0.00177567 0 0.50874 0.001767 0 0.508707
0.00175786 0 0.508672 0.00174824 0 0.508634 0.0017381 0 0.508593 0.00172743
0 0.50855 0.0017162 0 0.508504 0.00170437 0 0.508455 0.00169193 0
0.508402 0.00167884 0 0.508345 0.00166505 0 0.508285 0.00165058 0 0.50822
0.00163531 0 0.508151 0.00161927 0 0.508077 0.00160245 0 0.507998 0.00158466
0 0.507914 0.00156591 0 0.507825 0.00154685 0 0.507729 0.00152503 0
0.507628 0.00150503 0 0.507521 0.00148086 0 0.507407 0.00145724 0 
POINT_DATA  182
FIELD attributes 2
p 1 182 float
0 0 0 0 0 0 0 0 0 0 0
0 0 0 0 0 0 0 0 0 0
0 0 0 0 0 0 0 0 0 0
0 0 0 0 0 0 0 0 0 0
0 0 0 0 0 0 0 0 0 0
0 0 0 0 0 0 0 0 0 0
0 0 0 0 0 0 0 0 0 0
0 0 0 0 0 0 0 0 0 0
0 0 0 0 0 0 0 0 0 0
0 0 0 0 0 0 0 0 0 0
0 0 0 0 0 0 0 0 0 0
0 0 0 0 0 0 0 0 0 0
0 0 0 0 0 0 0 0 0 0
0 0 0 0 0 0 0 0 0 0
0 0 0 0 0 0 0 0 0 0
0 0 0 0 0 0 0 0 0 0
0 0 0 0 0 0 0 0 0 0
0 0 0 0 0 0 0 0 0 0
0 
U 3 182 float
0.50735 0.00144586 0 0.507244 0.00142347 0 0.507244 0.00142347 0 0.50735 0.00144586
0 0.507137 0.00140092 0 0.507137 0.00140092 0 0.507026 0.00137763 0
0.507026 0.00137763 0 0.506912 0.00135248 0 0.506912 0.00135248 0 0.506794
0.00132647 0 0.506794 0.00132647 0 0.506672 0.00129895 0 0.506672 0.00129895
0 0.506548 0.00126982 0 0.506548 0.00126982 0 0.50642 0.00123908 0
0.50642 0.00123908 0 0.506291 0.00120651 0 0.506291 0.00120651 0 0.506162
0.00117196 0 0.506162 0.00117196 0 0.506036 0.00113538 0 0.506036 0.00113538
0 0.505914 0.00109666 0 0.505914 0.00109666 0 0.505798 0.00105582 0
0.505798 0.00105582 0 0.50569 0.00101288 0 0.50569 0.00101288 0 0.505589
0.000967826 0 0.505589 0.000967826 0 0.505497 0.000920639 0 0.505497 0.000920639
0 0.505411 0.000871276 0 0.505411 0.000871276 0 0.505331 0.000819657 0
0.505331 0.000819657 0 0.505258 0.000765712 0 0.505258 0.000765712 0 0.505191
0.000709355 0 0.505191 0.000709355 0 0.505129 0.000650474 0 0.505129 0.000650474
0 0.505073 0.000588984 0 0.505073 0.000588984 0 0.505022 0.000524791 0
0.505022 0.000524791 0 0.504977 0.000457763 0 0.504977 0.000457763 0 0.504937
0.000387811 0 0.504937 0.000387811 0 0.504904 0.000314889 0 0.504904 0.000314889
0 0.504877 0.000239129 0 0.504877 0.000239129 0 0.504856 0.000159281 0
0.504856 0.000159281 0 0.504745 7.77123e-05 0 0.504745 7.77123e-05 0 0.504639
3.68619e-05 0 0.504639 3.68619e-05 0 0.0164631 2.02766e-06 0 0.0332255 8.74893e-06
0 0.0332255 8.74893e-06 0 0.0164631 2.02766e-06 0 0.0673666 3.12829e-05 0
0.0673666 3.12829e-05 0 0.102696 7.14236e-05 0 0.102696 7.14236e-05 0 0.139106
0.000129118 0 0.139106 0.000129118 0 0.176397 0.000205475 0 0.176397 0.000205475
0 0.214265 0.000301334 0 0.214265 0.000301334 0 0.252276 0.000416743 0
0.252276 0.000416743 0 0.289863 0.000550666 0 0.289863 0.000550666 0 0.326324
0.000700641 0 0.326324 0.000700641 0 0.360865 0.000862502 0 0.360865 0.000862502
0 0.39265 0.00103034 0 0.39265 0.00103034 0 0.420903 0.00119681 0
0.420903 0.00119681 0 0.445017 0.00135397 0 0.445017 0.00135397 0 0.464659
0.00149433 0 0.464659 0.00149433 0 0.479836 0.00161222 0 0.479836 0.00161222
0 0.490894 0.0017047 0 0.490894 0.0017047 0 0.498449 0.00177195 0
0.498449 0.00177195 0 0.503263 0.00181685 0 0.503263 0.00181685 0 0.50611
0.00184392 0 0.50611 0.00184392 0 0.507663 0.0018582 0 0.507663 0.0018582
0 0.508442 0.00186415 0 0.508442 0.00186415 0 0.508798 0.00186519 0
0.508798 0.00186519 0 0.508945 0.00186357 0 0.508945 0.00186357 0 0.508997
0.00186058 0 0.508997 0.00186058 0 0.50901 0.00185689 0 0.50901 0.00185689
0 0.509007 0.00185278 0 0.509007 0.00185278 0 0.508999 0.00184837 0
0.508999 0.00184837 0 0.508988 0.00184369 0 0.508988 0.00184369 0 0.508974
0.00183873 0 0.508974 0.00183873 0 0.50896 0.0018335 0 0.50896 0.0018335
0 0.508944 0.00182797 0 0.508944 0.00182797 0 0.508926 0.00182214 0
0.508926 0.00182214 0 0.508907 0.00181598 0 0.508907 0.00181598 0 0.508886
0.00180949 0 0.508886 0.00180949 0 0.508864 0.00180265 0 0.508864 0.00180265
0 0.50884 0.00179543 0 0.50884 0.00179543 0 0.508814 0.00178782 0
0.508814 0.00178782 0 0.508786 0.0017798 0 0.508786 0.0017798 0 0.508756
0.00177135 0 0.508756 0.00177135 0 0.508724 0.00176244 0 0.508724 0.00176244
0 0.508689 0.00175306 0 0.508689 0.00175306 0 0.508653 0.00174319 0
0.508653 0.00174319 0 0.508614 0.00173278 0 0.508614 0.00173278 0 0.508572
0.00172184 0 0.508572 0.00172184 0 0.508527 0.00171031 0 0.508527 0.00171031
0 0.50848 0.00169818 0 0.50848 0.00169818 0 0.508428 0.00168541 0
0.508428 0.00168541 0 0.508374 0.00167197 0 0.508374 0.00167197 0 0.508315
0.00165785 0 0.508315 0.00165785 0 0.508253 0.00164298 0 0.508253 0.00164298
0 0.508186 0.00162733 0 0.508186 0.00162733 0 0.508114 0.0016109 0
0.508114 0.0016109 0 0.508038 0.00159361 0 0.508038 0.00159361 0 0.507957
0.00157534 0 0.507957 0.00157534 0 0.50787 0.00155644 0 0.50787 0.00155644
0 0.507777 0.00153601 0 0.507777 0.00153601 0 0.507679 0.0015151 0
0.507679 0.0015151 0 0.507575 0.00149304 0 0.507575 0.00149304 0 0.507464
0.00146914 0 0.507464 0.00146914 0 
