# vtk DataFile Version 2.0
outlet
ASCII
DATASET POLYDATA
POINTS 182 float
0.1 0.02 0 0.1 0.0207299 0 0.1 0.0207299 0.001 0.1 0.02
0.001 0.1 0.021488 0 0.1 0.021488 0.001 0.1 0.0222754 0
0.1 0.0222754 0.001 0.1 0.0230932 0 0.1 0.0230932 0.001 0.1
0.0239425 0 0.1 0.0239425 0.001 0.1 0.0248247 0 0.1 0.0248247
0.001 0.1 0.0257409 0 0.1 0.0257409 0.001 0.1 0.0266925 0
0.1 0.0266925 0.001 0.1 0.0276808 0 0.1 0.0276808 0.001 0.1
0.0287073 0 0.1 0.0287073 0.001 0.1 0.0297734 0 0.1 0.0297734
0.001 0.1 0.0308807 0 0.1 0.0308807 0.001 0.1 0.0320307 0
0.1 0.0320307 0.001 0.1 0.0332251 0 0.1 0.0332251 0.001 0.1
0.0344656 0 0.1 0.0344656 0.001 0.1 0.0357541 0 0.1 0.0357541
0.001 0.1 0.0370923 0 0.1 0.0370923 0.001 0.1 0.0384821 0
0.1 0.0384821 0.001 0.1 0.0399257 0 0.1 0.0399257 0.001 0.1
0.0414249 0 0.1 0.0414249 0.001 0.1 0.042982 0 0.1 0.042982
0.001 0.1 0.0445993 0 0.1 0.0445993 0.001 0.1 0.046279 0
0.1 0.046279 0.001 0.1 0.0480236 0 0.1 0.0480236 0.001 0.1
0.0498355 0 0.1 0.0498355 0.001 0.1 0.0517173 0 0.1 0.0517173
0.001 0.1 0.0536719 0 0.1 0.0536719 0.001 0.1 0.0557019 0
0.1 0.0557019 0.001 0.1 0.0578102 0 0.1 0.0578102 0.001 0.1
0.06 0 0.1 0.06 0.001 0.1 0 0 0.1 8.46956e-05
0 0.1 8.46956e-05 0.001 0.1 0 0.001 0.1 0.000172762 0
0.1 0.000172762 0.001 0.1 0.000264333 0 0.1 0.000264333 0.001 0.1
0.000359549 0 0.1 0.000359549 0.001 0.1 0.000458554 0 0.1 0.000458554
0.001 0.1 0.0005615 0 0.1 0.0005615 0.001 0.1 0.000668542 0
0.1 0.000668542 0.001 0.1 0.000779845 0 0.1 0.000779845 0.001 0.1
0.000895577 0 0.1 0.000895577 0.001 0.1 0.00101591 0 0.1 0.00101591
0.001 0.1 0.00114104 0 0.1 0.00114104 0.001 0.1 0.00127115 0
0.1 0.00127115 0.001 0.1 0.00140644 0 0.1 0.00140644 0.001 0.1
0.0015471 0 0.1 0.0015471 0.001 0.1 0.00169337 0 0.1 0.00169337
0.001 0.1 0.00184546 0 0.1 0.00184546 0.001 0.1 0.0020036 0
0.1 0.0020036 0.001 0.1 0.00216804 0 0.1 0.00216804 0.001 0.1
0.00233902 0 0.1 0.00233902 0.001 0.1 0.00251681 0 0.1 0.00251681
0.001 0.1 0.00270167 0 0.1 0.00270167 0.001 0.1 0.00289388 0
0.1 0.00289388 0.001 0.1 0.00309375 0 0.1 0.00309375 0.001 0.1
0.00330157 0 0.1 0.00330157 0.001 0.1 0.00351767 0 0.1 0.00351767
0.001 0.1 0.00374236 0 0.1 0.00374236 0.001 0.1 0.00397599 0
0.1 0.00397599 0.001 0.1 0.00421893 0 0.1 0.00421893 0.001 0.1
0.00447153 0 0.1 0.00447153 0.001 0.1 0.00473419 0 0.1 0.00473419
0.001 0.1 0.0050073 0 0.1 0.0050073 0.001 0.1 0.00529127 0
0.1 0.00529127 0.001 0.1 0.00558655 0 0.1 0.00558655 0.001 0.1
0.00589359 0 0.1 0.00589359 0.001 0.1 0.00621284 0 0.1 0.00621284
0.001 0.1 0.00654479 0 0.1 0.00654479 0.001 0.1 0.00688996 0
0.1 0.00688996 0.001 0.1 0.00724887 0 0.1 0.00724887 0.001 0.1
0.00762206 0 0.1 0.00762206 0.001 0.1 0.0080101 0 0.1 0.0080101
0.001 0.1 0.00841358 0 0.1 0.00841358 0.001 0.1 0.00883312 0
0.1 0.00883312 0.001 0.1 0.00926936 0 0.1 0.00926936 0.001 0.1
0.00972297 0 0.1 0.00972297 0.001 0.1 0.0101946 0 0.1 0.0101946
0.001 0.1 0.010685 0 0.1 0.010685 0.001 0.1 0.011195 0
0.1 0.011195 0.001 0.1 0.0117252 0 0.1 0.0117252 0.001 0.1
0.0122766 0 0.1 0.0122766 0.001 0.1 0.0128499 0 0.1 0.0128499
0.001 0.1 0.013446 0 0.1 0.013446 0.001 0.1 0.0140658 0
0.1 0.0140658 0.001 0.1 0.0147103 0 0.1 0.0147103 0.001 0.1
0.0153804 0 0.1 0.0153804 0.001 0.1 0.0160772 0 0.1 0.0160772
0.001 0.1 0.0168018 0 0.1 0.0168018 0.001 0.1 0.0175551 0
0.1 0.0175551 0.001 0.1 0.0183385 0 0.1 0.0183385 0.001 0.1
0.019153 0 0.1 0.019153 0.001 
POLYGONS 90 450
4 0 1 2 3 4 1 4 5 2 4
4 6 7 5 4 6 8 9 7 4
8 10 11 9 4 10 12 13 11 4
12 14 15 13 4 14 16 17 15 4
16 18 19 17 4 18 20 21 19 4
20 22 23 21 4 22 24 25 23 4
24 26 27 25 4 26 28 29 27 4
28 30 31 29 4 30 32 33 31 4
32 34 35 33 4 34 36 37 35 4
36 38 39 37 4 38 40 41 39 4
40 42 43 41 4 42 44 45 43 4
44 46 47 45 4 46 48 49 47 4
48 50 51 49 4 50 52 53 51 4
52 54 55 53 4 54 56 57 55 4
56 58 59 57 4 58 60 61 59 4
62 63 64 65 4 63 66 67 64 4
66 68 69 67 4 68 70 71 69 4
70 72 73 71 4 72 74 75 73 4
74 76 77 75 4 76 78 79 77 4
78 80 81 79 4 80 82 83 81 4
82 84 85 83 4 84 86 87 85 4
86 88 89 87 4 88 90 91 89 4
90 92 93 91 4 92 94 95 93 4
94 96 97 95 4 96 98 99 97 4
98 100 101 99 4 100 102 103 101 4
102 104 105 103 4 104 106 107 105 4
106 108 109 107 4 108 110 111 109 4
110 112 113 111 4 112 114 115 113 4
114 116 117 115 4 116 118 119 117 4
118 120 121 119 4 120 122 123 121 4
122 124 125 123 4 124 126 127 125 4
126 128 129 127 4 128 130 131 129 4
130 132 133 131 4 132 134 135 133 4
134 136 137 135 4 136 138 139 137 4
138 140 141 139 4 140 142 143 141 4
142 144 145 143 4 144 146 147 145 4
146 148 149 147 4 148 150 151 149 4
150 152 153 151 4 152 154 155 153 4
154 156 157 155 4 156 158 159 157 4
158 160 161 159 4 160 162 163 161 4
162 164 165 163 4 164 166 167 165 4
166 168 169 167 4 168 170 171 169 4
170 172 173 171 4 172 174 175 173 4
174 176 177 175 4 176 178 179 177 4
178 180 181 179 4 180 0 3 181 
CELL_DATA 90
FIELD attributes 3
patchID 1 90 float
2 2 2 2 2 2 2 2 2 2 2
2 2 2 2 2 2 2 2 2 2
2 2 2 2 2 2 2 2 2 2
2 2 2 2 2 2 2 2 2 2
2 2 2 2 2 2 2 2 2 2
2 2 2 2 2 2 2 2 2 2
2 2 2 2 2 2 2 2 2 2
2 2 2 2 2 2 2 2 2 2
2 2 2 2 2 2 2 2 2 
p 1 90 float
0 0 0 0 0 0 0 0 0 0 0
0 0 0 0 0 0 0 0 0 0
0 0 0 0 0 0 0 0 0 0
0 0 0 0 0 0 0 0 0 0
0 0 0 0 0 0 0 0 0 0
0 0 0 0 0 0 0 0 0 0
0 0 0 0 0 0 0 0 0 0
0 0 0 0 0 0 0 0 0 0
0 0 0 0 0 0 0 0 0 
U 3 90 float
0.507396 0.00144277 0 0.507294 0.00141579 0 0.507187 0.00139525 0 0.507076 0.00136766
0 0.506958 0.00134097 0 0.506832 0.00131378 0 0.506696 0.00128365 0
0.50655 0.00125277 0 0.506392 0.00122008 0 0.506226 0.00118568 0 0.506067
0.00114866 0 0.505924 0.00111076 0 0.505798 0.0010703 0 0.505686 0.00102872
0 0.505586 0.00098487 0 0.505494 0.000939156 0 0.50541 0.000891407 0
0.505332 0.000841357 0 0.50526 0.000789081 0 0.505194 0.000734412 0 0.505132
0.000677208 0 0.505075 0.000617433 0 0.505022 0.00055497 0 0.504975 0.000489694
0 0.504933 0.000421521 0 0.504897 0.000350414 0 0.504866 0.000276244 0
0.504842 0.000199422 0 0.504823 0.000117149 0 0.50462 3.68777e-05 0 0.0164167
2.0652e-06 0 0.049849 1.58342e-05 0 0.0845054 4.82815e-05 0 0.120323 9.82384e-05
0 0.157161 0.000166759 0 0.194777 0.000255003 0 0.232809 0.000363426 0
0.270758 0.000491525 0 0.307984 0.000637523 0 0.343726 0.000798022 0 0.377144
0.000967817 0 0.407402 0.00114002 0 0.433774 0.0013066 0 0.455761 0.00145944
0 0.473185 0.00159159 0 0.486228 0.00169854 0 0.495396 0.00177894 0
0.501411 0.00183457 0 0.505076 0.00186952 0 0.507138 0.00188896 0 0.508205
0.0018979 0 0.508708 0.00190043 0 0.508923 0.00189939 0 0.509004 0.00189651
0 0.509029 0.00189269 0 0.509031 0.00188837 0 0.509025 0.0018837 0
0.509015 0.00187875 0 0.509003 0.00187352 0 0.50899 0.00186801 0 0.508975
0.0018622 0 0.508959 0.00185608 0 0.508941 0.00184964 0 0.508922 0.00184286
0 0.508901 0.00183572 0 0.508879 0.00182821 0 0.508855 0.0018203 0
0.508829 0.00181197 0 0.508801 0.00180321 0 0.508771 0.00179399 0 0.50874
0.00178428 0 0.508706 0.00177407 0 0.50867 0.00176332 0 0.508631 0.00175202
0 0.508591 0.00174012 0 0.508547 0.0017276 0 0.5085 0.00171443 0
0.50845 0.00170057 0 0.508396 0.00168599 0 0.508339 0.00167066 0 0.508277
0.00165447 0 0.508211 0.00163755 0 0.508141 0.00161974 0 0.508065 0.00160054
0 0.507985 0.00158129 0 0.5079 0.00156074 0 0.50781 0.00153676 0
0.507714 0.00151768 0 0.507612 0.00148956 0 0.507502 0.00146566 0 
POINT_DATA  182
FIELD attributes 2
p 1 182 float
0 0 0 0 0 0 0 0 0 0 0
0 0 0 0 0 0 0 0 0 0
0 0 0 0 0 0 0 0 0 0
0 0 0 0 0 0 0 0 0 0
0 0 0 0 0 0 0 0 0 0
0 0 0 0 0 0 0 0 0 0
0 0 0 0 0 0 0 0 0 0
0 0 0 0 0 0 0 0 0 0
0 0 0 0 0 0 0 0 0 0
0 0 0 0 0 0 0 0 0 0
0 0 0 0 0 0 0 0 0 0
0 0 0 0 0 0 0 0 0 0
0 0 0 0 0 0 0 0 0 0
0 0 0 0 0 0 0 0 0 0
0 0 0 0 0 0 0 0 0 0
0 0 0 0 0 0 0 0 0 0
0 0 0 0 0 0 0 0 0 0
0 0 0 0 0 0 0 0 0 0
0 
U 3 182 float
0.507448 0.00145389 0 0.507345 0.00142937 0 0.507345 0.00142937 0 0.507448 0.00145389
0 0.507241 0.00140559 0 0.507241 0.00140559 0 0.507132 0.00138156 0
0.507132 0.00138156 0 0.507017 0.00135442 0 0.507017 0.00135442 0 0.506895
0.00132748 0 0.506895 0.00132748 0 0.506765 0.00129884 0 0.506765 0.00129884
0 0.506624 0.00126835 0 0.506624 0.00126835 0 0.506472 0.00123658 0
0.506472 0.00123658 0 0.50631 0.00120304 0 0.50631 0.00120304 0 0.506147
0.00116735 0 0.506147 0.00116735 0 0.505996 0.00112991 0 0.505996 0.00112991
0 0.505861 0.00109075 0 0.505861 0.00109075 0 0.505743 0.00104974 0
0.505743 0.00104974 0 0.505637 0.00100705 0 0.505637 0.00100705 0 0.50554
0.000962279 0 0.50554 0.000962279 0 0.505453 0.000915568 0 0.505453 0.000915568
0 0.505372 0.00086669 0 0.505372 0.00086669 0 0.505297 0.000815549 0
0.505297 0.000815549 0 0.505228 0.0007621 0 0.505228 0.0007621 0 0.505163
0.000706189 0 0.505163 0.000706189 0 0.505104 0.000647726 0 0.505104 0.000647726
0 0.505049 0.000586634 0 0.505049 0.000586634 0 0.504999 0.000522793 0
0.504999 0.000522793 0 0.504955 0.000456098 0 0.504955 0.000456098 0 0.504915
0.000386488 0 0.504915 0.000386488 0 0.504882 0.000313881 0 0.504882 0.000313881
0 0.504854 0.000238414 0 0.504854 0.000238414 0 0.504833 0.000158917 0
0.504833 0.000158917 0 0.504723 7.7638e-05 0 0.504723 7.7638e-05 0 0.50462
3.68777e-05 0 0.50462 3.68777e-05 0 0.0164167 2.0652e-06 0 0.0331304 8.94872e-06
0 0.0331304 8.94872e-06 0 0.0164167 2.0652e-06 0 0.0671745 3.20553e-05 0
0.0671745 3.20553e-05 0 0.102411 7.32558e-05 0 0.102411 7.32558e-05 0 0.138739
0.000132493 0 0.138739 0.000132493 0 0.175966 0.000210873 0 0.175966 0.000210873
0 0.213789 0.000309203 0 0.213789 0.000309203 0 0.251779 0.000427461 0
0.251779 0.000427461 0 0.289366 0.000564506 0 0.289366 0.000564506 0 0.32585
0.000717751 0 0.32585 0.000717751 0 0.36043 0.000882895 0 0.36043 0.000882895
0 0.392268 0.00105389 0 0.392268 0.00105389 0 0.420583 0.00122328 0
0.420583 0.00122328 0 0.444763 0.00138299 0 0.444763 0.00138299 0 0.464469
0.00152549 0 0.464469 0.00152549 0 0.479704 0.00164505 0 0.479704 0.00164505
0 0.49081 0.00173872 0 0.49081 0.00173872 0 0.498402 0.00180674 0
0.498402 0.00180674 0 0.503243 0.00185204 0 0.503243 0.00185204 0 0.506107
0.00187924 0 0.506107 0.00187924 0 0.507671 0.00189343 0 0.507671 0.00189343
0 0.508456 0.00189917 0 0.508456 0.00189917 0 0.508816 0.00189991 0
0.508816 0.00189991 0 0.508964 0.00189795 0 0.508964 0.00189795 0 0.509017
0.0018946 0 0.509017 0.0018946 0 0.50903 0.00189053 0 0.50903 0.00189053
0 0.509028 0.00188604 0 0.509028 0.00188604 0 0.50902 0.00188123 0
0.50902 0.00188123 0 0.509009 0.00187614 0 0.509009 0.00187614 0 0.508996
0.00187077 0 0.508996 0.00187077 0 0.508982 0.00186511 0 0.508982 0.00186511
0 0.508967 0.00185914 0 0.508967 0.00185914 0 0.50895 0.00185287 0
0.50895 0.00185287 0 0.508931 0.00184626 0 0.508931 0.00184626 0 0.508911
0.0018393 0 0.508911 0.0018393 0 0.50889 0.00183197 0 0.50889 0.00183197
0 0.508867 0.00182426 0 0.508867 0.00182426 0 0.508842 0.00181614 0
0.508842 0.00181614 0 0.508815 0.0018076 0 0.508815 0.0018076 0 0.508786
0.00179861 0 0.508786 0.00179861 0 0.508755 0.00178915 0 0.508755 0.00178915
0 0.508723 0.00177919 0 0.508723 0.00177919 0 0.508688 0.00176871 0
0.508688 0.00176871 0 0.508651 0.00175769 0 0.508651 0.00175769 0 0.508611
0.00174609 0 0.508611 0.00174609 0 0.508569 0.00173388 0 0.508569 0.00173388
0 0.508524 0.00172104 0 0.508524 0.00172104 0 0.508475 0.00170753 0
0.508475 0.00170753 0 0.508423 0.00169331 0 0.508423 0.00169331 0 0.508368
0.00167836 0 0.508368 0.00167836 0 0.508308 0.0016626 0 0.508308 0.0016626
0 0.508244 0.00164605 0 0.508244 0.00164605 0 0.508176 0.00162869 0
0.508176 0.00162869 0 0.508103 0.00161019 0 0.508103 0.00161019 0 0.508026
0.00159097 0 0.508026 0.00159097 0 0.507943 0.00157108 0 0.507943 0.00157108
0 0.507855 0.00154883 0 0.507855 0.00154883 0 0.507762 0.00152729 0
0.507762 0.00152729 0 0.507663 0.00150373 0 0.507663 0.00150373 0 0.507557
0.00147771 0 0.507557 0.00147771 0 
