# vtk DataFile Version 2.0
outlet
ASCII
DATASET POLYDATA
POINTS 182 float
0.1 0.02 0 0.1 0.0207299 0 0.1 0.0207299 0.001 0.1 0.02
0.001 0.1 0.021488 0 0.1 0.021488 0.001 0.1 0.0222754 0
0.1 0.0222754 0.001 0.1 0.0230932 0 0.1 0.0230932 0.001 0.1
0.0239425 0 0.1 0.0239425 0.001 0.1 0.0248247 0 0.1 0.0248247
0.001 0.1 0.0257409 0 0.1 0.0257409 0.001 0.1 0.0266925 0
0.1 0.0266925 0.001 0.1 0.0276808 0 0.1 0.0276808 0.001 0.1
0.0287073 0 0.1 0.0287073 0.001 0.1 0.0297734 0 0.1 0.0297734
0.001 0.1 0.0308807 0 0.1 0.0308807 0.001 0.1 0.0320307 0
0.1 0.0320307 0.001 0.1 0.0332251 0 0.1 0.0332251 0.001 0.1
0.0344656 0 0.1 0.0344656 0.001 0.1 0.0357541 0 0.1 0.0357541
0.001 0.1 0.0370923 0 0.1 0.0370923 0.001 0.1 0.0384821 0
0.1 0.0384821 0.001 0.1 0.0399257 0 0.1 0.0399257 0.001 0.1
0.0414249 0 0.1 0.0414249 0.001 0.1 0.042982 0 0.1 0.042982
0.001 0.1 0.0445993 0 0.1 0.0445993 0.001 0.1 0.046279 0
0.1 0.046279 0.001 0.1 0.0480236 0 0.1 0.0480236 0.001 0.1
0.0498355 0 0.1 0.0498355 0.001 0.1 0.0517173 0 0.1 0.0517173
0.001 0.1 0.0536719 0 0.1 0.0536719 0.001 0.1 0.0557019 0
0.1 0.0557019 0.001 0.1 0.0578102 0 0.1 0.0578102 0.001 0.1
0.06 0 0.1 0.06 0.001 0.1 0 0 0.1 8.46956e-05
0 0.1 8.46956e-05 0.001 0.1 0 0.001 0.1 0.000172762 0
0.1 0.000172762 0.001 0.1 0.000264333 0 0.1 0.000264333 0.001 0.1
0.000359549 0 0.1 0.000359549 0.001 0.1 0.000458554 0 0.1 0.000458554
0.001 0.1 0.0005615 0 0.1 0.0005615 0.001 0.1 0.000668542 0
0.1 0.000668542 0.001 0.1 0.000779845 0 0.1 0.000779845 0.001 0.1
0.000895577 0 0.1 0.000895577 0.001 0.1 0.00101591 0 0.1 0.00101591
0.001 0.1 0.00114104 0 0.1 0.00114104 0.001 0.1 0.00127115 0
0.1 0.00127115 0.001 0.1 0.00140644 0 0.1 0.00140644 0.001 0.1
0.0015471 0 0.1 0.0015471 0.001 0.1 0.00169337 0 0.1 0.00169337
0.001 0.1 0.00184546 0 0.1 0.00184546 0.001 0.1 0.0020036 0
0.1 0.0020036 0.001 0.1 0.00216804 0 0.1 0.00216804 0.001 0.1
0.00233902 0 0.1 0.00233902 0.001 0.1 0.00251681 0 0.1 0.00251681
0.001 0.1 0.00270167 0 0.1 0.00270167 0.001 0.1 0.00289388 0
0.1 0.00289388 0.001 0.1 0.00309375 0 0.1 0.00309375 0.001 0.1
0.00330157 0 0.1 0.00330157 0.001 0.1 0.00351767 0 0.1 0.00351767
0.001 0.1 0.00374236 0 0.1 0.00374236 0.001 0.1 0.00397599 0
0.1 0.00397599 0.001 0.1 0.00421893 0 0.1 0.00421893 0.001 0.1
0.00447153 0 0.1 0.00447153 0.001 0.1 0.00473419 0 0.1 0.00473419
0.001 0.1 0.0050073 0 0.1 0.0050073 0.001 0.1 0.00529127 0
0.1 0.00529127 0.001 0.1 0.00558655 0 0.1 0.00558655 0.001 0.1
0.00589359 0 0.1 0.00589359 0.001 0.1 0.00621284 0 0.1 0.00621284
0.001 0.1 0.00654479 0 0.1 0.00654479 0.001 0.1 0.00688996 0
0.1 0.00688996 0.001 0.1 0.00724887 0 0.1 0.00724887 0.001 0.1
0.00762206 0 0.1 0.00762206 0.001 0.1 0.0080101 0 0.1 0.0080101
0.001 0.1 0.00841358 0 0.1 0.00841358 0.001 0.1 0.00883312 0
0.1 0.00883312 0.001 0.1 0.00926936 0 0.1 0.00926936 0.001 0.1
0.00972297 0 0.1 0.00972297 0.001 0.1 0.0101946 0 0.1 0.0101946
0.001 0.1 0.010685 0 0.1 0.010685 0.001 0.1 0.011195 0
0.1 0.011195 0.001 0.1 0.0117252 0 0.1 0.0117252 0.001 0.1
0.0122766 0 0.1 0.0122766 0.001 0.1 0.0128499 0 0.1 0.0128499
0.001 0.1 0.013446 0 0.1 0.013446 0.001 0.1 0.0140658 0
0.1 0.0140658 0.001 0.1 0.0147103 0 0.1 0.0147103 0.001 0.1
0.0153804 0 0.1 0.0153804 0.001 0.1 0.0160772 0 0.1 0.0160772
0.001 0.1 0.0168018 0 0.1 0.0168018 0.001 0.1 0.0175551 0
0.1 0.0175551 0.001 0.1 0.0183385 0 0.1 0.0183385 0.001 0.1
0.019153 0 0.1 0.019153 0.001 
POLYGONS 90 450
4 0 1 2 3 4 1 4 5 2 4
4 6 7 5 4 6 8 9 7 4
8 10 11 9 4 10 12 13 11 4
12 14 15 13 4 14 16 17 15 4
16 18 19 17 4 18 20 21 19 4
20 22 23 21 4 22 24 25 23 4
24 26 27 25 4 26 28 29 27 4
28 30 31 29 4 30 32 33 31 4
32 34 35 33 4 34 36 37 35 4
36 38 39 37 4 38 40 41 39 4
40 42 43 41 4 42 44 45 43 4
44 46 47 45 4 46 48 49 47 4
48 50 51 49 4 50 52 53 51 4
52 54 55 53 4 54 56 57 55 4
56 58 59 57 4 58 60 61 59 4
62 63 64 65 4 63 66 67 64 4
66 68 69 67 4 68 70 71 69 4
70 72 73 71 4 72 74 75 73 4
74 76 77 75 4 76 78 79 77 4
78 80 81 79 4 80 82 83 81 4
82 84 85 83 4 84 86 87 85 4
86 88 89 87 4 88 90 91 89 4
90 92 93 91 4 92 94 95 93 4
94 96 97 95 4 96 98 99 97 4
98 100 101 99 4 100 102 103 101 4
102 104 105 103 4 104 106 107 105 4
106 108 109 107 4 108 110 111 109 4
110 112 113 111 4 112 114 115 113 4
114 116 117 115 4 116 118 119 117 4
118 120 121 119 4 120 122 123 121 4
122 124 125 123 4 124 126 127 125 4
126 128 129 127 4 128 130 131 129 4
130 132 133 131 4 132 134 135 133 4
134 136 137 135 4 136 138 139 137 4
138 140 141 139 4 140 142 143 141 4
142 144 145 143 4 144 146 147 145 4
146 148 149 147 4 148 150 151 149 4
150 152 153 151 4 152 154 155 153 4
154 156 157 155 4 156 158 159 157 4
158 160 161 159 4 160 162 163 161 4
162 164 165 163 4 164 166 167 165 4
166 168 169 167 4 168 170 171 169 4
170 172 173 171 4 172 174 175 173 4
174 176 177 175 4 176 178 179 177 4
178 180 181 179 4 180 0 3 181 
CELL_DATA 90
FIELD attributes 3
patchID 1 90 float
2 2 2 2 2 2 2 2 2 2 2
2 2 2 2 2 2 2 2 2 2
2 2 2 2 2 2 2 2 2 2
2 2 2 2 2 2 2 2 2 2
2 2 2 2 2 2 2 2 2 2
2 2 2 2 2 2 2 2 2 2
2 2 2 2 2 2 2 2 2 2
2 2 2 2 2 2 2 2 2 2
2 2 2 2 2 2 2 2 2 
p 1 90 float
0 0 0 0 0 0 0 0 0 0 0
0 0 0 0 0 0 0 0 0 0
0 0 0 0 0 0 0 0 0 0
0 0 0 0 0 0 0 0 0 0
0 0 0 0 0 0 0 0 0 0
0 0 0 0 0 0 0 0 0 0
0 0 0 0 0 0 0 0 0 0
0 0 0 0 0 0 0 0 0 0
0 0 0 0 0 0 0 0 0 
U 3 90 float
0.507176 0.00140435 0 0.507073 0.00138343 0 0.506968 0.00136221 0 0.50686 0.00133893
0 0.506751 0.00131487 0 0.50664 0.00128929 0 0.506527 0.00126208 0
0.506415 0.00123343 0 0.506302 0.00120299 0 0.50619 0.0011707 0 0.506079
0.00113652 0 0.50597 0.00110029 0 0.505865 0.00106197 0 0.505763 0.00102147
0 0.505666 0.000978746 0 0.505574 0.000933766 0 0.505487 0.00088647 0
0.505405 0.000836836 0 0.505328 0.000784801 0 0.505257 0.000730297 0 0.505191
0.00067328 0 0.50513 0.000613673 0 0.505075 0.000551365 0 0.505025 0.000486333
0 0.504982 0.000418478 0 0.504944 0.000347619 0 0.504913 0.000273902 0
0.504889 0.000197604 0 0.50487 0.00011574 0 0.504654 3.63093e-05 0 0.0165689
1.94607e-06 0 0.0503196 1.46977e-05 0 0.0852919 4.45799e-05 0 0.121401 9.04856e-05
0 0.158484 0.000153442 0 0.196283 0.000234644 0 0.234427 0.000334709 0
0.272413 0.000453408 0 0.309604 0.000589319 0 0.345245 0.00073945 0 0.378509
0.000899022 0 0.408574 0.00106156 0 0.434732 0.0012194 0 0.456501 0.00136472
0 0.473721 0.00149078 0 0.486587 0.00159312 0 0.495612 0.00167036 0
0.501522 0.00172409 0 0.505114 0.00175819 0 0.507131 0.00177752 0 0.508171
0.00178689 0 0.50866 0.00179017 0 0.508868 0.00179007 0 0.508946 0.00178822
0 0.508968 0.00178549 0 0.508969 0.00178229 0 0.508962 0.00177878 0
0.508951 0.001775 0 0.508938 0.00177097 0 0.508923 0.00176668 0 0.508907
0.00176213 0 0.508889 0.00175729 0 0.50887 0.00175215 0 0.508849 0.00174671
0 0.508826 0.00174094 0 0.508801 0.00173483 0 0.508775 0.00172836 0
0.508746 0.00172152 0 0.508716 0.00171427 0 0.508683 0.00170662 0 0.508647
0.00169852 0 0.50861 0.00168997 0 0.508569 0.00168094 0 0.508526 0.00167142
0 0.50848 0.00166136 0 0.508431 0.00165075 0 0.508378 0.00163957 0
0.508322 0.00162778 0 0.508262 0.00161536 0 0.508197 0.00160227 0 0.508129
0.00158848 0 0.508055 0.00157394 0 0.507977 0.00155865 0 0.507894 0.00154252
0 0.507806 0.0015255 0 0.507713 0.00150774 0 0.507614 0.00148855 0
0.50751 0.0014691 0 0.5074 0.00144764 0 0.507286 0.00142567 0 
POINT_DATA  182
FIELD attributes 2
p 1 182 float
0 0 0 0 0 0 0 0 0 0 0
0 0 0 0 0 0 0 0 0 0
0 0 0 0 0 0 0 0 0 0
0 0 0 0 0 0 0 0 0 0
0 0 0 0 0 0 0 0 0 0
0 0 0 0 0 0 0 0 0 0
0 0 0 0 0 0 0 0 0 0
0 0 0 0 0 0 0 0 0 0
0 0 0 0 0 0 0 0 0 0
0 0 0 0 0 0 0 0 0 0
0 0 0 0 0 0 0 0 0 0
0 0 0 0 0 0 0 0 0 0
0 0 0 0 0 0 0 0 0 0
0 0 0 0 0 0 0 0 0 0
0 0 0 0 0 0 0 0 0 0
0 0 0 0 0 0 0 0 0 0
0 0 0 0 0 0 0 0 0 0
0 0 0 0 0 0 0 0 0 0
0 
U 3 182 float
0.507229 0.00141471 0 0.507125 0.00139396 0 0.507125 0.00139396 0 0.507229 0.00141471
0 0.507021 0.0013729 0 0.507021 0.0013729 0 0.506914 0.00135066 0
0.506914 0.00135066 0 0.506806 0.00132699 0 0.506806 0.00132699 0 0.506696
0.00130219 0 0.506696 0.00130219 0 0.506584 0.0012758 0 0.506584 0.0012758
0 0.506472 0.00124788 0 0.506472 0.00124788 0 0.506359 0.00121835 0
0.506359 0.00121835 0 0.506246 0.001187 0 0.506246 0.001187 0 0.506135
0.00115378 0 0.506135 0.00115378 0 0.506025 0.00111859 0 0.506025 0.00111859
0 0.505918 0.00108133 0 0.505918 0.00108133 0 0.505815 0.00104194 0
0.505815 0.00104194 0 0.505715 0.00100035 0 0.505715 0.00100035 0 0.505621
0.000956518 0 0.505621 0.000956518 0 0.505531 0.000910401 0 0.505531 0.000910401
0 0.505446 0.000861959 0 0.505446 0.000861959 0 0.505367 0.000811147 0
0.505367 0.000811147 0 0.505293 0.000757902 0 0.505293 0.000757902 0 0.505224
0.000702167 0 0.505224 0.000702167 0 0.505161 0.000643881 0 0.505161 0.000643881
0 0.505103 0.00058295 0 0.505103 0.00058295 0 0.50505 0.000519308 0
0.50505 0.000519308 0 0.505004 0.000452894 0 0.505004 0.000452894 0 0.504963
0.000383567 0 0.504963 0.000383567 0 0.504929 0.000311309 0 0.504929 0.000311309
0 0.504901 0.00023633 0 0.504901 0.00023633 0 0.50488 0.000157301 0
0.50488 0.000157301 0 0.504764 7.66432e-05 0 0.504764 7.66432e-05 0 0.504654
3.63093e-05 0 0.504654 3.63093e-05 0 0.0165689 1.94607e-06 0 0.0334418 8.32097e-06
0 0.0334418 8.32097e-06 0 0.0165689 1.94607e-06 0 0.067803 2.96365e-05 0
0.067803 2.96365e-05 0 0.103343 6.75289e-05 0 0.103343 6.75289e-05 0 0.139939
0.000121958 0 0.139939 0.000121958 0 0.17738 0.000194035 0 0.17738 0.000194035
0 0.215351 0.000284666 0 0.215351 0.000284666 0 0.253416 0.000394045 0
0.253416 0.000394045 0 0.291004 0.000521347 0 0.291004 0.000521347 0 0.32742
0.000664364 0 0.32742 0.000664364 0 0.361872 0.000819213 0 0.361872 0.000819213
0 0.393537 0.000980263 0 0.393537 0.000980263 0 0.421649 0.00114045 0
0.421649 0.00114045 0 0.445613 0.00129204 0 0.445613 0.00129204 0 0.465108
0.00142773 0 0.465108 0.00142773 0 0.480151 0.00154193 0 0.480151 0.00154193
0 0.491097 0.00163172 0 0.491097 0.00163172 0 0.498565 0.00169721 0
0.498565 0.00169721 0 0.503317 0.00174113 0 0.503317 0.00174113 0 0.506122
0.00176785 0 0.506122 0.00176785 0 0.50765 0.00178221 0 0.50765 0.00178221
0 0.508415 0.00178853 0 0.508415 0.00178853 0 0.508764 0.00179012 0
0.508764 0.00179012 0 0.508907 0.00178914 0 0.508907 0.00178914 0 0.508957
0.00178686 0 0.508957 0.00178686 0 0.508969 0.0017839 0 0.508969 0.0017839
0 0.508966 0.00178054 0 0.508966 0.00178054 0 0.508956 0.00177689 0
0.508956 0.00177689 0 0.508944 0.00177299 0 0.508944 0.00177299 0 0.50893
0.00176883 0 0.50893 0.00176883 0 0.508915 0.00176441 0 0.508915 0.00176441
0 0.508898 0.00175971 0 0.508898 0.00175971 0 0.508879 0.00175472 0
0.508879 0.00175472 0 0.508859 0.00174944 0 0.508859 0.00174944 0 0.508837
0.00174383 0 0.508837 0.00174383 0 0.508814 0.00173789 0 0.508814 0.00173789
0 0.508788 0.0017316 0 0.508788 0.0017316 0 0.508761 0.00172495 0
0.508761 0.00172495 0 0.508731 0.0017179 0 0.508731 0.0017179 0 0.508699
0.00171045 0 0.508699 0.00171045 0 0.508665 0.00170258 0 0.508665 0.00170258
0 0.508629 0.00169426 0 0.508629 0.00169426 0 0.50859 0.00168547 0
0.50859 0.00168547 0 0.508548 0.0016762 0 0.508548 0.0016762 0 0.508503
0.00166641 0 0.508503 0.00166641 0 0.508455 0.00165608 0 0.508455 0.00165608
0 0.508404 0.00164518 0 0.508404 0.00164518 0 0.50835 0.0016337 0
0.50835 0.0016337 0 0.508292 0.0016216 0 0.508292 0.0016216 0 0.508229
0.00160884 0 0.508229 0.00160884 0 0.508163 0.00159541 0 0.508163 0.00159541
0 0.508092 0.00158125 0 0.508092 0.00158125 0 0.508017 0.00156634 0
0.508017 0.00156634 0 0.507936 0.00155063 0 0.507936 0.00155063 0 0.507851
0.00153406 0 0.507851 0.00153406 0 0.50776 0.00151667 0 0.50776 0.00151667
0 0.507664 0.00149821 0 0.507664 0.00149821 0 0.507562 0.0014789 0
0.507562 0.0014789 0 0.507456 0.00145845 0 0.507456 0.00145845 0 0.507343
0.00143674 0 0.507343 0.00143674 0 
