# vtk DataFile Version 2.0
outlet
ASCII
DATASET POLYDATA
POINTS 182 float
0.1 0.02 0 0.1 0.0207299 0 0.1 0.0207299 0.001 0.1 0.02
0.001 0.1 0.021488 0 0.1 0.021488 0.001 0.1 0.0222754 0
0.1 0.0222754 0.001 0.1 0.0230932 0 0.1 0.0230932 0.001 0.1
0.0239425 0 0.1 0.0239425 0.001 0.1 0.0248247 0 0.1 0.0248247
0.001 0.1 0.0257409 0 0.1 0.0257409 0.001 0.1 0.0266925 0
0.1 0.0266925 0.001 0.1 0.0276808 0 0.1 0.0276808 0.001 0.1
0.0287073 0 0.1 0.0287073 0.001 0.1 0.0297734 0 0.1 0.0297734
0.001 0.1 0.0308807 0 0.1 0.0308807 0.001 0.1 0.0320307 0
0.1 0.0320307 0.001 0.1 0.0332251 0 0.1 0.0332251 0.001 0.1
0.0344656 0 0.1 0.0344656 0.001 0.1 0.0357541 0 0.1 0.0357541
0.001 0.1 0.0370923 0 0.1 0.0370923 0.001 0.1 0.0384821 0
0.1 0.0384821 0.001 0.1 0.0399257 0 0.1 0.0399257 0.001 0.1
0.0414249 0 0.1 0.0414249 0.001 0.1 0.042982 0 0.1 0.042982
0.001 0.1 0.0445993 0 0.1 0.0445993 0.001 0.1 0.046279 0
0.1 0.046279 0.001 0.1 0.0480236 0 0.1 0.0480236 0.001 0.1
0.0498355 0 0.1 0.0498355 0.001 0.1 0.0517173 0 0.1 0.0517173
0.001 0.1 0.0536719 0 0.1 0.0536719 0.001 0.1 0.0557019 0
0.1 0.0557019 0.001 0.1 0.0578102 0 0.1 0.0578102 0.001 0.1
0.06 0 0.1 0.06 0.001 0.1 0 0 0.1 8.46956e-05
0 0.1 8.46956e-05 0.001 0.1 0 0.001 0.1 0.000172762 0
0.1 0.000172762 0.001 0.1 0.000264333 0 0.1 0.000264333 0.001 0.1
0.000359549 0 0.1 0.000359549 0.001 0.1 0.000458554 0 0.1 0.000458554
0.001 0.1 0.0005615 0 0.1 0.0005615 0.001 0.1 0.000668542 0
0.1 0.000668542 0.001 0.1 0.000779845 0 0.1 0.000779845 0.001 0.1
0.000895577 0 0.1 0.000895577 0.001 0.1 0.00101591 0 0.1 0.00101591
0.001 0.1 0.00114104 0 0.1 0.00114104 0.001 0.1 0.00127115 0
0.1 0.00127115 0.001 0.1 0.00140644 0 0.1 0.00140644 0.001 0.1
0.0015471 0 0.1 0.0015471 0.001 0.1 0.00169337 0 0.1 0.00169337
0.001 0.1 0.00184546 0 0.1 0.00184546 0.001 0.1 0.0020036 0
0.1 0.0020036 0.001 0.1 0.00216804 0 0.1 0.00216804 0.001 0.1
0.00233902 0 0.1 0.00233902 0.001 0.1 0.00251681 0 0.1 0.00251681
0.001 0.1 0.00270167 0 0.1 0.00270167 0.001 0.1 0.00289388 0
0.1 0.00289388 0.001 0.1 0.00309375 0 0.1 0.00309375 0.001 0.1
0.00330157 0 0.1 0.00330157 0.001 0.1 0.00351767 0 0.1 0.00351767
0.001 0.1 0.00374236 0 0.1 0.00374236 0.001 0.1 0.00397599 0
0.1 0.00397599 0.001 0.1 0.00421893 0 0.1 0.00421893 0.001 0.1
0.00447153 0 0.1 0.00447153 0.001 0.1 0.00473419 0 0.1 0.00473419
0.001 0.1 0.0050073 0 0.1 0.0050073 0.001 0.1 0.00529127 0
0.1 0.00529127 0.001 0.1 0.00558655 0 0.1 0.00558655 0.001 0.1
0.00589359 0 0.1 0.00589359 0.001 0.1 0.00621284 0 0.1 0.00621284
0.001 0.1 0.00654479 0 0.1 0.00654479 0.001 0.1 0.00688996 0
0.1 0.00688996 0.001 0.1 0.00724887 0 0.1 0.00724887 0.001 0.1
0.00762206 0 0.1 0.00762206 0.001 0.1 0.0080101 0 0.1 0.0080101
0.001 0.1 0.00841358 0 0.1 0.00841358 0.001 0.1 0.00883312 0
0.1 0.00883312 0.001 0.1 0.00926936 0 0.1 0.00926936 0.001 0.1
0.00972297 0 0.1 0.00972297 0.001 0.1 0.0101946 0 0.1 0.0101946
0.001 0.1 0.010685 0 0.1 0.010685 0.001 0.1 0.011195 0
0.1 0.011195 0.001 0.1 0.0117252 0 0.1 0.0117252 0.001 0.1
0.0122766 0 0.1 0.0122766 0.001 0.1 0.0128499 0 0.1 0.0128499
0.001 0.1 0.013446 0 0.1 0.013446 0.001 0.1 0.0140658 0
0.1 0.0140658 0.001 0.1 0.0147103 0 0.1 0.0147103 0.001 0.1
0.0153804 0 0.1 0.0153804 0.001 0.1 0.0160772 0 0.1 0.0160772
0.001 0.1 0.0168018 0 0.1 0.0168018 0.001 0.1 0.0175551 0
0.1 0.0175551 0.001 0.1 0.0183385 0 0.1 0.0183385 0.001 0.1
0.019153 0 0.1 0.019153 0.001 
POLYGONS 90 450
4 0 1 2 3 4 1 4 5 2 4
4 6 7 5 4 6 8 9 7 4
8 10 11 9 4 10 12 13 11 4
12 14 15 13 4 14 16 17 15 4
16 18 19 17 4 18 20 21 19 4
20 22 23 21 4 22 24 25 23 4
24 26 27 25 4 26 28 29 27 4
28 30 31 29 4 30 32 33 31 4
32 34 35 33 4 34 36 37 35 4
36 38 39 37 4 38 40 41 39 4
40 42 43 41 4 42 44 45 43 4
44 46 47 45 4 46 48 49 47 4
48 50 51 49 4 50 52 53 51 4
52 54 55 53 4 54 56 57 55 4
56 58 59 57 4 58 60 61 59 4
62 63 64 65 4 63 66 67 64 4
66 68 69 67 4 68 70 71 69 4
70 72 73 71 4 72 74 75 73 4
74 76 77 75 4 76 78 79 77 4
78 80 81 79 4 80 82 83 81 4
82 84 85 83 4 84 86 87 85 4
86 88 89 87 4 88 90 91 89 4
90 92 93 91 4 92 94 95 93 4
94 96 97 95 4 96 98 99 97 4
98 100 101 99 4 100 102 103 101 4
102 104 105 103 4 104 106 107 105 4
106 108 109 107 4 108 110 111 109 4
110 112 113 111 4 112 114 115 113 4
114 116 117 115 4 116 118 119 117 4
118 120 121 119 4 120 122 123 121 4
122 124 125 123 4 124 126 127 125 4
126 128 129 127 4 128 130 131 129 4
130 132 133 131 4 132 134 135 133 4
134 136 137 135 4 136 138 139 137 4
138 140 141 139 4 140 142 143 141 4
142 144 145 143 4 144 146 147 145 4
146 148 149 147 4 148 150 151 149 4
150 152 153 151 4 152 154 155 153 4
154 156 157 155 4 156 158 159 157 4
158 160 161 159 4 160 162 163 161 4
162 164 165 163 4 164 166 167 165 4
166 168 169 167 4 168 170 171 169 4
170 172 173 171 4 172 174 175 173 4
174 176 177 175 4 176 178 179 177 4
178 180 181 179 4 180 0 3 181 
CELL_DATA 90
FIELD attributes 3
patchID 1 90 float
2 2 2 2 2 2 2 2 2 2 2
2 2 2 2 2 2 2 2 2 2
2 2 2 2 2 2 2 2 2 2
2 2 2 2 2 2 2 2 2 2
2 2 2 2 2 2 2 2 2 2
2 2 2 2 2 2 2 2 2 2
2 2 2 2 2 2 2 2 2 2
2 2 2 2 2 2 2 2 2 2
2 2 2 2 2 2 2 2 2 
p 1 90 float
0 0 0 0 0 0 0 0 0 0 0
0 0 0 0 0 0 0 0 0 0
0 0 0 0 0 0 0 0 0 0
0 0 0 0 0 0 0 0 0 0
0 0 0 0 0 0 0 0 0 0
0 0 0 0 0 0 0 0 0 0
0 0 0 0 0 0 0 0 0 0
0 0 0 0 0 0 0 0 0 0
0 0 0 0 0 0 0 0 0 
U 3 90 float
0.505708 0.000486836 0 0.505632 0.000487553 0 0.505554 0.000487734 0 0.505476 0.000487289
0 0.505397 0.000486137 0 0.505318 0.000484239 0 0.505239 0.000481524 0
0.50516 0.0004779 0 0.505082 0.0004733 0 0.505004 0.000467652 0 0.504928
0.000460866 0 0.504852 0.000452861 0 0.504777 0.000443558 0 0.504705 0.000432871
0 0.504634 0.000420711 0 0.504565 0.000406996 0 0.504498 0.000391641 0
0.504434 0.000374567 0 0.504373 0.00035569 0 0.504315 0.000334939 0 0.50426
0.000312253 0 0.504209 0.000287549 0 0.504161 0.000260805 0 0.504118 0.000231977
0 0.50408 0.000200994 0 0.504046 0.000167902 0 0.504018 0.000132665 0
0.503996 9.5878e-05 0 0.503978 5.53183e-05 0 0.503787 1.66677e-05 0 0.0221337
1.20325e-07 0 0.067005 7.42893e-07 0 0.112784 2.11267e-06 0 0.158827 4.28302e-06
0 0.204408 7.57671e-06 0 0.248746 1.25186e-05 0 0.291048 1.98098e-05 0
0.330546 3.02698e-05 0 0.366549 4.46969e-05 0 0.398489 6.36442e-05 0 0.425966
8.71513e-05 0 0.448786 0.000114526 0 0.466991 0.000144298 0 0.480863 0.000174444
0 0.490898 0.000202835 0 0.497748 0.000227751 0 0.502134 0.000248254 0
0.50475 0.000264277 0 0.506197 0.000276433 0 0.506933 0.000285677 0 0.507275
0.000292976 0 0.507417 0.000299104 0 0.507467 0.000304576 0 0.507477 0.000309688
0 0.507472 0.000314586 0 0.50746 0.000319339 0 0.507445 0.000323981 0
0.507429 0.000328542 0 0.507411 0.000333049 0 0.507391 0.00033754 0 0.50737
0.000342052 0 0.507348 0.000346625 0 0.507325 0.000351295 0 0.507301 0.000356089
0 0.507275 0.000361026 0 0.507248 0.000366112 0 0.507219 0.000371345 0
0.507188 0.00037671 0 0.507155 0.000382192 0 0.507119 0.000387768 0 0.507081
0.000393417 0 0.507039 0.00039912 0 0.506995 0.000404856 0 0.506948 0.000410611
0 0.506898 0.000416369 0 0.506845 0.000422112 0 0.506788 0.000427824 0
0.506729 0.000433486 0 0.506666 0.000439077 0 0.5066 0.000444567 0 0.506531
0.000449932 0 0.506459 0.000455138 0 0.506384 0.000460141 0 0.506306 0.000464902
0 0.506226 0.000469383 0 0.506143 0.000473522 0 0.506058 0.000477248 0
0.505971 0.000480539 0 0.505882 0.000483317 0 0.505792 0.000485455 0 
POINT_DATA  182
FIELD attributes 2
p 1 182 float
0 0 0 0 0 0 0 0 0 0 0
0 0 0 0 0 0 0 0 0 0
0 0 0 0 0 0 0 0 0 0
0 0 0 0 0 0 0 0 0 0
0 0 0 0 0 0 0 0 0 0
0 0 0 0 0 0 0 0 0 0
0 0 0 0 0 0 0 0 0 0
0 0 0 0 0 0 0 0 0 0
0 0 0 0 0 0 0 0 0 0
0 0 0 0 0 0 0 0 0 0
0 0 0 0 0 0 0 0 0 0
0 0 0 0 0 0 0 0 0 0
0 0 0 0 0 0 0 0 0 0
0 0 0 0 0 0 0 0 0 0
0 0 0 0 0 0 0 0 0 0
0 0 0 0 0 0 0 0 0 0
0 0 0 0 0 0 0 0 0 0
0 0 0 0 0 0 0 0 0 0
0 
U 3 182 float
0.505749 0.000486165 0 0.50567 0.000487192 0 0.50567 0.000487192 0 0.505749 0.000486165
0 0.505593 0.000487643 0 0.505593 0.000487643 0 0.505515 0.000487513 0
0.505515 0.000487513 0 0.505437 0.000486717 0 0.505437 0.000486717 0 0.505358
0.000485196 0 0.505358 0.000485196 0 0.505279 0.000482893 0 0.505279 0.000482893
0 0.5052 0.000479728 0 0.5052 0.000479728 0 0.505122 0.000475621 0
0.505122 0.000475621 0 0.505044 0.000470503 0 0.505044 0.000470503 0 0.504966
0.000464292 0 0.504966 0.000464292 0 0.50489 0.000456905 0 0.50489 0.000456905
0 0.504815 0.000448259 0 0.504815 0.000448259 0 0.504742 0.000438273 0
0.504742 0.000438273 0 0.50467 0.000426859 0 0.50467 0.000426859 0 0.5046
0.000413933 0 0.5046 0.000413933 0 0.504532 0.00039941 0 0.504532 0.00039941
0 0.504467 0.000383209 0 0.504467 0.000383209 0 0.504404 0.000365248 0
0.504404 0.000365248 0 0.504344 0.000345449 0 0.504344 0.000345449 0 0.504288
0.000323747 0 0.504288 0.000323747 0 0.504235 0.000300068 0 0.504235 0.000300068
0 0.504185 0.000274362 0 0.504185 0.000274362 0 0.50414 0.000246595 0
0.50414 0.000246595 0 0.504099 0.000216709 0 0.504099 0.000216709 0 0.504063
0.00018469 0 0.504063 0.00018469 0 0.504032 0.000150546 0 0.504032 0.000150546
0 0.504007 0.00011455 0 0.504007 0.00011455 0 0.503987 7.59095e-05 0
0.503987 7.59095e-05 0 0.503884 3.62938e-05 0 0.503884 3.62938e-05 0 0.503787
1.66677e-05 0 0.503787 1.66677e-05 0 0.0221337 1.20325e-07 0 0.0445661 4.31564e-07
0 0.0445661 4.31564e-07 0 0.0221337 1.20325e-07 0 0.0898912 1.42767e-06 0
0.0898912 1.42767e-06 0 0.135802 3.19766e-06 0 0.135802 3.19766e-06 0 0.181614
5.92956e-06 0 0.181614 5.92956e-06 0 0.226573 1.00472e-05 0 0.226573 1.00472e-05
0 0.269893 1.61635e-05 0 0.269893 1.61635e-05 0 0.310792 2.50386e-05 0
0.310792 2.50386e-05 0 0.348543 3.74815e-05 0 0.348543 3.74815e-05 0 0.382515
5.4168e-05 0 0.382515 5.4168e-05 0 0.412223 7.53944e-05 0 0.412223 7.53944e-05
0 0.437372 0.000100834 0 0.437372 0.000100834 0 0.457885 0.000129407 0
0.457885 0.000129407 0 0.473924 0.000159365 0 0.473924 0.000159365 0 0.485878
0.000188634 0 0.485878 0.000188634 0 0.494322 0.000215288 0 0.494322 0.000215288
0 0.49994 0.000237998 0 0.49994 0.000237998 0 0.503441 0.000256262 0
0.503441 0.000256262 0 0.505473 0.000270352 0 0.505473 0.000270352 0 0.506565
0.000281053 0 0.506565 0.000281053 0 0.507104 0.000289325 0 0.507104 0.000289325
0 0.507346 0.000296038 0 0.507346 0.000296038 0 0.507442 0.000301838 0
0.507442 0.000301838 0 0.507472 0.00030713 0 0.507472 0.00030713 0 0.507475
0.000312135 0 0.507475 0.000312135 0 0.507466 0.00031696 0 0.507466 0.00031696
0 0.507453 0.000321658 0 0.507453 0.000321658 0 0.507437 0.000326259 0
0.507437 0.000326259 0 0.50742 0.000330793 0 0.50742 0.000330793 0 0.507401
0.000335292 0 0.507401 0.000335292 0 0.507381 0.000339793 0 0.507381 0.000339793
0 0.507359 0.000344336 0 0.507359 0.000344336 0 0.507337 0.000348957 0
0.507337 0.000348957 0 0.507313 0.000353688 0 0.507313 0.000353688 0 0.507288
0.000358553 0 0.507288 0.000358553 0 0.507262 0.000363564 0 0.507262 0.000363564
0 0.507234 0.000368723 0 0.507234 0.000368723 0 0.507204 0.000374022 0
0.507204 0.000374022 0 0.507171 0.000379445 0 0.507171 0.000379445 0 0.507137
0.000384973 0 0.507137 0.000384973 0 0.5071 0.000390585 0 0.5071 0.000390585
0 0.50706 0.00039626 0 0.50706 0.00039626 0 0.507017 0.000401979 0
0.507017 0.000401979 0 0.506972 0.000407725 0 0.506972 0.000407725 0 0.506923
0.00041348 0 0.506923 0.00041348 0 0.506872 0.00041923 0 0.506872 0.00041923
0 0.506817 0.000424957 0 0.506817 0.000424957 0 0.506759 0.000430643 0
0.506759 0.000430643 0 0.506698 0.000436269 0 0.506698 0.000436269 0 0.506633
0.000441809 0 0.506633 0.000441809 0 0.506566 0.000447236 0 0.506566 0.000447236
0 0.506495 0.000452521 0 0.506495 0.000452521 0 0.506422 0.000457626 0
0.506422 0.000457626 0 0.506345 0.000462508 0 0.506345 0.000462508 0 0.506266
0.000467129 0 0.506266 0.000467129 0 0.506184 0.000471439 0 0.506184 0.000471439
0 0.506101 0.000475372 0 0.506101 0.000475372 0 0.506015 0.000478882 0
0.506015 0.000478882 0 0.505927 0.000481917 0 0.505927 0.000481917 0 0.505837
0.000484377 0 0.505837 0.000484377 0 
