# vtk DataFile Version 2.0
outlet
ASCII
DATASET POLYDATA
POINTS 182 float
0.1 0.02 0 0.1 0.0207299 0 0.1 0.0207299 0.001 0.1 0.02
0.001 0.1 0.021488 0 0.1 0.021488 0.001 0.1 0.0222754 0
0.1 0.0222754 0.001 0.1 0.0230932 0 0.1 0.0230932 0.001 0.1
0.0239425 0 0.1 0.0239425 0.001 0.1 0.0248247 0 0.1 0.0248247
0.001 0.1 0.0257409 0 0.1 0.0257409 0.001 0.1 0.0266925 0
0.1 0.0266925 0.001 0.1 0.0276808 0 0.1 0.0276808 0.001 0.1
0.0287073 0 0.1 0.0287073 0.001 0.1 0.0297734 0 0.1 0.0297734
0.001 0.1 0.0308807 0 0.1 0.0308807 0.001 0.1 0.0320307 0
0.1 0.0320307 0.001 0.1 0.0332251 0 0.1 0.0332251 0.001 0.1
0.0344656 0 0.1 0.0344656 0.001 0.1 0.0357541 0 0.1 0.0357541
0.001 0.1 0.0370923 0 0.1 0.0370923 0.001 0.1 0.0384821 0
0.1 0.0384821 0.001 0.1 0.0399257 0 0.1 0.0399257 0.001 0.1
0.0414249 0 0.1 0.0414249 0.001 0.1 0.042982 0 0.1 0.042982
0.001 0.1 0.0445993 0 0.1 0.0445993 0.001 0.1 0.046279 0
0.1 0.046279 0.001 0.1 0.0480236 0 0.1 0.0480236 0.001 0.1
0.0498355 0 0.1 0.0498355 0.001 0.1 0.0517173 0 0.1 0.0517173
0.001 0.1 0.0536719 0 0.1 0.0536719 0.001 0.1 0.0557019 0
0.1 0.0557019 0.001 0.1 0.0578102 0 0.1 0.0578102 0.001 0.1
0.06 0 0.1 0.06 0.001 0.1 0 0 0.1 8.46956e-05
0 0.1 8.46956e-05 0.001 0.1 0 0.001 0.1 0.000172762 0
0.1 0.000172762 0.001 0.1 0.000264333 0 0.1 0.000264333 0.001 0.1
0.000359549 0 0.1 0.000359549 0.001 0.1 0.000458554 0 0.1 0.000458554
0.001 0.1 0.0005615 0 0.1 0.0005615 0.001 0.1 0.000668542 0
0.1 0.000668542 0.001 0.1 0.000779845 0 0.1 0.000779845 0.001 0.1
0.000895577 0 0.1 0.000895577 0.001 0.1 0.00101591 0 0.1 0.00101591
0.001 0.1 0.00114104 0 0.1 0.00114104 0.001 0.1 0.00127115 0
0.1 0.00127115 0.001 0.1 0.00140644 0 0.1 0.00140644 0.001 0.1
0.0015471 0 0.1 0.0015471 0.001 0.1 0.00169337 0 0.1 0.00169337
0.001 0.1 0.00184546 0 0.1 0.00184546 0.001 0.1 0.0020036 0
0.1 0.0020036 0.001 0.1 0.00216804 0 0.1 0.00216804 0.001 0.1
0.00233902 0 0.1 0.00233902 0.001 0.1 0.00251681 0 0.1 0.00251681
0.001 0.1 0.00270167 0 0.1 0.00270167 0.001 0.1 0.00289388 0
0.1 0.00289388 0.001 0.1 0.00309375 0 0.1 0.00309375 0.001 0.1
0.00330157 0 0.1 0.00330157 0.001 0.1 0.00351767 0 0.1 0.00351767
0.001 0.1 0.00374236 0 0.1 0.00374236 0.001 0.1 0.00397599 0
0.1 0.00397599 0.001 0.1 0.00421893 0 0.1 0.00421893 0.001 0.1
0.00447153 0 0.1 0.00447153 0.001 0.1 0.00473419 0 0.1 0.00473419
0.001 0.1 0.0050073 0 0.1 0.0050073 0.001 0.1 0.00529127 0
0.1 0.00529127 0.001 0.1 0.00558655 0 0.1 0.00558655 0.001 0.1
0.00589359 0 0.1 0.00589359 0.001 0.1 0.00621284 0 0.1 0.00621284
0.001 0.1 0.00654479 0 0.1 0.00654479 0.001 0.1 0.00688996 0
0.1 0.00688996 0.001 0.1 0.00724887 0 0.1 0.00724887 0.001 0.1
0.00762206 0 0.1 0.00762206 0.001 0.1 0.0080101 0 0.1 0.0080101
0.001 0.1 0.00841358 0 0.1 0.00841358 0.001 0.1 0.00883312 0
0.1 0.00883312 0.001 0.1 0.00926936 0 0.1 0.00926936 0.001 0.1
0.00972297 0 0.1 0.00972297 0.001 0.1 0.0101946 0 0.1 0.0101946
0.001 0.1 0.010685 0 0.1 0.010685 0.001 0.1 0.011195 0
0.1 0.011195 0.001 0.1 0.0117252 0 0.1 0.0117252 0.001 0.1
0.0122766 0 0.1 0.0122766 0.001 0.1 0.0128499 0 0.1 0.0128499
0.001 0.1 0.013446 0 0.1 0.013446 0.001 0.1 0.0140658 0
0.1 0.0140658 0.001 0.1 0.0147103 0 0.1 0.0147103 0.001 0.1
0.0153804 0 0.1 0.0153804 0.001 0.1 0.0160772 0 0.1 0.0160772
0.001 0.1 0.0168018 0 0.1 0.0168018 0.001 0.1 0.0175551 0
0.1 0.0175551 0.001 0.1 0.0183385 0 0.1 0.0183385 0.001 0.1
0.019153 0 0.1 0.019153 0.001 
POLYGONS 90 450
4 0 1 2 3 4 1 4 5 2 4
4 6 7 5 4 6 8 9 7 4
8 10 11 9 4 10 12 13 11 4
12 14 15 13 4 14 16 17 15 4
16 18 19 17 4 18 20 21 19 4
20 22 23 21 4 22 24 25 23 4
24 26 27 25 4 26 28 29 27 4
28 30 31 29 4 30 32 33 31 4
32 34 35 33 4 34 36 37 35 4
36 38 39 37 4 38 40 41 39 4
40 42 43 41 4 42 44 45 43 4
44 46 47 45 4 46 48 49 47 4
48 50 51 49 4 50 52 53 51 4
52 54 55 53 4 54 56 57 55 4
56 58 59 57 4 58 60 61 59 4
62 63 64 65 4 63 66 67 64 4
66 68 69 67 4 68 70 71 69 4
70 72 73 71 4 72 74 75 73 4
74 76 77 75 4 76 78 79 77 4
78 80 81 79 4 80 82 83 81 4
82 84 85 83 4 84 86 87 85 4
86 88 89 87 4 88 90 91 89 4
90 92 93 91 4 92 94 95 93 4
94 96 97 95 4 96 98 99 97 4
98 100 101 99 4 100 102 103 101 4
102 104 105 103 4 104 106 107 105 4
106 108 109 107 4 108 110 111 109 4
110 112 113 111 4 112 114 115 113 4
114 116 117 115 4 116 118 119 117 4
118 120 121 119 4 120 122 123 121 4
122 124 125 123 4 124 126 127 125 4
126 128 129 127 4 128 130 131 129 4
130 132 133 131 4 132 134 135 133 4
134 136 137 135 4 136 138 139 137 4
138 140 141 139 4 140 142 143 141 4
142 144 145 143 4 144 146 147 145 4
146 148 149 147 4 148 150 151 149 4
150 152 153 151 4 152 154 155 153 4
154 156 157 155 4 156 158 159 157 4
158 160 161 159 4 160 162 163 161 4
162 164 165 163 4 164 166 167 165 4
166 168 169 167 4 168 170 171 169 4
170 172 173 171 4 172 174 175 173 4
174 176 177 175 4 176 178 179 177 4
178 180 181 179 4 180 0 3 181 
CELL_DATA 90
FIELD attributes 3
patchID 1 90 float
2 2 2 2 2 2 2 2 2 2 2
2 2 2 2 2 2 2 2 2 2
2 2 2 2 2 2 2 2 2 2
2 2 2 2 2 2 2 2 2 2
2 2 2 2 2 2 2 2 2 2
2 2 2 2 2 2 2 2 2 2
2 2 2 2 2 2 2 2 2 2
2 2 2 2 2 2 2 2 2 2
2 2 2 2 2 2 2 2 2 
p 1 90 float
0 0 0 0 0 0 0 0 0 0 0
0 0 0 0 0 0 0 0 0 0
0 0 0 0 0 0 0 0 0 0
0 0 0 0 0 0 0 0 0 0
0 0 0 0 0 0 0 0 0 0
0 0 0 0 0 0 0 0 0 0
0 0 0 0 0 0 0 0 0 0
0 0 0 0 0 0 0 0 0 0
0 0 0 0 0 0 0 0 0 
U 3 90 float
0.507008 0.00128528 0 0.506911 0.00126696 0 0.506813 0.00124744 0 0.506714 0.00122678
0 0.506614 0.00120486 0 0.506513 0.00118158 0 0.506412 0.0011569 0
0.506312 0.00113072 0 0.506212 0.00110297 0 0.506112 0.00107355 0 0.506015
0.00104242 0 0.505919 0.00100947 0 0.505825 0.000974628 0 0.505733 0.000937846
0 0.505644 0.000899033 0 0.505558 0.000858136 0 0.505476 0.000815093 0
0.505397 0.000769832 0 0.505322 0.000722298 0 0.505252 0.00067243 0 0.505185
0.000620162 0 0.505124 0.000565425 0 0.505067 0.000508167 0 0.505015 0.000448293
0 0.504969 0.000385761 0 0.50493 0.000320484 0 0.504897 0.000252432 0
0.504871 0.000182099 0 0.504849 0.000106474 0 0.504628 3.32208e-05 0 0.0168741
1.70853e-06 0 0.0512571 1.25515e-05 0 0.0868535 3.77021e-05 0 0.123536 7.62093e-05
0 0.161105 0.000129071 0 0.199271 0.00019756 0 0.237643 0.000282573 0
0.275711 0.000384352 0 0.312841 0.000502089 0 0.348291 0.000633505 0 0.381256
0.000774568 0 0.410943 0.000919533 0 0.436678 0.00106142 0 0.458016 0.00119292
0 0.47483 0.00130766 0 0.487342 0.00140134 0 0.496083 0.00147249 0
0.501782 0.00152243 0 0.50523 0.00155458 0 0.507156 0.00157337 0 0.508144
0.00158313 0 0.508607 0.00158739 0 0.508801 0.00158859 0 0.508873 0.00158823
0 0.508892 0.00158708 0 0.508891 0.00158551 0 0.508882 0.00158366 0
0.508869 0.00158158 0 0.508855 0.00157927 0 0.508838 0.00157673 0 0.50882
0.00157395 0 0.508801 0.00157092 0 0.50878 0.00156763 0 0.508756 0.00156406
0 0.508731 0.0015602 0 0.508704 0.00155603 0 0.508675 0.00155153 0
0.508644 0.0015467 0 0.50861 0.0015415 0 0.508574 0.00153593 0 0.508535
0.00152996 0 0.508494 0.00152358 0 0.508449 0.00151675 0 0.508402 0.00150947
0 0.508351 0.0015017 0 0.508297 0.00149342 0 0.50824 0.00148461 0
0.508178 0.00147524 0 0.508113 0.00146527 0 0.508043 0.00145468 0 0.50797
0.00144342 0 0.507892 0.00143146 0 0.507809 0.00141876 0 0.507722 0.00140527
0 0.507631 0.00139093 0 0.507535 0.00137569 0 0.507435 0.00135949 0
0.507331 0.00134223 0 0.507223 0.00132388 0 0.507112 0.00130429 0 
POINT_DATA  182
FIELD attributes 2
p 1 182 float
0 0 0 0 0 0 0 0 0 0 0
0 0 0 0 0 0 0 0 0 0
0 0 0 0 0 0 0 0 0 0
0 0 0 0 0 0 0 0 0 0
0 0 0 0 0 0 0 0 0 0
0 0 0 0 0 0 0 0 0 0
0 0 0 0 0 0 0 0 0 0
0 0 0 0 0 0 0 0 0 0
0 0 0 0 0 0 0 0 0 0
0 0 0 0 0 0 0 0 0 0
0 0 0 0 0 0 0 0 0 0
0 0 0 0 0 0 0 0 0 0
0 0 0 0 0 0 0 0 0 0
0 0 0 0 0 0 0 0 0 0
0 0 0 0 0 0 0 0 0 0
0 0 0 0 0 0 0 0 0 0
0 0 0 0 0 0 0 0 0 0
0 0 0 0 0 0 0 0 0 0
0 
U 3 182 float
0.507059 0.00129452 0 0.50696 0.00127618 0 0.50696 0.00127618 0 0.507059 0.00129452
0 0.506863 0.00125727 0 0.506863 0.00125727 0 0.506764 0.00123719 0
0.506764 0.00123719 0 0.506664 0.00121591 0 0.506664 0.00121591 0 0.506564
0.00119331 0 0.506564 0.00119331 0 0.506463 0.00116934 0 0.506463 0.00116934
0 0.506362 0.00114392 0 0.506362 0.00114392 0 0.506262 0.00111697 0
0.506262 0.00111697 0 0.506162 0.0010884 0 0.506162 0.0010884 0 0.506064
0.00105814 0 0.506064 0.00105814 0 0.505967 0.00102611 0 0.505967 0.00102611
0 0.505872 0.000992232 0 0.505872 0.000992232 0 0.505779 0.000956439 0
0.505779 0.000956439 0 0.505689 0.000918659 0 0.505689 0.000918659 0 0.505602
0.000878823 0 0.505602 0.000878823 0 0.505518 0.000836872 0 0.505518 0.000836872
0 0.505437 0.000792741 0 0.505437 0.000792741 0 0.50536 0.000746366 0
0.50536 0.000746366 0 0.505288 0.000697687 0 0.505288 0.000697687 0 0.505219
0.000646642 0 0.505219 0.000646642 0 0.505155 0.000593164 0 0.505155 0.000593164
0 0.505096 0.000537192 0 0.505096 0.000537192 0 0.505041 0.000478653 0
0.505041 0.000478653 0 0.504993 0.000417477 0 0.504993 0.000417477 0 0.50495
0.000353601 0 0.50495 0.000353601 0 0.504913 0.000286965 0 0.504913 0.000286965
0 0.504884 0.000217797 0 0.504884 0.000217797 0 0.50486 0.000144867 0
0.50486 0.000144867 0 0.50474 7.04178e-05 0 0.50474 7.04178e-05 0 0.504628
3.32208e-05 0 0.504628 3.32208e-05 0 0.0168741 1.70853e-06 0 0.0340631 7.12922e-06
0 0.0340631 7.12922e-06 0 0.0168741 1.70853e-06 0 0.0690525 2.51248e-05 0
0.0690525 2.51248e-05 0 0.105192 5.69524e-05 0 0.105192 5.69524e-05 0 0.142317
0.000102636 0 0.142317 0.000102636 0 0.180184 0.000163309 0 0.180184 0.000163309
0 0.218453 0.000240058 0 0.218453 0.000240058 0 0.256673 0.000333451 0
0.256673 0.000333451 0 0.294271 0.000443206 0 0.294271 0.000443206 0 0.330561
0.00056778 0 0.330561 0.00056778 0 0.364769 0.000704016 0 0.364769 0.000704016
0 0.396095 0.000847028 0 0.396095 0.000847028 0 0.423806 0.00099045 0
0.423806 0.00099045 0 0.447343 0.00112714 0 0.447343 0.00112714 0 0.466419
0.00125027 0 0.466419 0.00125027 0 0.481083 0.00135448 0 0.481083 0.00135448
0 0.491711 0.0014369 0 0.491711 0.0014369 0 0.498931 0.00149745 0
0.498931 0.00149745 0 0.503505 0.0015385 0 0.503505 0.0015385 0 0.506193
0.00156397 0 0.506193 0.00156397 0 0.50765 0.00157825 0 0.50765 0.00157825
0 0.508375 0.00158526 0 0.508375 0.00158526 0 0.508704 0.00158799 0
0.508704 0.00158799 0 0.508837 0.00158841 0 0.508837 0.00158841 0 0.508882
0.00158766 0 0.508882 0.00158766 0 0.508891 0.0015863 0 0.508891 0.0015863
0 0.508886 0.00158459 0 0.508886 0.00158459 0 0.508875 0.00158262 0
0.508875 0.00158262 0 0.508862 0.00158042 0 0.508862 0.00158042 0 0.508847
0.001578 0 0.508847 0.001578 0 0.508829 0.00157534 0 0.508829 0.00157534
0 0.508811 0.00157244 0 0.508811 0.00157244 0 0.50879 0.00156928 0
0.50879 0.00156928 0 0.508768 0.00156585 0 0.508768 0.00156585 0 0.508744
0.00156213 0 0.508744 0.00156213 0 0.508718 0.00155812 0 0.508718 0.00155812
0 0.50869 0.00155379 0 0.50869 0.00155379 0 0.50866 0.00154912 0
0.50866 0.00154912 0 0.508627 0.00154411 0 0.508627 0.00154411 0 0.508592
0.00153872 0 0.508592 0.00153872 0 0.508555 0.00153295 0 0.508555 0.00153295
0 0.508515 0.00152678 0 0.508515 0.00152678 0 0.508472 0.00152017 0
0.508472 0.00152017 0 0.508426 0.00151312 0 0.508426 0.00151312 0 0.508377
0.0015056 0 0.508377 0.0015056 0 0.508324 0.00149757 0 0.508324 0.00149757
0 0.508268 0.00148903 0 0.508268 0.00148903 0 0.508209 0.00147994 0
0.508209 0.00147994 0 0.508146 0.00147027 0 0.508146 0.00147027 0 0.508078
0.00146 0 0.508078 0.00146 0 0.508007 0.00144908 0 0.508007 0.00144908
0 0.507931 0.00143747 0 0.507931 0.00143747 0 0.507851 0.00142515 0
0.507851 0.00142515 0 0.507766 0.00141206 0 0.507766 0.00141206 0 0.507677
0.00139814 0 0.507677 0.00139814 0 0.507583 0.00138336 0 0.507583 0.00138336
0 0.507486 0.00136765 0 0.507486 0.00136765 0 0.507384 0.00135092 0
0.507384 0.00135092 0 0.507278 0.00133312 0 0.507278 0.00133312 0 0.507168
0.00131416 0 0.507168 0.00131416 0 
