# vtk DataFile Version 2.0
outlet
ASCII
DATASET POLYDATA
POINTS 182 float
0.1 0.02 0 0.1 0.0207299 0 0.1 0.0207299 0.001 0.1 0.02
0.001 0.1 0.021488 0 0.1 0.021488 0.001 0.1 0.0222754 0
0.1 0.0222754 0.001 0.1 0.0230932 0 0.1 0.0230932 0.001 0.1
0.0239425 0 0.1 0.0239425 0.001 0.1 0.0248247 0 0.1 0.0248247
0.001 0.1 0.0257409 0 0.1 0.0257409 0.001 0.1 0.0266925 0
0.1 0.0266925 0.001 0.1 0.0276808 0 0.1 0.0276808 0.001 0.1
0.0287073 0 0.1 0.0287073 0.001 0.1 0.0297734 0 0.1 0.0297734
0.001 0.1 0.0308807 0 0.1 0.0308807 0.001 0.1 0.0320307 0
0.1 0.0320307 0.001 0.1 0.0332251 0 0.1 0.0332251 0.001 0.1
0.0344656 0 0.1 0.0344656 0.001 0.1 0.0357541 0 0.1 0.0357541
0.001 0.1 0.0370923 0 0.1 0.0370923 0.001 0.1 0.0384821 0
0.1 0.0384821 0.001 0.1 0.0399257 0 0.1 0.0399257 0.001 0.1
0.0414249 0 0.1 0.0414249 0.001 0.1 0.042982 0 0.1 0.042982
0.001 0.1 0.0445993 0 0.1 0.0445993 0.001 0.1 0.046279 0
0.1 0.046279 0.001 0.1 0.0480236 0 0.1 0.0480236 0.001 0.1
0.0498355 0 0.1 0.0498355 0.001 0.1 0.0517173 0 0.1 0.0517173
0.001 0.1 0.0536719 0 0.1 0.0536719 0.001 0.1 0.0557019 0
0.1 0.0557019 0.001 0.1 0.0578102 0 0.1 0.0578102 0.001 0.1
0.06 0 0.1 0.06 0.001 0.1 0 0 0.1 8.46956e-05
0 0.1 8.46956e-05 0.001 0.1 0 0.001 0.1 0.000172762 0
0.1 0.000172762 0.001 0.1 0.000264333 0 0.1 0.000264333 0.001 0.1
0.000359549 0 0.1 0.000359549 0.001 0.1 0.000458554 0 0.1 0.000458554
0.001 0.1 0.0005615 0 0.1 0.0005615 0.001 0.1 0.000668542 0
0.1 0.000668542 0.001 0.1 0.000779845 0 0.1 0.000779845 0.001 0.1
0.000895577 0 0.1 0.000895577 0.001 0.1 0.00101591 0 0.1 0.00101591
0.001 0.1 0.00114104 0 0.1 0.00114104 0.001 0.1 0.00127115 0
0.1 0.00127115 0.001 0.1 0.00140644 0 0.1 0.00140644 0.001 0.1
0.0015471 0 0.1 0.0015471 0.001 0.1 0.00169337 0 0.1 0.00169337
0.001 0.1 0.00184546 0 0.1 0.00184546 0.001 0.1 0.0020036 0
0.1 0.0020036 0.001 0.1 0.00216804 0 0.1 0.00216804 0.001 0.1
0.00233902 0 0.1 0.00233902 0.001 0.1 0.00251681 0 0.1 0.00251681
0.001 0.1 0.00270167 0 0.1 0.00270167 0.001 0.1 0.00289388 0
0.1 0.00289388 0.001 0.1 0.00309375 0 0.1 0.00309375 0.001 0.1
0.00330157 0 0.1 0.00330157 0.001 0.1 0.00351767 0 0.1 0.00351767
0.001 0.1 0.00374236 0 0.1 0.00374236 0.001 0.1 0.00397599 0
0.1 0.00397599 0.001 0.1 0.00421893 0 0.1 0.00421893 0.001 0.1
0.00447153 0 0.1 0.00447153 0.001 0.1 0.00473419 0 0.1 0.00473419
0.001 0.1 0.0050073 0 0.1 0.0050073 0.001 0.1 0.00529127 0
0.1 0.00529127 0.001 0.1 0.00558655 0 0.1 0.00558655 0.001 0.1
0.00589359 0 0.1 0.00589359 0.001 0.1 0.00621284 0 0.1 0.00621284
0.001 0.1 0.00654479 0 0.1 0.00654479 0.001 0.1 0.00688996 0
0.1 0.00688996 0.001 0.1 0.00724887 0 0.1 0.00724887 0.001 0.1
0.00762206 0 0.1 0.00762206 0.001 0.1 0.0080101 0 0.1 0.0080101
0.001 0.1 0.00841358 0 0.1 0.00841358 0.001 0.1 0.00883312 0
0.1 0.00883312 0.001 0.1 0.00926936 0 0.1 0.00926936 0.001 0.1
0.00972297 0 0.1 0.00972297 0.001 0.1 0.0101946 0 0.1 0.0101946
0.001 0.1 0.010685 0 0.1 0.010685 0.001 0.1 0.011195 0
0.1 0.011195 0.001 0.1 0.0117252 0 0.1 0.0117252 0.001 0.1
0.0122766 0 0.1 0.0122766 0.001 0.1 0.0128499 0 0.1 0.0128499
0.001 0.1 0.013446 0 0.1 0.013446 0.001 0.1 0.0140658 0
0.1 0.0140658 0.001 0.1 0.0147103 0 0.1 0.0147103 0.001 0.1
0.0153804 0 0.1 0.0153804 0.001 0.1 0.0160772 0 0.1 0.0160772
0.001 0.1 0.0168018 0 0.1 0.0168018 0.001 0.1 0.0175551 0
0.1 0.0175551 0.001 0.1 0.0183385 0 0.1 0.0183385 0.001 0.1
0.019153 0 0.1 0.019153 0.001 
POLYGONS 90 450
4 0 1 2 3 4 1 4 5 2 4
4 6 7 5 4 6 8 9 7 4
8 10 11 9 4 10 12 13 11 4
12 14 15 13 4 14 16 17 15 4
16 18 19 17 4 18 20 21 19 4
20 22 23 21 4 22 24 25 23 4
24 26 27 25 4 26 28 29 27 4
28 30 31 29 4 30 32 33 31 4
32 34 35 33 4 34 36 37 35 4
36 38 39 37 4 38 40 41 39 4
40 42 43 41 4 42 44 45 43 4
44 46 47 45 4 46 48 49 47 4
48 50 51 49 4 50 52 53 51 4
52 54 55 53 4 54 56 57 55 4
56 58 59 57 4 58 60 61 59 4
62 63 64 65 4 63 66 67 64 4
66 68 69 67 4 68 70 71 69 4
70 72 73 71 4 72 74 75 73 4
74 76 77 75 4 76 78 79 77 4
78 80 81 79 4 80 82 83 81 4
82 84 85 83 4 84 86 87 85 4
86 88 89 87 4 88 90 91 89 4
90 92 93 91 4 92 94 95 93 4
94 96 97 95 4 96 98 99 97 4
98 100 101 99 4 100 102 103 101 4
102 104 105 103 4 104 106 107 105 4
106 108 109 107 4 108 110 111 109 4
110 112 113 111 4 112 114 115 113 4
114 116 117 115 4 116 118 119 117 4
118 120 121 119 4 120 122 123 121 4
122 124 125 123 4 124 126 127 125 4
126 128 129 127 4 128 130 131 129 4
130 132 133 131 4 132 134 135 133 4
134 136 137 135 4 136 138 139 137 4
138 140 141 139 4 140 142 143 141 4
142 144 145 143 4 144 146 147 145 4
146 148 149 147 4 148 150 151 149 4
150 152 153 151 4 152 154 155 153 4
154 156 157 155 4 156 158 159 157 4
158 160 161 159 4 160 162 163 161 4
162 164 165 163 4 164 166 167 165 4
166 168 169 167 4 168 170 171 169 4
170 172 173 171 4 172 174 175 173 4
174 176 177 175 4 176 178 179 177 4
178 180 181 179 4 180 0 3 181 
CELL_DATA 90
FIELD attributes 3
patchID 1 90 float
2 2 2 2 2 2 2 2 2 2 2
2 2 2 2 2 2 2 2 2 2
2 2 2 2 2 2 2 2 2 2
2 2 2 2 2 2 2 2 2 2
2 2 2 2 2 2 2 2 2 2
2 2 2 2 2 2 2 2 2 2
2 2 2 2 2 2 2 2 2 2
2 2 2 2 2 2 2 2 2 2
2 2 2 2 2 2 2 2 2 
p 1 90 float
0 0 0 0 0 0 0 0 0 0 0
0 0 0 0 0 0 0 0 0 0
0 0 0 0 0 0 0 0 0 0
0 0 0 0 0 0 0 0 0 0
0 0 0 0 0 0 0 0 0 0
0 0 0 0 0 0 0 0 0 0
0 0 0 0 0 0 0 0 0 0
0 0 0 0 0 0 0 0 0 0
0 0 0 0 0 0 0 0 0 
U 3 90 float
0.506778 0.00103945 0 0.506687 0.00102618 0 0.506594 0.00101193 0 0.5065 0.000996672
0 0.506406 0.000980317 0 0.506311 0.000962807 0 0.506216 0.000944079 0
0.506122 0.00092408 0 0.506027 0.000902747 0 0.505934 0.000880012 0 0.505842
0.000855805 0 0.50575 0.000830059 0 0.505661 0.000802709 0 0.505573 0.000773688
0 0.505488 0.000742922 0 0.505405 0.000710341 0 0.505324 0.000675873 0
0.505247 0.000639449 0 0.505173 0.000600998 0 0.505102 0.000560448 0 0.505036
0.000517727 0 0.504973 0.000472769 0 0.504916 0.000425506 0 0.504864 0.000375869
0 0.504817 0.000323792 0 0.504776 0.000269213 0 0.504742 0.000212125 0
0.504715 0.00015305 0 0.504693 8.91414e-05 0 0.504474 2.75475e-05 0 0.0176781
1.11079e-06 0 0.0536916 7.8913e-06 0 0.0908784 2.34565e-05 0 0.129017 4.73314e-05
0 0.16782 8.04619e-05 0 0.206926 0.000124176 0 0.245889 0.000179762 0
0.284173 0.0002482 0 0.321147 0.000329754 0 0.356099 0.000423487 0 0.388283
0.000526885 0 0.416983 0.000635753 0 0.44162 0.000744545 0 0.461844 0.000847159
0 0.477619 0.000938033 0 0.489235 0.00101324 0 0.497262 0.00107118 0
0.502436 0.00111263 0 0.505531 0.00114015 0 0.507238 0.00115721 0 0.508103
0.00116722 0 0.508501 0.00117296 0 0.508665 0.00117637 0 0.508723 0.0011786
0 0.508736 0.00118027 0 0.508732 0.00118164 0 0.508721 0.00118284 0
0.508706 0.0011839 0 0.50869 0.00118482 0 0.508672 0.0011856 0 0.508652
0.00118622 0 0.508631 0.00118668 0 0.508607 0.00118696 0 0.508582 0.00118706
0 0.508555 0.00118695 0 0.508525 0.00118663 0 0.508493 0.00118608 0
0.508459 0.00118527 0 0.508422 0.0011842 0 0.508383 0.00118285 0 0.508341
0.00118118 0 0.508295 0.0011792 0 0.508247 0.00117686 0 0.508196 0.00117416
0 0.508141 0.00117106 0 0.508082 0.00116753 0 0.50802 0.00116356 0
0.507955 0.0011591 0 0.507885 0.00115413 0 0.507812 0.00114861 0 0.507734
0.0011425 0 0.507653 0.00113576 0 0.507568 0.00112835 0 0.507479 0.00112021
0 0.507387 0.0011113 0 0.507291 0.00110155 0 0.507192 0.00109092 0
0.507089 0.00107933 0 0.506985 0.00106671 0 0.506878 0.00105296 0 
POINT_DATA  182
FIELD attributes 2
p 1 182 float
0 0 0 0 0 0 0 0 0 0 0
0 0 0 0 0 0 0 0 0 0
0 0 0 0 0 0 0 0 0 0
0 0 0 0 0 0 0 0 0 0
0 0 0 0 0 0 0 0 0 0
0 0 0 0 0 0 0 0 0 0
0 0 0 0 0 0 0 0 0 0
0 0 0 0 0 0 0 0 0 0
0 0 0 0 0 0 0 0 0 0
0 0 0 0 0 0 0 0 0 0
0 0 0 0 0 0 0 0 0 0
0 0 0 0 0 0 0 0 0 0
0 0 0 0 0 0 0 0 0 0
0 0 0 0 0 0 0 0 0 0
0 0 0 0 0 0 0 0 0 0
0 0 0 0 0 0 0 0 0 0
0 0 0 0 0 0 0 0 0 0
0 0 0 0 0 0 0 0 0 0
0 
U 3 182 float
0.506827 0.00104601 0 0.506733 0.00103286 0 0.506733 0.00103286 0 0.506827 0.00104601
0 0.506641 0.0010191 0 0.506641 0.0010191 0 0.506547 0.00100436 0
0.506547 0.00100436 0 0.506453 0.000988558 0 0.506453 0.000988558 0 0.506359
0.000971633 0 0.506359 0.000971633 0 0.506264 0.000953522 0 0.506264 0.000953522
0 0.506169 0.000934167 0 0.506169 0.000934167 0 0.506075 0.000913511 0
0.506075 0.000913511 0 0.505981 0.000891488 0 0.505981 0.000891488 0 0.505888
0.000868028 0 0.505888 0.000868028 0 0.505796 0.000843064 0 0.505796 0.000843064
0 0.505706 0.000816529 0 0.505706 0.000816529 0 0.505618 0.000788358 0
0.505618 0.000788358 0 0.505531 0.000758479 0 0.505531 0.000758479 0 0.505447
0.000726821 0 0.505447 0.000726821 0 0.505365 0.000693313 0 0.505365 0.000693313
0 0.505286 0.000657886 0 0.505286 0.000657886 0 0.50521 0.000620467 0
0.50521 0.000620467 0 0.505138 0.000580986 0 0.505138 0.000580986 0 0.505069
0.000539371 0 0.505069 0.000539371 0 0.505005 0.000495553 0 0.505005 0.000495553
0 0.504945 0.000449465 0 0.504945 0.000449465 0 0.50489 0.000401038 0
0.50489 0.000401038 0 0.50484 0.000350205 0 0.50484 0.000350205 0 0.504797
0.000296903 0 0.504797 0.000296903 0 0.504759 0.000241094 0 0.504759 0.000241094
0 0.504728 0.000183034 0 0.504728 0.000183034 0 0.504704 0.000121587 0
0.504704 0.000121587 0 0.504585 5.88239e-05 0 0.504585 5.88239e-05 0 0.504474
2.75475e-05 0 0.504474 2.75475e-05 0 0.0176781 1.11079e-06 0 0.0356822 4.50056e-06
0 0.0356822 4.50056e-06 0 0.0176781 1.11079e-06 0 0.0722821 1.56727e-05 0
0.0722821 1.56727e-05 0 0.109944 3.53919e-05 0 0.109944 3.53919e-05 0 0.148415
6.38936e-05 0 0.148415 6.38936e-05 0 0.187369 0.000102315 0 0.187369 0.000102315
0 0.226403 0.000151963 0 0.226403 0.000151963 0 0.265027 0.000213973 0
0.265027 0.000213973 0 0.302655 0.000288967 0 0.302655 0.000288967 0 0.338618
0.000376607 0 0.338618 0.000376607 0 0.372186 0.000475171 0 0.372186 0.000475171
0 0.402629 0.000581302 0 0.402629 0.000581302 0 0.429297 0.000690131 0
0.429297 0.000690131 0 0.451728 0.000795833 0 0.451728 0.000795833 0 0.469728
0.000892578 0 0.469728 0.000892578 0 0.483424 0.000975621 0 0.483424 0.000975621
0 0.493247 0.0010422 0 0.493247 0.0010422 0 0.499848 0.00109189 0
0.499848 0.00109189 0 0.503983 0.00112638 0 0.503983 0.00112638 0 0.506384
0.00114868 0 0.506384 0.00114868 0 0.50767 0.00116221 0 0.50767 0.00116221
0 0.508302 0.00117009 0 0.508302 0.00117009 0 0.508583 0.00117466 0
0.508583 0.00117466 0 0.508694 0.00117748 0 0.508694 0.00117748 0 0.508729
0.00117943 0 0.508729 0.00117943 0 0.508734 0.00118095 0 0.508734 0.00118095
0 0.508726 0.00118224 0 0.508726 0.00118224 0 0.508714 0.00118337 0
0.508714 0.00118337 0 0.508698 0.00118436 0 0.508698 0.00118436 0 0.508681
0.00118521 0 0.508681 0.00118521 0 0.508662 0.00118591 0 0.508662 0.00118591
0 0.508642 0.00118645 0 0.508642 0.00118645 0 0.508619 0.00118682 0
0.508619 0.00118682 0 0.508595 0.00118701 0 0.508595 0.00118701 0 0.508568
0.00118701 0 0.508568 0.00118701 0 0.50854 0.00118679 0 0.50854 0.00118679
0 0.508509 0.00118635 0 0.508509 0.00118635 0 0.508476 0.00118567 0
0.508476 0.00118567 0 0.508441 0.00118474 0 0.508441 0.00118474 0 0.508403
0.00118353 0 0.508403 0.00118353 0 0.508362 0.00118202 0 0.508362 0.00118202
0 0.508318 0.00118019 0 0.508318 0.00118019 0 0.508271 0.00117803 0
0.508271 0.00117803 0 0.508221 0.00117551 0 0.508221 0.00117551 0 0.508168
0.00117261 0 0.508168 0.00117261 0 0.508112 0.0011693 0 0.508112 0.0011693
0 0.508052 0.00116555 0 0.508052 0.00116555 0 0.507988 0.00116134 0
0.507988 0.00116134 0 0.50792 0.00115663 0 0.50792 0.00115663 0 0.507849
0.00115138 0 0.507849 0.00115138 0 0.507773 0.00114557 0 0.507773 0.00114557
0 0.507694 0.00113915 0 0.507694 0.00113915 0 0.507611 0.00113208 0
0.507611 0.00113208 0 0.507524 0.0011243 0 0.507524 0.0011243 0 0.507433
0.00111578 0 0.507433 0.00111578 0 0.507339 0.00110645 0 0.507339 0.00110645
0 0.507242 0.00109627 0 0.507242 0.00109627 0 0.507141 0.00108516 0
0.507141 0.00108516 0 0.507038 0.00107307 0 0.507038 0.00107307 0 0.506932
0.00105989 0 0.506932 0.00105989 0 
