# vtk DataFile Version 2.0
outlet
ASCII
DATASET POLYDATA
POINTS 182 float
0.1 0.02 0 0.1 0.0207299 0 0.1 0.0207299 0.001 0.1 0.02
0.001 0.1 0.021488 0 0.1 0.021488 0.001 0.1 0.0222754 0
0.1 0.0222754 0.001 0.1 0.0230932 0 0.1 0.0230932 0.001 0.1
0.0239425 0 0.1 0.0239425 0.001 0.1 0.0248247 0 0.1 0.0248247
0.001 0.1 0.0257409 0 0.1 0.0257409 0.001 0.1 0.0266925 0
0.1 0.0266925 0.001 0.1 0.0276808 0 0.1 0.0276808 0.001 0.1
0.0287073 0 0.1 0.0287073 0.001 0.1 0.0297734 0 0.1 0.0297734
0.001 0.1 0.0308807 0 0.1 0.0308807 0.001 0.1 0.0320307 0
0.1 0.0320307 0.001 0.1 0.0332251 0 0.1 0.0332251 0.001 0.1
0.0344656 0 0.1 0.0344656 0.001 0.1 0.0357541 0 0.1 0.0357541
0.001 0.1 0.0370923 0 0.1 0.0370923 0.001 0.1 0.0384821 0
0.1 0.0384821 0.001 0.1 0.0399257 0 0.1 0.0399257 0.001 0.1
0.0414249 0 0.1 0.0414249 0.001 0.1 0.042982 0 0.1 0.042982
0.001 0.1 0.0445993 0 0.1 0.0445993 0.001 0.1 0.046279 0
0.1 0.046279 0.001 0.1 0.0480236 0 0.1 0.0480236 0.001 0.1
0.0498355 0 0.1 0.0498355 0.001 0.1 0.0517173 0 0.1 0.0517173
0.001 0.1 0.0536719 0 0.1 0.0536719 0.001 0.1 0.0557019 0
0.1 0.0557019 0.001 0.1 0.0578102 0 0.1 0.0578102 0.001 0.1
0.06 0 0.1 0.06 0.001 0.1 0 0 0.1 8.46956e-05
0 0.1 8.46956e-05 0.001 0.1 0 0.001 0.1 0.000172762 0
0.1 0.000172762 0.001 0.1 0.000264333 0 0.1 0.000264333 0.001 0.1
0.000359549 0 0.1 0.000359549 0.001 0.1 0.000458554 0 0.1 0.000458554
0.001 0.1 0.0005615 0 0.1 0.0005615 0.001 0.1 0.000668542 0
0.1 0.000668542 0.001 0.1 0.000779845 0 0.1 0.000779845 0.001 0.1
0.000895577 0 0.1 0.000895577 0.001 0.1 0.00101591 0 0.1 0.00101591
0.001 0.1 0.00114104 0 0.1 0.00114104 0.001 0.1 0.00127115 0
0.1 0.00127115 0.001 0.1 0.00140644 0 0.1 0.00140644 0.001 0.1
0.0015471 0 0.1 0.0015471 0.001 0.1 0.00169337 0 0.1 0.00169337
0.001 0.1 0.00184546 0 0.1 0.00184546 0.001 0.1 0.0020036 0
0.1 0.0020036 0.001 0.1 0.00216804 0 0.1 0.00216804 0.001 0.1
0.00233902 0 0.1 0.00233902 0.001 0.1 0.00251681 0 0.1 0.00251681
0.001 0.1 0.00270167 0 0.1 0.00270167 0.001 0.1 0.00289388 0
0.1 0.00289388 0.001 0.1 0.00309375 0 0.1 0.00309375 0.001 0.1
0.00330157 0 0.1 0.00330157 0.001 0.1 0.00351767 0 0.1 0.00351767
0.001 0.1 0.00374236 0 0.1 0.00374236 0.001 0.1 0.00397599 0
0.1 0.00397599 0.001 0.1 0.00421893 0 0.1 0.00421893 0.001 0.1
0.00447153 0 0.1 0.00447153 0.001 0.1 0.00473419 0 0.1 0.00473419
0.001 0.1 0.0050073 0 0.1 0.0050073 0.001 0.1 0.00529127 0
0.1 0.00529127 0.001 0.1 0.00558655 0 0.1 0.00558655 0.001 0.1
0.00589359 0 0.1 0.00589359 0.001 0.1 0.00621284 0 0.1 0.00621284
0.001 0.1 0.00654479 0 0.1 0.00654479 0.001 0.1 0.00688996 0
0.1 0.00688996 0.001 0.1 0.00724887 0 0.1 0.00724887 0.001 0.1
0.00762206 0 0.1 0.00762206 0.001 0.1 0.0080101 0 0.1 0.0080101
0.001 0.1 0.00841358 0 0.1 0.00841358 0.001 0.1 0.00883312 0
0.1 0.00883312 0.001 0.1 0.00926936 0 0.1 0.00926936 0.001 0.1
0.00972297 0 0.1 0.00972297 0.001 0.1 0.0101946 0 0.1 0.0101946
0.001 0.1 0.010685 0 0.1 0.010685 0.001 0.1 0.011195 0
0.1 0.011195 0.001 0.1 0.0117252 0 0.1 0.0117252 0.001 0.1
0.0122766 0 0.1 0.0122766 0.001 0.1 0.0128499 0 0.1 0.0128499
0.001 0.1 0.013446 0 0.1 0.013446 0.001 0.1 0.0140658 0
0.1 0.0140658 0.001 0.1 0.0147103 0 0.1 0.0147103 0.001 0.1
0.0153804 0 0.1 0.0153804 0.001 0.1 0.0160772 0 0.1 0.0160772
0.001 0.1 0.0168018 0 0.1 0.0168018 0.001 0.1 0.0175551 0
0.1 0.0175551 0.001 0.1 0.0183385 0 0.1 0.0183385 0.001 0.1
0.019153 0 0.1 0.019153 0.001 
POLYGONS 90 450
4 0 1 2 3 4 1 4 5 2 4
4 6 7 5 4 6 8 9 7 4
8 10 11 9 4 10 12 13 11 4
12 14 15 13 4 14 16 17 15 4
16 18 19 17 4 18 20 21 19 4
20 22 23 21 4 22 24 25 23 4
24 26 27 25 4 26 28 29 27 4
28 30 31 29 4 30 32 33 31 4
32 34 35 33 4 34 36 37 35 4
36 38 39 37 4 38 40 41 39 4
40 42 43 41 4 42 44 45 43 4
44 46 47 45 4 46 48 49 47 4
48 50 51 49 4 50 52 53 51 4
52 54 55 53 4 54 56 57 55 4
56 58 59 57 4 58 60 61 59 4
62 63 64 65 4 63 66 67 64 4
66 68 69 67 4 68 70 71 69 4
70 72 73 71 4 72 74 75 73 4
74 76 77 75 4 76 78 79 77 4
78 80 81 79 4 80 82 83 81 4
82 84 85 83 4 84 86 87 85 4
86 88 89 87 4 88 90 91 89 4
90 92 93 91 4 92 94 95 93 4
94 96 97 95 4 96 98 99 97 4
98 100 101 99 4 100 102 103 101 4
102 104 105 103 4 104 106 107 105 4
106 108 109 107 4 108 110 111 109 4
110 112 113 111 4 112 114 115 113 4
114 116 117 115 4 116 118 119 117 4
118 120 121 119 4 120 122 123 121 4
122 124 125 123 4 124 126 127 125 4
126 128 129 127 4 128 130 131 129 4
130 132 133 131 4 132 134 135 133 4
134 136 137 135 4 136 138 139 137 4
138 140 141 139 4 140 142 143 141 4
142 144 145 143 4 144 146 147 145 4
146 148 149 147 4 148 150 151 149 4
150 152 153 151 4 152 154 155 153 4
154 156 157 155 4 156 158 159 157 4
158 160 161 159 4 160 162 163 161 4
162 164 165 163 4 164 166 167 165 4
166 168 169 167 4 168 170 171 169 4
170 172 173 171 4 172 174 175 173 4
174 176 177 175 4 176 178 179 177 4
178 180 181 179 4 180 0 3 181 
CELL_DATA 90
FIELD attributes 3
patchID 1 90 float
2 2 2 2 2 2 2 2 2 2 2
2 2 2 2 2 2 2 2 2 2
2 2 2 2 2 2 2 2 2 2
2 2 2 2 2 2 2 2 2 2
2 2 2 2 2 2 2 2 2 2
2 2 2 2 2 2 2 2 2 2
2 2 2 2 2 2 2 2 2 2
2 2 2 2 2 2 2 2 2 2
2 2 2 2 2 2 2 2 2 
p 1 90 float
0 0 0 0 0 0 0 0 0 0 0
0 0 0 0 0 0 0 0 0 0
0 0 0 0 0 0 0 0 0 0
0 0 0 0 0 0 0 0 0 0
0 0 0 0 0 0 0 0 0 0
0 0 0 0 0 0 0 0 0 0
0 0 0 0 0 0 0 0 0 0
0 0 0 0 0 0 0 0 0 0
0 0 0 0 0 0 0 0 0 
U 3 90 float
0.504497 0.000415635 0 0.504481 0.000422325 0 0.504465 0.00042843 0 0.504448 0.000433858
0 0.50443 0.000438535 0 0.504411 0.000442361 0 0.504392 0.000445244 0
0.504372 0.000447083 0 0.504352 0.000447774 0 0.504331 0.00044721 0 0.504309
0.000445279 0 0.504287 0.00044187 0 0.504265 0.00043687 0 0.504242 0.000430162
0 0.504219 0.000421635 0 0.504196 0.000411176 0 0.504173 0.000398674 0
0.50415 0.000384027 0 0.504128 0.000367133 0 0.504106 0.000347903 0 0.504085
0.000326256 0 0.504064 0.000302121 0 0.504045 0.000275446 0 0.504027 0.000246195
0 0.504011 0.000214352 0 0.503996 0.000179951 0 0.503984 0.000142902 0
0.503975 0.000103865 0 0.503965 6.12204e-05 0 0.503782 1.91746e-05 0 0.0271137
-3.38288e-09 0 0.0818632 -1.26154e-08 0 0.137132 -2.15212e-08 0 0.191722 -1.658e-08
0 0.244341 2.17216e-08 0 0.293703 1.21666e-07 0 0.338634 3.22951e-07 0
0.378187 6.78534e-07 0 0.411744 1.25291e-06 0 0.439082 2.11961e-06 0 0.46038
3.35583e-06 0 0.476185 5.03399e-06 0 0.487304 7.21018e-06 0 0.494689 9.91263e-06
0 0.499296 1.31349e-05 0 0.501984 1.68382e-05 0 0.503443 2.09627e-05 0
0.504176 2.54432e-05 0 0.504516 3.02228e-05 0 0.50466 3.52598e-05 0 0.504716
4.05294e-05 0 0.504736 4.60196e-05 0 0.504741 5.17275e-05 0 0.504743 5.76549e-05
0 0.504743 6.38058e-05 0 0.504742 7.01855e-05 0 0.504741 7.67992e-05 0
0.50474 8.36525e-05 0 0.504739 9.07504e-05 0 0.504737 9.80978e-05 0 0.504736
0.000105699 0 0.504734 0.000113559 0 0.504732 0.00012168 0 0.50473 0.000130066
0 0.504728 0.000138718 0 0.504725 0.000147638 0 0.504722 0.000156825 0
0.504719 0.000166278 0 0.504715 0.000175995 0 0.504711 0.00018597 0 0.504707
0.000196198 0 0.504702 0.000206671 0 0.504697 0.000217378 0 0.504691 0.000228305
0 0.504685 0.000239438 0 0.504679 0.000250755 0 0.504672 0.000262236 0
0.504664 0.000273854 0 0.504655 0.000285577 0 0.504646 0.000297372 0 0.504637
0.000309198 0 0.504626 0.000321011 0 0.504615 0.00033276 0 0.504603 0.00034439
0 0.50459 0.000355837 0 0.504577 0.000367034 0 0.504562 0.000377908 0
0.504547 0.000388367 0 0.504531 0.000398341 0 0.504513 0.000407718 0 
POINT_DATA  182
FIELD attributes 2
p 1 182 float
0 0 0 0 0 0 0 0 0 0 0
0 0 0 0 0 0 0 0 0 0
0 0 0 0 0 0 0 0 0 0
0 0 0 0 0 0 0 0 0 0
0 0 0 0 0 0 0 0 0 0
0 0 0 0 0 0 0 0 0 0
0 0 0 0 0 0 0 0 0 0
0 0 0 0 0 0 0 0 0 0
0 0 0 0 0 0 0 0 0 0
0 0 0 0 0 0 0 0 0 0
0 0 0 0 0 0 0 0 0 0
0 0 0 0 0 0 0 0 0 0
0 0 0 0 0 0 0 0 0 0
0 0 0 0 0 0 0 0 0 0
0 0 0 0 0 0 0 0 0 0
0 0 0 0 0 0 0 0 0 0
0 0 0 0 0 0 0 0 0 0
0 0 0 0 0 0 0 0 0 0
0 
U 3 182 float
0.504505 0.000411789 0 0.504489 0.000418957 0 0.504489 0.000418957 0 0.504505 0.000411789
0 0.504473 0.000425356 0 0.504473 0.000425356 0 0.504456 0.000431124 0
0.504456 0.000431124 0 0.504439 0.000436178 0 0.504439 0.000436178 0 0.504421
0.000440432 0 0.504421 0.000440432 0 0.504402 0.000443791 0 0.504402 0.000443791
0 0.504382 0.000446156 0 0.504382 0.000446156 0 0.504362 0.000447426 0
0.504362 0.000447426 0 0.504341 0.000447495 0 0.504341 0.000447495 0 0.50432
0.000446254 0 0.50432 0.000446254 0 0.504298 0.000443592 0 0.504298 0.000443592
0 0.504276 0.000439396 0 0.504276 0.000439396 0 0.504253 0.000433553 0
0.504253 0.000433553 0 0.504231 0.000425947 0 0.504231 0.000425947 0 0.504208
0.000416466 0 0.504208 0.000416466 0 0.504185 0.000405 0 0.504185 0.000405
0 0.504162 0.000391441 0 0.504162 0.000391441 0 0.504139 0.000375687 0
0.504139 0.000375687 0 0.504117 0.000357643 0 0.504117 0.000357643 0 0.504095
0.000337223 0 0.504095 0.000337223 0 0.504074 0.000314352 0 0.504074 0.000314352
0 0.504055 0.000288968 0 0.504055 0.000288968 0 0.504036 0.000261027 0
0.504036 0.000261027 0 0.504019 0.000230503 0 0.504019 0.000230503 0 0.504004
0.000197404 0 0.504004 0.000197404 0 0.50399 0.000161702 0 0.50399 0.000161702
0 0.503979 0.000123679 0 0.503979 0.000123679 0 0.50397 8.28702e-05 0
0.50397 8.28702e-05 0 0.503875 4.05248e-05 0 0.503875 4.05248e-05 0 0.503782
1.91746e-05 0 0.503782 1.91746e-05 0 0.0271137 -3.38288e-09 0 0.0544845 -7.99849e-09
0 0.0544845 -7.99849e-09 0 0.0271137 -3.38288e-09 0 0.109493 -1.70676e-08 0
0.109493 -1.70676e-08 0 0.164422 -1.90511e-08 0 0.164422 -1.90511e-08 0 0.218027
2.56728e-09 0 0.218027 2.56728e-09 0 0.269017 7.16839e-08 0 0.269017 7.16839e-08
0 0.316164 2.22287e-07 0 0.316164 2.22287e-07 0 0.358406 5.00702e-07 0
0.358406 5.00702e-07 0 0.394961 9.65653e-07 0 0.394961 9.65653e-07 0 0.425409
1.68614e-06 0 0.425409 1.68614e-06 0 0.449728 2.73754e-06 0 0.449728 2.73754e-06
0 0.46828 4.19465e-06 0 0.46828 4.19465e-06 0 0.481742 6.12171e-06 0
0.481742 6.12171e-06 0 0.490995 8.56091e-06 0 0.490995 8.56091e-06 0 0.496991
1.15231e-05 0 0.496991 1.15231e-05 0 0.500639 1.49857e-05 0 0.500639 1.49857e-05
0 0.502713 1.88995e-05 0 0.502713 1.88995e-05 0 0.503809 2.32019e-05 0
0.503809 2.32019e-05 0 0.504346 2.78317e-05 0 0.504346 2.78317e-05 0 0.504588
3.27398e-05 0 0.504588 3.27398e-05 0 0.504688 3.7893e-05 0 0.504688 3.7893e-05
0 0.504726 4.32726e-05 0 0.504726 4.32726e-05 0 0.504739 4.88715e-05 0
0.504739 4.88715e-05 0 0.504742 5.46889e-05 0 0.504742 5.46889e-05 0 0.504743
6.07278e-05 0 0.504743 6.07278e-05 0 0.504742 6.69928e-05 0 0.504742 6.69928e-05
0 0.504741 7.34891e-05 0 0.504741 7.34891e-05 0 0.50474 8.02223e-05 0
0.50474 8.02223e-05 0 0.504739 8.71974e-05 0 0.504739 8.71974e-05 0 0.504738
9.44196e-05 0 0.504738 9.44196e-05 0 0.504737 0.000101894 0 0.504737 0.000101894
0 0.504735 0.000109624 0 0.504735 0.000109624 0 0.504733 0.000117614 0
0.504733 0.000117614 0 0.504731 0.000125867 0 0.504731 0.000125867 0 0.504729
0.000134385 0 0.504729 0.000134385 0 0.504726 0.00014317 0 0.504726 0.00014317
0 0.504723 0.000152222 0 0.504723 0.000152222 0 0.50472 0.000161542 0
0.50472 0.000161542 0 0.504717 0.000171125 0 0.504717 0.000171125 0 0.504713
0.00018097 0 0.504713 0.00018097 0 0.504709 0.000191071 0 0.504709 0.000191071
0 0.504704 0.00020142 0 0.504704 0.00020142 0 0.5047 0.000212008 0
0.5047 0.000212008 0 0.504694 0.000222824 0 0.504694 0.000222824 0 0.504688
0.000233852 0 0.504688 0.000233852 0 0.504682 0.000245076 0 0.504682 0.000245076
0 0.504675 0.000256473 0 0.504675 0.000256473 0 0.504668 0.000268021 0
0.504668 0.000268021 0 0.50466 0.000279689 0 0.50466 0.000279689 0 0.504651
0.000291447 0 0.504651 0.000291447 0 0.504642 0.000303256 0 0.504642 0.000303256
0 0.504632 0.000315073 0 0.504632 0.000315073 0 0.504621 0.000326853 0
0.504621 0.000326853 0 0.504609 0.000338541 0 0.504609 0.000338541 0 0.504597
0.000350078 0 0.504597 0.000350078 0 0.504584 0.000361399 0 0.504584 0.000361399
0 0.50457 0.000372433 0 0.50457 0.000372433 0 0.504555 0.000383099 0
0.504555 0.000383099 0 0.504539 0.000393316 0 0.504539 0.000393316 0 0.504522
0.000402992 0 0.504522 0.000402992 0 
