# vtk DataFile Version 2.0
outlet
ASCII
DATASET POLYDATA
POINTS 182 float
0.1 0.02 0 0.1 0.0207299 0 0.1 0.0207299 0.001 0.1 0.02
0.001 0.1 0.021488 0 0.1 0.021488 0.001 0.1 0.0222754 0
0.1 0.0222754 0.001 0.1 0.0230932 0 0.1 0.0230932 0.001 0.1
0.0239425 0 0.1 0.0239425 0.001 0.1 0.0248247 0 0.1 0.0248247
0.001 0.1 0.0257409 0 0.1 0.0257409 0.001 0.1 0.0266925 0
0.1 0.0266925 0.001 0.1 0.0276808 0 0.1 0.0276808 0.001 0.1
0.0287073 0 0.1 0.0287073 0.001 0.1 0.0297734 0 0.1 0.0297734
0.001 0.1 0.0308807 0 0.1 0.0308807 0.001 0.1 0.0320307 0
0.1 0.0320307 0.001 0.1 0.0332251 0 0.1 0.0332251 0.001 0.1
0.0344656 0 0.1 0.0344656 0.001 0.1 0.0357541 0 0.1 0.0357541
0.001 0.1 0.0370923 0 0.1 0.0370923 0.001 0.1 0.0384821 0
0.1 0.0384821 0.001 0.1 0.0399257 0 0.1 0.0399257 0.001 0.1
0.0414249 0 0.1 0.0414249 0.001 0.1 0.042982 0 0.1 0.042982
0.001 0.1 0.0445993 0 0.1 0.0445993 0.001 0.1 0.046279 0
0.1 0.046279 0.001 0.1 0.0480236 0 0.1 0.0480236 0.001 0.1
0.0498355 0 0.1 0.0498355 0.001 0.1 0.0517173 0 0.1 0.0517173
0.001 0.1 0.0536719 0 0.1 0.0536719 0.001 0.1 0.0557019 0
0.1 0.0557019 0.001 0.1 0.0578102 0 0.1 0.0578102 0.001 0.1
0.06 0 0.1 0.06 0.001 0.1 0 0 0.1 8.46956e-05
0 0.1 8.46956e-05 0.001 0.1 0 0.001 0.1 0.000172762 0
0.1 0.000172762 0.001 0.1 0.000264333 0 0.1 0.000264333 0.001 0.1
0.000359549 0 0.1 0.000359549 0.001 0.1 0.000458554 0 0.1 0.000458554
0.001 0.1 0.0005615 0 0.1 0.0005615 0.001 0.1 0.000668542 0
0.1 0.000668542 0.001 0.1 0.000779845 0 0.1 0.000779845 0.001 0.1
0.000895577 0 0.1 0.000895577 0.001 0.1 0.00101591 0 0.1 0.00101591
0.001 0.1 0.00114104 0 0.1 0.00114104 0.001 0.1 0.00127115 0
0.1 0.00127115 0.001 0.1 0.00140644 0 0.1 0.00140644 0.001 0.1
0.0015471 0 0.1 0.0015471 0.001 0.1 0.00169337 0 0.1 0.00169337
0.001 0.1 0.00184546 0 0.1 0.00184546 0.001 0.1 0.0020036 0
0.1 0.0020036 0.001 0.1 0.00216804 0 0.1 0.00216804 0.001 0.1
0.00233902 0 0.1 0.00233902 0.001 0.1 0.00251681 0 0.1 0.00251681
0.001 0.1 0.00270167 0 0.1 0.00270167 0.001 0.1 0.00289388 0
0.1 0.00289388 0.001 0.1 0.00309375 0 0.1 0.00309375 0.001 0.1
0.00330157 0 0.1 0.00330157 0.001 0.1 0.00351767 0 0.1 0.00351767
0.001 0.1 0.00374236 0 0.1 0.00374236 0.001 0.1 0.00397599 0
0.1 0.00397599 0.001 0.1 0.00421893 0 0.1 0.00421893 0.001 0.1
0.00447153 0 0.1 0.00447153 0.001 0.1 0.00473419 0 0.1 0.00473419
0.001 0.1 0.0050073 0 0.1 0.0050073 0.001 0.1 0.00529127 0
0.1 0.00529127 0.001 0.1 0.00558655 0 0.1 0.00558655 0.001 0.1
0.00589359 0 0.1 0.00589359 0.001 0.1 0.00621284 0 0.1 0.00621284
0.001 0.1 0.00654479 0 0.1 0.00654479 0.001 0.1 0.00688996 0
0.1 0.00688996 0.001 0.1 0.00724887 0 0.1 0.00724887 0.001 0.1
0.00762206 0 0.1 0.00762206 0.001 0.1 0.0080101 0 0.1 0.0080101
0.001 0.1 0.00841358 0 0.1 0.00841358 0.001 0.1 0.00883312 0
0.1 0.00883312 0.001 0.1 0.00926936 0 0.1 0.00926936 0.001 0.1
0.00972297 0 0.1 0.00972297 0.001 0.1 0.0101946 0 0.1 0.0101946
0.001 0.1 0.010685 0 0.1 0.010685 0.001 0.1 0.011195 0
0.1 0.011195 0.001 0.1 0.0117252 0 0.1 0.0117252 0.001 0.1
0.0122766 0 0.1 0.0122766 0.001 0.1 0.0128499 0 0.1 0.0128499
0.001 0.1 0.013446 0 0.1 0.013446 0.001 0.1 0.0140658 0
0.1 0.0140658 0.001 0.1 0.0147103 0 0.1 0.0147103 0.001 0.1
0.0153804 0 0.1 0.0153804 0.001 0.1 0.0160772 0 0.1 0.0160772
0.001 0.1 0.0168018 0 0.1 0.0168018 0.001 0.1 0.0175551 0
0.1 0.0175551 0.001 0.1 0.0183385 0 0.1 0.0183385 0.001 0.1
0.019153 0 0.1 0.019153 0.001 
POLYGONS 90 450
4 0 1 2 3 4 1 4 5 2 4
4 6 7 5 4 6 8 9 7 4
8 10 11 9 4 10 12 13 11 4
12 14 15 13 4 14 16 17 15 4
16 18 19 17 4 18 20 21 19 4
20 22 23 21 4 22 24 25 23 4
24 26 27 25 4 26 28 29 27 4
28 30 31 29 4 30 32 33 31 4
32 34 35 33 4 34 36 37 35 4
36 38 39 37 4 38 40 41 39 4
40 42 43 41 4 42 44 45 43 4
44 46 47 45 4 46 48 49 47 4
48 50 51 49 4 50 52 53 51 4
52 54 55 53 4 54 56 57 55 4
56 58 59 57 4 58 60 61 59 4
62 63 64 65 4 63 66 67 64 4
66 68 69 67 4 68 70 71 69 4
70 72 73 71 4 72 74 75 73 4
74 76 77 75 4 76 78 79 77 4
78 80 81 79 4 80 82 83 81 4
82 84 85 83 4 84 86 87 85 4
86 88 89 87 4 88 90 91 89 4
90 92 93 91 4 92 94 95 93 4
94 96 97 95 4 96 98 99 97 4
98 100 101 99 4 100 102 103 101 4
102 104 105 103 4 104 106 107 105 4
106 108 109 107 4 108 110 111 109 4
110 112 113 111 4 112 114 115 113 4
114 116 117 115 4 116 118 119 117 4
118 120 121 119 4 120 122 123 121 4
122 124 125 123 4 124 126 127 125 4
126 128 129 127 4 128 130 131 129 4
130 132 133 131 4 132 134 135 133 4
134 136 137 135 4 136 138 139 137 4
138 140 141 139 4 140 142 143 141 4
142 144 145 143 4 144 146 147 145 4
146 148 149 147 4 148 150 151 149 4
150 152 153 151 4 152 154 155 153 4
154 156 157 155 4 156 158 159 157 4
158 160 161 159 4 160 162 163 161 4
162 164 165 163 4 164 166 167 165 4
166 168 169 167 4 168 170 171 169 4
170 172 173 171 4 172 174 175 173 4
174 176 177 175 4 176 178 179 177 4
178 180 181 179 4 180 0 3 181 
CELL_DATA 90
FIELD attributes 3
patchID 1 90 float
2 2 2 2 2 2 2 2 2 2 2
2 2 2 2 2 2 2 2 2 2
2 2 2 2 2 2 2 2 2 2
2 2 2 2 2 2 2 2 2 2
2 2 2 2 2 2 2 2 2 2
2 2 2 2 2 2 2 2 2 2
2 2 2 2 2 2 2 2 2 2
2 2 2 2 2 2 2 2 2 2
2 2 2 2 2 2 2 2 2 
p 1 90 float
0 0 0 0 0 0 0 0 0 0 0
0 0 0 0 0 0 0 0 0 0
0 0 0 0 0 0 0 0 0 0
0 0 0 0 0 0 0 0 0 0
0 0 0 0 0 0 0 0 0 0
0 0 0 0 0 0 0 0 0 0
0 0 0 0 0 0 0 0 0 0
0 0 0 0 0 0 0 0 0 0
0 0 0 0 0 0 0 0 0 
U 3 90 float
0.507364 0.00144212 0 0.50726 0.00141579 0 0.507152 0.0013952 0 0.507039 0.00136843
0 0.506921 0.00134235 0 0.506796 0.00131525 0 0.506665 0.00128585 0
0.506527 0.00125543 0 0.506383 0.00122297 0 0.506235 0.00118894 0 0.506088
0.0011524 0 0.505949 0.00111424 0 0.505822 0.00107387 0 0.505708 0.00103175
0 0.505604 0.000987723 0 0.505509 0.000941687 0 0.505423 0.000893591 0
0.505343 0.000843358 0 0.50527 0.000790855 0 0.505202 0.000735954 0 0.505139
0.000678622 0 0.505081 0.00061869 0 0.505029 0.000556061 0 0.504982 0.000490678
0 0.50494 0.000422357 0 0.504903 0.000351094 0 0.504873 0.000276798 0
0.504849 0.000199818 0 0.504831 0.000117323 0 0.504627 3.69073e-05 0 0.0164278
2.05581e-06 0 0.0498835 1.57427e-05 0 0.0845632 4.79815e-05 0 0.120403 9.76083e-05
0 0.157258 0.000165675 0 0.194887 0.000253345 0 0.232927 0.000361087 0
0.270877 0.000488424 0 0.3081 0.000633607 0 0.343834 0.000793274 0 0.377241
0.000962254 0 0.407485 0.00113369 0 0.433841 0.00129959 0 0.455813 0.00145185
0 0.473222 0.00158354 0 0.486253 0.00169014 0 0.495411 0.00177031 0
0.501419 0.00182581 0 0.505079 0.0018607 0 0.507138 0.00188015 0 0.508202
0.00188913 0 0.508704 0.00189174 0 0.508919 0.00189078 0 0.509 0.00188799
0 0.509024 0.00188428 0 0.509026 0.00188005 0 0.50902 0.00187549 0
0.50901 0.00187064 0 0.508998 0.00186552 0 0.508984 0.00186012 0 0.508969
0.00185442 0 0.508953 0.00184842 0 0.508935 0.0018421 0 0.508916 0.00183544
0 0.508895 0.00182842 0 0.508872 0.00182104 0 0.508848 0.00181326 0
0.508821 0.00180507 0 0.508793 0.00179645 0 0.508763 0.00178737 0 0.508731
0.00177782 0 0.508697 0.00176776 0 0.50866 0.00175718 0 0.508621 0.00174605
0 0.508579 0.00173433 0 0.508535 0.001722 0 0.508487 0.00170903 0
0.508436 0.00169539 0 0.508382 0.00168101 0 0.508323 0.00166592 0 0.508261
0.00165002 0 0.508194 0.00163328 0 0.508122 0.00161579 0 0.508046 0.00159713
0 0.507965 0.0015776 0 0.507878 0.00155816 0 0.507786 0.0015341 0
0.507688 0.00151523 0 0.507584 0.00148831 0 0.507473 0.00146407 0 
POINT_DATA  182
FIELD attributes 2
p 1 182 float
0 0 0 0 0 0 0 0 0 0 0
0 0 0 0 0 0 0 0 0 0
0 0 0 0 0 0 0 0 0 0
0 0 0 0 0 0 0 0 0 0
0 0 0 0 0 0 0 0 0 0
0 0 0 0 0 0 0 0 0 0
0 0 0 0 0 0 0 0 0 0
0 0 0 0 0 0 0 0 0 0
0 0 0 0 0 0 0 0 0 0
0 0 0 0 0 0 0 0 0 0
0 0 0 0 0 0 0 0 0 0
0 0 0 0 0 0 0 0 0 0
0 0 0 0 0 0 0 0 0 0
0 0 0 0 0 0 0 0 0 0
0 0 0 0 0 0 0 0 0 0
0 0 0 0 0 0 0 0 0 0
0 0 0 0 0 0 0 0 0 0
0 0 0 0 0 0 0 0 0 0
0 
U 3 182 float
0.507417 0.00145278 0 0.507312 0.00142904 0 0.507312 0.00142904 0 0.507417 0.00145278
0 0.507206 0.00140557 0 0.507206 0.00140557 0 0.507096 0.00138192 0
0.507096 0.00138192 0 0.50698 0.00135549 0 0.50698 0.00135549 0 0.506859
0.00132891 0 0.506859 0.00132891 0 0.506731 0.00130068 0 0.506731 0.00130068
0 0.506597 0.00127077 0 0.506597 0.00127077 0 0.506455 0.00123935 0
0.506455 0.00123935 0 0.506309 0.00120612 0 0.506309 0.00120612 0 0.506162
0.00117085 0 0.506162 0.00117085 0 0.506019 0.00113352 0 0.506019 0.00113352
0 0.505886 0.00109427 0 0.505886 0.00109427 0 0.505766 0.00105304 0
0.505766 0.00105304 0 0.505656 0.00100999 0 0.505656 0.00100999 0 0.505557
0.000964973 0 0.505557 0.000964973 0 0.505467 0.000917927 0 0.505467 0.000917927
0 0.505383 0.000868784 0 0.505383 0.000868784 0 0.505307 0.000817438 0
0.505307 0.000817438 0 0.505236 0.00076376 0 0.505236 0.00076376 0 0.505171
0.000707668 0 0.505171 0.000707668 0 0.505111 0.000649062 0 0.505111 0.000649062
0 0.505056 0.000587809 0 0.505056 0.000587809 0 0.505006 0.000523831 0
0.505006 0.000523831 0 0.504961 0.000457009 0 0.504961 0.000457009 0 0.504922
0.000387247 0 0.504922 0.000387247 0 0.504888 0.000314499 0 0.504888 0.000314499
0 0.504861 0.000238891 0 0.504861 0.000238891 0 0.50484 0.000159204 0
0.50484 0.000159204 0 0.50473 7.77413e-05 0 0.50473 7.77413e-05 0 0.504627
3.69073e-05 0 0.504627 3.69073e-05 0 0.0164278 2.05581e-06 0 0.0331532 8.89825e-06
0 0.0331532 8.89825e-06 0 0.0164278 2.05581e-06 0 0.0672206 3.18596e-05 0
0.0672206 3.18596e-05 0 0.10248 7.27907e-05 0 0.10248 7.27907e-05 0 0.138827
0.000131636 0 0.138827 0.000131636 0 0.176069 0.000209501 0 0.176069 0.000209501
0 0.213903 0.000307205 0 0.213903 0.000307205 0 0.251898 0.000424741 0
0.251898 0.000424741 0 0.289484 0.000560997 0 0.289484 0.000560997 0 0.325962
0.000713419 0 0.325962 0.000713419 0 0.360533 0.000877739 0 0.360533 0.000877739
0 0.392358 0.00104795 0 0.392358 0.00104795 0 0.420659 0.00121661 0
0.420659 0.00121661 0 0.444823 0.00137569 0 0.444823 0.00137569 0 0.464514
0.00151767 0 0.464514 0.00151767 0 0.479735 0.00163681 0 0.479735 0.00163681
0 0.49083 0.0017302 0 0.49083 0.0017302 0 0.498413 0.00179804 0
0.498413 0.00179804 0 0.503248 0.00184325 0 0.503248 0.00184325 0 0.506107
0.00187042 0 0.506107 0.00187042 0 0.507669 0.00188464 0 0.507669 0.00188464
0 0.508453 0.00189043 0 0.508453 0.00189043 0 0.508812 0.00189126 0
0.508812 0.00189126 0 0.508959 0.00188939 0 0.508959 0.00188939 0 0.509012
0.00188614 0 0.509012 0.00188614 0 0.509025 0.00188216 0 0.509025 0.00188216
0 0.509023 0.00187777 0 0.509023 0.00187777 0 0.509015 0.00187307 0
0.509015 0.00187307 0 0.509004 0.00186808 0 0.509004 0.00186808 0 0.508991
0.00186282 0 0.508991 0.00186282 0 0.508977 0.00185727 0 0.508977 0.00185727
0 0.508961 0.00185142 0 0.508961 0.00185142 0 0.508944 0.00184526 0
0.508944 0.00184526 0 0.508925 0.00183877 0 0.508925 0.00183877 0 0.508905
0.00183194 0 0.508905 0.00183194 0 0.508883 0.00182474 0 0.508883 0.00182474
0 0.50886 0.00181716 0 0.50886 0.00181716 0 0.508835 0.00180918 0
0.508835 0.00180918 0 0.508807 0.00180077 0 0.508807 0.00180077 0 0.508778
0.00179192 0 0.508778 0.00179192 0 0.508747 0.00178261 0 0.508747 0.00178261
0 0.508714 0.00177281 0 0.508714 0.00177281 0 0.508679 0.00176249 0
0.508679 0.00176249 0 0.508641 0.00175163 0 0.508641 0.00175163 0 0.5086
0.00174021 0 0.5086 0.00174021 0 0.508557 0.00172819 0 0.508557 0.00172819
0 0.508511 0.00171554 0 0.508511 0.00171554 0 0.508462 0.00170224 0
0.508462 0.00170224 0 0.508409 0.00168823 0 0.508409 0.00168823 0 0.508353
0.0016735 0 0.508353 0.0016735 0 0.508292 0.00165801 0 0.508292 0.00165801
0 0.508228 0.0016417 0 0.508228 0.0016417 0 0.508158 0.00162459 0
0.508158 0.00162459 0 0.508084 0.00160652 0 0.508084 0.00160652 0 0.508006
0.00158743 0 0.508006 0.00158743 0 0.507922 0.00156795 0 0.507922 0.00156795
0 0.507832 0.00154621 0 0.507832 0.00154621 0 0.507737 0.00152473 0
0.507737 0.00152473 0 0.507636 0.00150187 0 0.507636 0.00150187 0 0.507529
0.00147628 0 0.507529 0.00147628 0 
