# vtk DataFile Version 2.0
outlet
ASCII
DATASET POLYDATA
POINTS 182 float
0.1 0.02 0 0.1 0.0207299 0 0.1 0.0207299 0.001 0.1 0.02
0.001 0.1 0.021488 0 0.1 0.021488 0.001 0.1 0.0222754 0
0.1 0.0222754 0.001 0.1 0.0230932 0 0.1 0.0230932 0.001 0.1
0.0239425 0 0.1 0.0239425 0.001 0.1 0.0248247 0 0.1 0.0248247
0.001 0.1 0.0257409 0 0.1 0.0257409 0.001 0.1 0.0266925 0
0.1 0.0266925 0.001 0.1 0.0276808 0 0.1 0.0276808 0.001 0.1
0.0287073 0 0.1 0.0287073 0.001 0.1 0.0297734 0 0.1 0.0297734
0.001 0.1 0.0308807 0 0.1 0.0308807 0.001 0.1 0.0320307 0
0.1 0.0320307 0.001 0.1 0.0332251 0 0.1 0.0332251 0.001 0.1
0.0344656 0 0.1 0.0344656 0.001 0.1 0.0357541 0 0.1 0.0357541
0.001 0.1 0.0370923 0 0.1 0.0370923 0.001 0.1 0.0384821 0
0.1 0.0384821 0.001 0.1 0.0399257 0 0.1 0.0399257 0.001 0.1
0.0414249 0 0.1 0.0414249 0.001 0.1 0.042982 0 0.1 0.042982
0.001 0.1 0.0445993 0 0.1 0.0445993 0.001 0.1 0.046279 0
0.1 0.046279 0.001 0.1 0.0480236 0 0.1 0.0480236 0.001 0.1
0.0498355 0 0.1 0.0498355 0.001 0.1 0.0517173 0 0.1 0.0517173
0.001 0.1 0.0536719 0 0.1 0.0536719 0.001 0.1 0.0557019 0
0.1 0.0557019 0.001 0.1 0.0578102 0 0.1 0.0578102 0.001 0.1
0.06 0 0.1 0.06 0.001 0.1 0 0 0.1 8.46956e-05
0 0.1 8.46956e-05 0.001 0.1 0 0.001 0.1 0.000172762 0
0.1 0.000172762 0.001 0.1 0.000264333 0 0.1 0.000264333 0.001 0.1
0.000359549 0 0.1 0.000359549 0.001 0.1 0.000458554 0 0.1 0.000458554
0.001 0.1 0.0005615 0 0.1 0.0005615 0.001 0.1 0.000668542 0
0.1 0.000668542 0.001 0.1 0.000779845 0 0.1 0.000779845 0.001 0.1
0.000895577 0 0.1 0.000895577 0.001 0.1 0.00101591 0 0.1 0.00101591
0.001 0.1 0.00114104 0 0.1 0.00114104 0.001 0.1 0.00127115 0
0.1 0.00127115 0.001 0.1 0.00140644 0 0.1 0.00140644 0.001 0.1
0.0015471 0 0.1 0.0015471 0.001 0.1 0.00169337 0 0.1 0.00169337
0.001 0.1 0.00184546 0 0.1 0.00184546 0.001 0.1 0.0020036 0
0.1 0.0020036 0.001 0.1 0.00216804 0 0.1 0.00216804 0.001 0.1
0.00233902 0 0.1 0.00233902 0.001 0.1 0.00251681 0 0.1 0.00251681
0.001 0.1 0.00270167 0 0.1 0.00270167 0.001 0.1 0.00289388 0
0.1 0.00289388 0.001 0.1 0.00309375 0 0.1 0.00309375 0.001 0.1
0.00330157 0 0.1 0.00330157 0.001 0.1 0.00351767 0 0.1 0.00351767
0.001 0.1 0.00374236 0 0.1 0.00374236 0.001 0.1 0.00397599 0
0.1 0.00397599 0.001 0.1 0.00421893 0 0.1 0.00421893 0.001 0.1
0.00447153 0 0.1 0.00447153 0.001 0.1 0.00473419 0 0.1 0.00473419
0.001 0.1 0.0050073 0 0.1 0.0050073 0.001 0.1 0.00529127 0
0.1 0.00529127 0.001 0.1 0.00558655 0 0.1 0.00558655 0.001 0.1
0.00589359 0 0.1 0.00589359 0.001 0.1 0.00621284 0 0.1 0.00621284
0.001 0.1 0.00654479 0 0.1 0.00654479 0.001 0.1 0.00688996 0
0.1 0.00688996 0.001 0.1 0.00724887 0 0.1 0.00724887 0.001 0.1
0.00762206 0 0.1 0.00762206 0.001 0.1 0.0080101 0 0.1 0.0080101
0.001 0.1 0.00841358 0 0.1 0.00841358 0.001 0.1 0.00883312 0
0.1 0.00883312 0.001 0.1 0.00926936 0 0.1 0.00926936 0.001 0.1
0.00972297 0 0.1 0.00972297 0.001 0.1 0.0101946 0 0.1 0.0101946
0.001 0.1 0.010685 0 0.1 0.010685 0.001 0.1 0.011195 0
0.1 0.011195 0.001 0.1 0.0117252 0 0.1 0.0117252 0.001 0.1
0.0122766 0 0.1 0.0122766 0.001 0.1 0.0128499 0 0.1 0.0128499
0.001 0.1 0.013446 0 0.1 0.013446 0.001 0.1 0.0140658 0
0.1 0.0140658 0.001 0.1 0.0147103 0 0.1 0.0147103 0.001 0.1
0.0153804 0 0.1 0.0153804 0.001 0.1 0.0160772 0 0.1 0.0160772
0.001 0.1 0.0168018 0 0.1 0.0168018 0.001 0.1 0.0175551 0
0.1 0.0175551 0.001 0.1 0.0183385 0 0.1 0.0183385 0.001 0.1
0.019153 0 0.1 0.019153 0.001 
POLYGONS 90 450
4 0 1 2 3 4 1 4 5 2 4
4 6 7 5 4 6 8 9 7 4
8 10 11 9 4 10 12 13 11 4
12 14 15 13 4 14 16 17 15 4
16 18 19 17 4 18 20 21 19 4
20 22 23 21 4 22 24 25 23 4
24 26 27 25 4 26 28 29 27 4
28 30 31 29 4 30 32 33 31 4
32 34 35 33 4 34 36 37 35 4
36 38 39 37 4 38 40 41 39 4
40 42 43 41 4 42 44 45 43 4
44 46 47 45 4 46 48 49 47 4
48 50 51 49 4 50 52 53 51 4
52 54 55 53 4 54 56 57 55 4
56 58 59 57 4 58 60 61 59 4
62 63 64 65 4 63 66 67 64 4
66 68 69 67 4 68 70 71 69 4
70 72 73 71 4 72 74 75 73 4
74 76 77 75 4 76 78 79 77 4
78 80 81 79 4 80 82 83 81 4
82 84 85 83 4 84 86 87 85 4
86 88 89 87 4 88 90 91 89 4
90 92 93 91 4 92 94 95 93 4
94 96 97 95 4 96 98 99 97 4
98 100 101 99 4 100 102 103 101 4
102 104 105 103 4 104 106 107 105 4
106 108 109 107 4 108 110 111 109 4
110 112 113 111 4 112 114 115 113 4
114 116 117 115 4 116 118 119 117 4
118 120 121 119 4 120 122 123 121 4
122 124 125 123 4 124 126 127 125 4
126 128 129 127 4 128 130 131 129 4
130 132 133 131 4 132 134 135 133 4
134 136 137 135 4 136 138 139 137 4
138 140 141 139 4 140 142 143 141 4
142 144 145 143 4 144 146 147 145 4
146 148 149 147 4 148 150 151 149 4
150 152 153 151 4 152 154 155 153 4
154 156 157 155 4 156 158 159 157 4
158 160 161 159 4 160 162 163 161 4
162 164 165 163 4 164 166 167 165 4
166 168 169 167 4 168 170 171 169 4
170 172 173 171 4 172 174 175 173 4
174 176 177 175 4 176 178 179 177 4
178 180 181 179 4 180 0 3 181 
CELL_DATA 90
FIELD attributes 3
patchID 1 90 float
2 2 2 2 2 2 2 2 2 2 2
2 2 2 2 2 2 2 2 2 2
2 2 2 2 2 2 2 2 2 2
2 2 2 2 2 2 2 2 2 2
2 2 2 2 2 2 2 2 2 2
2 2 2 2 2 2 2 2 2 2
2 2 2 2 2 2 2 2 2 2
2 2 2 2 2 2 2 2 2 2
2 2 2 2 2 2 2 2 2 
p 1 90 float
0 0 0 0 0 0 0 0 0 0 0
0 0 0 0 0 0 0 0 0 0
0 0 0 0 0 0 0 0 0 0
0 0 0 0 0 0 0 0 0 0
0 0 0 0 0 0 0 0 0 0
0 0 0 0 0 0 0 0 0 0
0 0 0 0 0 0 0 0 0 0
0 0 0 0 0 0 0 0 0 0
0 0 0 0 0 0 0 0 0 
U 3 90 float
0.50639 0.000728789 0 0.506302 0.000722427 0 0.506214 0.000715347 0 0.506124 0.000707499
0 0.506034 0.000698794 0 0.505943 0.000689182 0 0.505853 0.00067862 0
0.505762 0.000667047 0 0.505672 0.000654391 0 0.505582 0.000640585 0 0.505493
0.00062557 0 0.505406 0.000609278 0 0.50532 0.000591634 0 0.505235 0.000572564
0 0.505153 0.000551999 0 0.505072 0.000529865 0 0.504995 0.000506089 0
0.50492 0.000480594 0 0.504848 0.000453309 0 0.50478 0.000424164 0 0.504715
0.000393092 0 0.504655 0.000360028 0 0.504599 0.000324915 0 0.504548 0.0002877
0 0.504503 0.000248334 0 0.504463 0.000206767 0 0.50443 0.000162997 0
0.504404 0.000117633 0 0.504383 6.80335e-05 0 0.504174 2.06609e-05 0 0.0193023
5.34243e-07 0 0.0585468 3.70171e-06 0 0.0988677 1.0936e-05 0 0.13989 2.21254e-05
0 0.18117 3.79607e-05 0 0.2222 5.94712e-05 0 0.262413 8.78243e-05 0
0.301192 0.000124148 0 0.337885 0.000169222 0 0.371827 0.000223082 0 0.402385
0.000284641 0 0.42902 0.000351498 0 0.451361 0.000420059 0 0.469278 0.000486071
0 0.482929 0.00054546 0 0.492745 0.000595207 0 0.499364 0.000633934 0
0.503526 0.000661986 0 0.505952 0.00068102 0 0.507256 0.000693324 0 0.507898
0.00070117 0 0.508184 0.000706383 0 0.508297 0.000710211 0 0.508334 0.000713389
0 0.508339 0.000716292 0 0.508332 0.000719089 0 0.50832 0.000721845 0
0.508305 0.000724579 0 0.508289 0.000727296 0 0.508271 0.000729991 0 0.508251
0.00073266 0 0.508229 0.000735296 0 0.508205 0.000737891 0 0.508179 0.000740439
0 0.508151 0.000742929 0 0.508121 0.000745353 0 0.508089 0.000747699 0
0.508054 0.000749956 0 0.508016 0.000752111 0 0.507976 0.000754151 0 0.507933
0.000756062 0 0.507887 0.000757827 0 0.507837 0.000759429 0 0.507785 0.00076085
0 0.507729 0.000762069 0 0.50767 0.000763065 0 0.507607 0.000763813 0
0.507541 0.000764286 0 0.507471 0.000764455 0 0.507397 0.00076429 0 0.50732
0.000763752 0 0.507239 0.000762803 0 0.507155 0.000761407 0 0.507068 0.000759521
0 0.506977 0.000757093 0 0.506884 0.000754067 0 0.506787 0.000750401 0
0.506689 0.000746061 0 0.506588 0.000740947 0 0.506485 0.000734973 0 
POINT_DATA  182
FIELD attributes 2
p 1 182 float
0 0 0 0 0 0 0 0 0 0 0
0 0 0 0 0 0 0 0 0 0
0 0 0 0 0 0 0 0 0 0
0 0 0 0 0 0 0 0 0 0
0 0 0 0 0 0 0 0 0 0
0 0 0 0 0 0 0 0 0 0
0 0 0 0 0 0 0 0 0 0
0 0 0 0 0 0 0 0 0 0
0 0 0 0 0 0 0 0 0 0
0 0 0 0 0 0 0 0 0 0
0 0 0 0 0 0 0 0 0 0
0 0 0 0 0 0 0 0 0 0
0 0 0 0 0 0 0 0 0 0
0 0 0 0 0 0 0 0 0 0
0 0 0 0 0 0 0 0 0 0
0 0 0 0 0 0 0 0 0 0
0 0 0 0 0 0 0 0 0 0
0 0 0 0 0 0 0 0 0 0
0 
U 3 182 float
0.506436 0.000731793 0 0.506347 0.00072563 0 0.506347 0.00072563 0 0.506436 0.000731793
0 0.506258 0.000718912 0 0.506258 0.000718912 0 0.506169 0.000711452 0
0.506169 0.000711452 0 0.506079 0.00070318 0 0.506079 0.00070318 0 0.505989
0.000694027 0 0.505989 0.000694027 0 0.505898 0.000683945 0 0.505898 0.000683945
0 0.505808 0.000672885 0 0.505808 0.000672885 0 0.505717 0.000660777 0
0.505717 0.000660777 0 0.505627 0.000647554 0 0.505627 0.000647554 0 0.505538
0.000633152 0 0.505538 0.000633152 0 0.50545 0.000617508 0 0.50545 0.000617508
0 0.505363 0.00060055 0 0.505363 0.00060055 0 0.505278 0.000582204 0
0.505278 0.000582204 0 0.505194 0.000562398 0 0.505194 0.000562398 0 0.505113
0.000541061 0 0.505113 0.000541061 0 0.505034 0.00051812 0 0.505034 0.00051812
0 0.504958 0.000493499 0 0.504958 0.000493499 0 0.504884 0.000467124 0
0.504884 0.000467124 0 0.504814 0.000438925 0 0.504814 0.000438925 0 0.504748
0.000408834 0 0.504748 0.000408834 0 0.504686 0.000376784 0 0.504686 0.000376784
0 0.504627 0.000342715 0 0.504627 0.000342715 0 0.504574 0.00030657 0
0.504574 0.00030657 0 0.504526 0.0002683 0 0.504526 0.0002683 0 0.504483
0.000227855 0 0.504483 0.000227855 0 0.504447 0.000185208 0 0.504447 0.000185208
0 0.504417 0.000140658 0 0.504417 0.000140658 0 0.504394 9.32142e-05 0
0.504394 9.32142e-05 0 0.50428 4.47159e-05 0 0.50428 4.47159e-05 0 0.504174
2.06609e-05 0 0.504174 2.06609e-05 0 0.0193023 5.34243e-07 0 0.0389217 2.11775e-06
0 0.0389217 2.11775e-06 0 0.0193023 5.34243e-07 0 0.0787041 7.3183e-06 0
0.0787041 7.3183e-06 0 0.119375 1.65297e-05 0 0.119375 1.65297e-05 0 0.160526
3.00416e-05 0 0.160526 3.00416e-05 0 0.201681 4.87138e-05 0 0.201681 4.87138e-05
0 0.242302 7.36447e-05 0 0.242302 7.36447e-05 0 0.281798 0.000105982 0
0.281798 0.000105982 0 0.319534 0.000146679 0 0.319534 0.000146679 0 0.354851
0.000196145 0 0.354851 0.000196145 0 0.387102 0.000253852 0 0.387102 0.000253852
0 0.415699 0.000318059 0 0.415699 0.000318059 0 0.440187 0.000385767 0
0.440187 0.000385767 0 0.460316 0.000453053 0 0.460316 0.000453053 0 0.476101
0.000515754 0 0.476101 0.000515754 0 0.487835 0.000570323 0 0.487835 0.000570323
0 0.496053 0.000614562 0 0.496053 0.000614562 0 0.501444 0.000647953 0
0.501444 0.000647953 0 0.504739 0.000671498 0 0.504739 0.000671498 0 0.506604
0.000687169 0 0.506604 0.000687169 0 0.507577 0.000697245 0 0.507577 0.000697245
0 0.508041 0.000703775 0 0.508041 0.000703775 0 0.508241 0.000708296 0
0.508241 0.000708296 0 0.508316 0.000711799 0 0.508316 0.000711799 0 0.508336
0.000714839 0 0.508336 0.000714839 0 0.508336 0.000717689 0 0.508336 0.000717689
0 0.508326 0.000720465 0 0.508326 0.000720465 0 0.508313 0.00072321 0
0.508313 0.00072321 0 0.508297 0.000725936 0 0.508297 0.000725936 0 0.50828
0.000728642 0 0.50828 0.000728642 0 0.508261 0.000731324 0 0.508261 0.000731324
0 0.50824 0.000733976 0 0.50824 0.000733976 0 0.508217 0.000736592 0
0.508217 0.000736592 0 0.508192 0.000739163 0 0.508192 0.000739163 0 0.508165
0.000741682 0 0.508165 0.000741682 0 0.508136 0.000744139 0 0.508136 0.000744139
0 0.508105 0.000746524 0 0.508105 0.000746524 0 0.508071 0.000748825 0
0.508071 0.000748825 0 0.508035 0.000751031 0 0.508035 0.000751031 0 0.507996
0.000753129 0 0.507996 0.000753129 0 0.507955 0.000755104 0 0.507955 0.000755104
0 0.50791 0.000756942 0 0.50791 0.000756942 0 0.507862 0.000758626 0
0.507862 0.000758626 0 0.507811 0.000760137 0 0.507811 0.000760137 0 0.507757
0.000761458 0 0.507757 0.000761458 0 0.507699 0.000762566 0 0.507699 0.000762566
0 0.507638 0.000763438 0 0.507638 0.000763438 0 0.507574 0.000764048 0
0.507574 0.000764048 0 0.507506 0.00076437 0 0.507506 0.00076437 0 0.507434
0.000764373 0 0.507434 0.000764373 0 0.507359 0.000764022 0 0.507359 0.000764022
0 0.50728 0.00076328 0 0.50728 0.00076328 0 0.507197 0.000762109 0
0.507197 0.000762109 0 0.507112 0.00076047 0 0.507112 0.00076047 0 0.507023
0.000758315 0 0.507023 0.000758315 0 0.506931 0.00075559 0 0.506931 0.00075559
0 0.506836 0.000752246 0 0.506836 0.000752246 0 0.506738 0.000748247 0
0.506738 0.000748247 0 0.506639 0.000743523 0 0.506639 0.000743523 0 0.506537
0.000737984 0 0.506537 0.000737984 0 
