/*--------------------------------*- C++ -*----------------------------------*\
| =========                 |                                                 |
| \\      /  F ield         | OpenFOAM: The Open Source CFD Toolbox           |
|  \\    /   O peration     | Version:  5.x                                   |
|   \\  /    A nd           | Web:      www.OpenFOAM.org                      |
|    \\/     M anipulation  |                                                 |
\*---------------------------------------------------------------------------*/
FoamFile
{
    version     2.0;
    format      ascii;
    class       volScalarField;
    location    "0.6";
    object      p;
}
// * * * * * * * * * * * * * * * * * * * * * * * * * * * * * * * * * * * * * //

dimensions      [0 2 -2 0 0 0 0];

internalField   nonuniform List<scalar> 
21600
(
0.015308496
0.010065364
0.0046405459
0.0012527271
0.00011362061
0.00024809849
0.00065871082
0.00095595154
0.0011030732
0.0011613845
0.0011840735
0.0011965081
0.0012063996
0.0012146633
0.0012208362
0.0012247236
0.0012265182
0.0012265814
0.0012252736
0.0012228891
0.0012196474
0.0012157101
0.0012111972
0.0012062014
0.001200796
0.0011950416
0.0011889878
0.0011826771
0.0011761446
0.0011694208
0.0011625306
0.0011554962
0.0011483356
0.0011410651
0.0011336978
0.0011262459
0.001118719
0.0011111265
0.0011034756
0.0010957734
0.0010880254
0.0010802373
0.0010724132
0.0010645576
0.0010566737
0.0010487651
0.0010408343
0.0010328842
0.0010249165
0.0010169337
0.0010089372
0.0010009291
0.00099291032
0.00098488272
0.00097684699
0.00096880457
0.00096075601
0.00095270256
0.00094464467
0.00093658343
0.00092851911
0.00092045262
0.00091238414
0.00090431445
0.00089624377
0.00088817277
0.0008801016
0.00087203077
0.00086396039
0.00085589092
0.00084782252
0.00083975558
0.00083169025
0.00082362675
0.00081556528
0.000807506
0.00079944922
0.00079139498
0.00078334364
0.00077529506
0.00076724973
0.00075920743
0.0007511688
0.00074313342
0.00073510206
0.00072707411
0.00071905059
0.00071103072
0.00070301569
0.00069500442
0.00068699839
0.0006789963
0.00067099996
0.00066300771
0.00065502167
0.00064703986
0.00063906483
0.0006310942
0.00062313094
0.00061517218
0.00060722142
0.00059927533
0.00059133803
0.00058340549
0.00057548251
0.00056756449
0.00055965683
0.00055175433
0.0005438632
0.00053597726
0.00052810383
0.00052023574
0.00051238132
0.0005045324
0.00049669845
0.0004888702
0.00048105834
0.00047325235
0.00046546434
0.00045768234
0.00044992012
0.00044216402
0.00043442966
0.00042670157
0.00041899738
0.00041129958
0.00040362806
0.00039596307
0.00038832696
0.0003806975
0.00037309978
0.00036550885
0.00035795278
0.0003504036
0.00034289273
0.00033538883
0.000327927
0.00032047222
0.00031306361
0.00030566209
0.00029831126
0.0002909675
0.00028367935
0.00027639822
0.00026917812
0.00026196489
0.00025481859
0.00024767896
0.00024061273
0.00023355284
0.00022657342
0.00021959989
0.00021271457
0.00020583453
0.00019905118
0.00019227232
0.00018559942
0.00017892999
0.00017237666
0.00016582554
0.00015940163
0.00015297835
0.00014669446
0.00014040926
0.00013427683
0.00012814069
0.00012217202
0.00011619677
0.00011040515
0.00010460344
9.9003203e-05
9.338868e-05
8.7995308e-05
8.2582622e-05
7.7412896e-05
7.221784e-05
6.7289971e-05
6.2329583e-05
5.7663423e-05
5.2956135e-05
4.8573377e-05
4.413921e-05
4.0063707e-05
3.5924444e-05
3.218261e-05
2.8362086e-05
2.4983387e-05
2.1507808e-05
1.8525515e-05
1.5423817e-05
1.2876094e-05
1.0180364e-05
8.1119925e-06
5.8577424e-06
4.3232451e-06
2.5487623e-06
1.6196162e-06
3.5994871e-07
1.5288598e-07
-6.1725306e-07
0.014061282
0.0098711231
0.0047762526
0.0014562702
0.0002697643
0.0003449897
0.00072015187
0.00099613084
0.001130913
0.0011825939
0.0012016402
0.0012117285
0.0012198162
0.0012265848
0.0012315043
0.0012343405
0.0012352483
0.0012345561
0.001232598
0.0012296481
0.0012259108
0.001221536
0.0012166344
0.0012112915
0.0012055746
0.0011995393
0.0011932312
0.0011866893
0.001179946
0.0011730291
0.0011659618
0.0011587643
0.0011514531
0.0011440432
0.0011365467
0.0011289746
0.0011213359
0.0011136389
0.0011058902
0.0010980965
0.0010902626
0.0010823937
0.0010744935
0.0010665663
0.0010586147
0.0010506422
0.0010426509
0.0010346434
0.0010266213
0.0010185869
0.0010105413
0.0010024864
0.00099442318
0.00098635312
0.0009782769
0.00097019577
0.00096211024
0.0009540214
0.00094592965
0.00093783594
0.00092974051
0.00092164414
0.00091354699
0.00090544974
0.00089735258
0.00088925608
0.00088116039
0.00087306593
0.00086497279
0.00085688134
0.00084879177
0.00084070437
0.0008326193
0.00082453671
0.00081645681
0.00080837967
0.00080030564
0.00079223468
0.00078416717
0.00077610289
0.00076804238
0.00075998532
0.00075193242
0.00074388315
0.00073583834
0.00072779729
0.00071976109
0.00071172884
0.00070370183
0.00069567886
0.00068766149
0.00067964833
0.00067164125
0.0006636385
0.00065564228
0.00064765048
0.00063966578
0.00063168567
0.00062371321
0.00061574543
0.00060778593
0.00059983123
0.00059188559
0.00058394484
0.0005760139
0.00056808805
0.00056017279
0.00055226279
0.00054436441
0.00053647128
0.00052859091
0.00052071594
0.00051285486
0.00050499934
0.00049715901
0.00048932442
0.00048150643
0.00047369434
0.00046590045
0.00045811258
0.00045034469
0.00044258294
0.00043484313
0.00042710959
0.00041940015
0.00041169709
0.0004040205
0.00039635042
0.00038870942
0.00038107505
0.0003734726
0.00036587691
0.00035831626
0.00035076248
0.00034324717
0.00033573881
0.00032827268
0.00032081357
0.00031340079
0.00030599506
0.00029864017
0.00029129233
0.00028400024
0.00027671514
0.0002694912
0.0002622741
0.00025512408
0.00024798068
0.00024091082
0.00023384725
0.00022686429
0.00021988718
0.00021299841
0.00020611489
0.00019932817
0.00019254591
0.00018586971
0.00017919697
0.00017264042
0.00016608606
0.00015965901
0.00015323258
0.00014694562
0.00014065735
0.00013452191
0.0001283828
0.00012241119
0.00011643303
0.00011063855
0.00010483402
9.9230991e-05
9.3613727e-05
8.8217643e-05
8.28023e-05
7.7629945e-05
7.2432318e-05
6.7501911e-05
6.253904e-05
5.7870443e-05
5.3160763e-05
4.8775682e-05
4.4339215e-05
4.0261525e-05
3.6120056e-05
3.2376199e-05
2.8553558e-05
2.517304e-05
2.1695428e-05
1.8711577e-05
1.5607912e-05
1.3058986e-05
1.0361308e-05
8.2922396e-06
6.0359618e-06
4.5015602e-06
2.724699e-06
1.7971442e-06
5.3395174e-07
3.3167523e-07
-4.4656983e-07
0.013065267
0.0097091348
0.0050415202
0.0017929374
0.00049922871
0.0004685235
0.00078903147
0.0010419994
0.0011648708
0.0012087749
0.00122258
0.0012290978
0.0012345749
0.0012392963
0.0012425631
0.0012440598
0.0012438798
0.0012422965
0.0012395986
0.0012360254
0.0012317561
0.0012269222
0.0012216205
0.0012159263
0.0012098985
0.0012035865
0.0011970307
0.0011902661
0.0011833214
0.0011762218
0.0011689879
0.0011616381
0.0011541872
0.0011466487
0.0011390335
0.0011313516
0.001123611
0.0011158192
0.0011079823
0.0011001061
0.0010921951
0.001084254
0.001076286
0.0010682949
0.0010602834
0.0010522542
0.0010442094
0.0010361513
0.0010280813
0.0010200014
0.0010119127
0.0010038169
0.00099571473
0.00098760758
0.00097949603
0.00097138119
0.00096326347
0.00095514387
0.00094702271
0.00093890084
0.00093077845
0.00092265622
0.00091453428
0.00090641322
0.00089829319
0.00089017471
0.00088205788
0.00087394305
0.00086583033
0.00085771999
0.00084961222
0.00084150725
0.00083340524
0.00082530627
0.00081721056
0.00080911813
0.00080102933
0.00079294405
0.00078486271
0.00077678502
0.00076871153
0.00076064187
0.00075257678
0.00074451566
0.00073645937
0.00072840716
0.00072036014
0.00071231736
0.00070428014
0.00069624721
0.0006882202
0.0006801976
0.0006721814
0.0006641697
0.00065616484
0.00064816456
0.00064017166
0.00063218347
0.00062420323
0.00061622777
0.00060826086
0.00060029884
0.00059234615
0.00058439842
0.00057646076
0.00056852823
0.00056060657
0.00055269018
0.00054478568
0.00053688643
0.00052900022
0.00052111938
0.0005132527
0.00050539155
0.00049754587
0.00048970585
0.00048188274
0.00047406542
0.00046626662
0.00045847371
0.00045070111
0.00044293449
0.00043519016
0.0004274519
0.00041973812
0.0004120305
0.00040434973
0.00039667523
0.00038903021
0.00038139153
0.00037378522
0.00036618534
0.00035862098
0.00035106312
0.00034354423
0.00033603188
0.00032856231
0.0003210993
0.00031368321
0.00030627366
0.00029891559
0.00029156398
0.00028426884
0.00027698004
0.00026975316
0.00026253242
0.00025537957
0.00024823257
0.00024116001
0.00023409287
0.00022710732
0.00022012667
0.00021323543
0.00020634839
0.00019955931
0.00019277354
0.0001860951
0.00017941885
0.00017286019
0.00016630232
0.00015987329
0.00015344332
0.00014715451
0.00014086268
0.00013472554
0.00012858281
0.00012260966
0.00011662784
0.00011083197
0.00010502372
9.9419474e-05
9.3798413e-05
8.8401306e-05
8.2982072e-05
7.7808905e-05
7.2607272e-05
6.7676289e-05
6.2709277e-05
5.8040367e-05
5.3326386e-05
4.8941291e-05
4.4500332e-05
4.0422968e-05
3.6276778e-05
3.2533641e-05
2.8706003e-05
2.5326666e-05
2.1843719e-05
1.8861601e-05
1.5752174e-05
1.3205656e-05
1.0501666e-05
8.4358622e-06
6.1725157e-06
4.6425266e-06
2.8574803e-06
1.9358318e-06
6.6308892e-07
4.5985897e-07
-3.3902421e-07
0.012217363
0.0095214834
0.0053170523
0.0021740041
0.00078408892
0.00063233939
0.00088753995
0.0011112121
0.001216834
0.0012479679
0.0012527044
0.0012531794
0.0012546086
0.0012563964
0.0012573613
0.0012569846
0.0012552643
0.0012524071
0.0012486462
0.0012441771
0.0012391452
0.0012336567
0.0012277891
0.0012216023
0.0012151434
0.0012084517
0.0012015598
0.001194496
0.0011872838
0.0011799438
0.0011724931
0.0011649468
0.0011573173
0.0011496158
0.0011418514
0.0011340325
0.0011261658
0.0011182576
0.0011103129
0.0011023368
0.0010943328
0.001086305
0.0010782562
0.0010701895
0.001062107
0.0010540114
0.001045904
0.001037787
0.0010296615
0.0010215292
0.001013391
0.0010052482
0.00099710154
0.00098895218
0.00098080053
0.00097264756
0.00096449354
0.00095633935
0.0009481852
0.00094003183
0.00093187935
0.00092372834
0.00091557885
0.00090743141
0.0008992861
0.00089114335
0.00088300325
0.00087486605
0.00086673183
0.00085860081
0.00085047315
0.00084234901
0.00083422855
0.00082611177
0.0008179989
0.00080988988
0.00080178509
0.00079368435
0.00078558807
0.00077749591
0.00076940845
0.00076132525
0.00075324706
0.00074517322
0.00073710464
0.00072904048
0.0007209819
0.00071292786
0.00070487976
0.00069683622
0.00068879894
0.00068076632
0.00067274041
0.00066471924
0.0006567052
0.00064869593
0.00064069434
0.00063269764
0.00062470916
0.0006167256
0.00060875086
0.00060078114
0.00059282102
0.00058486595
0.00057692122
0.00056898168
0.00056105329
0.0005531302
0.00054521929
0.00053731364
0.00052942129
0.00052153432
0.00051366179
0.00050579475
0.00049794347
0.0004900978
0.00048226934
0.00047444658
0.00046664265
0.0004588445
0.00045106699
0.00044329531
0.00043554627
0.00042780312
0.00042008482
0.00041237246
0.00040468736
0.00039700826
0.00038935907
0.00038171594
0.00037410562
0.0003665014
0.0003589332
0.00035137109
0.00034384851
0.00033633202
0.0003288589
0.00032139183
0.00031397233
0.0003065588
0.00029919745
0.00029184193
0.00028454364
0.00027725098
0.00027002108
0.00026279653
0.00025564078
0.00024849001
0.00024141466
0.00023434379
0.00022735558
0.00022037121
0.00021347743
0.00020658667
0.00019979517
0.00019300569
0.00018632496
0.00017964498
0.00017308416
0.00016652253
0.00016009147
0.00015365771
0.00014736701
0.00014107134
0.00013493244
0.00012878582
0.00012281106
0.00011682528
0.00011102796
0.00010521565
9.9610137e-05
9.39849e-05
8.8586718e-05
8.3163178e-05
7.7989141e-05
7.2783051e-05
6.7851426e-05
6.2879777e-05
5.8210477e-05
5.3491649e-05
4.9106444e-05
4.4660393e-05
4.0583234e-05
3.643166e-05
3.2689086e-05
2.8855718e-05
2.5477353e-05
2.1988258e-05
1.9007585e-05
1.5891495e-05
1.3346981e-05
1.0635676e-05
8.5725424e-06
6.3010416e-06
4.7744798e-06
2.980291e-06
2.062038e-06
7.7991789e-07
5.6142721e-07
-2.6157075e-07
0.01144579
0.0092773918
0.005548726
0.0025447075
0.001081298
0.00081301329
0.0010007019
0.0011946738
0.0012831111
0.0012999986
0.0012933379
0.001285795
0.0012817904
0.0012796526
0.0012775233
0.0012745943
0.0012707488
0.0012661215
0.0012608807
0.0012551638
0.0012490699
0.0012426693
0.0012360123
0.0012291376
0.0012220757
0.0012148527
0.0012074903
0.0012000078
0.0011924214
0.0011847458
0.0011769929
0.0011691735
0.0011612964
0.0011533698
0.0011454
0.0011373932
0.0011293541
0.0011212875
0.0011131968
0.0011050857
0.0010969569
0.0010888133
0.0010806568
0.0010724898
0.0010643137
0.0010561306
0.0010479413
0.0010397475
0.0010315499
0.0010233497
0.0010151475
0.0010069445
0.00099874092
0.00099053774
0.00098233514
0.00097413388
0.00096593405
0.00095773634
0.00094954082
0.00094134807
0.00093315809
0.0009249713
0.00091678769
0.00090860764
0.00090043118
0.00089225862
0.00088408998
0.00087592543
0.00086776499
0.00085960881
0.000851457
0.00084330965
0.00083516688
0.00082702863
0.00081889511
0.00081076619
0.00080264223
0.000794523
0.00078640889
0.00077829951
0.00077019544
0.00076209617
0.00075400247
0.00074591361
0.00073783051
0.00072975228
0.0007216801
0.00071361286
0.00070555198
0.00069749602
0.00068944674
0.00068140243
0.00067336522
0.00066533302
0.00065730832
0.00064928864
0.00064127698
0.00063327043
0.00062527243
0.00061727954
0.00060929579
0.00060131721
0.00059334854
0.00058538507
0.00057743222
0.00056948469
0.00056154858
0.00055361787
0.00054569963
0.0005377867
0.00052988737
0.00052199345
0.00051411427
0.00050624058
0.00049838295
0.00049053091
0.00048269638
0.00047486751
0.00046705779
0.00045925375
0.0004514707
0.00044369336
0.00043593902
0.00042819041
0.00042046703
0.0004127494
0.00040505942
0.00039737523
0.00038972137
0.00038207329
0.00037445849
0.00036684947
0.00035927696
0.00035171019
0.00034418346
0.00033666243
0.00032918532
0.00032171381
0.00031429048
0.0003068726
0.00029950757
0.00029214779
0.00028484595
0.0002775491
0.00027031579
0.00026308711
0.00025592809
0.00024877323
0.00024169474
0.00023461981
0.00022762858
0.00022064018
0.00021374351
0.00020684873
0.00020005447
0.00019326096
0.00018657759
0.00017989358
0.00017333023
0.00016676456
0.00016033109
0.00015389324
0.00014760027
0.00014130046
0.00013515942
0.00012900859
0.00012303183
0.00011704174
0.00011124257
0.00010542585
9.9818635e-05
9.4188874e-05
8.8789141e-05
8.3360931e-05
7.8185513e-05
7.2974581e-05
6.8041758e-05
6.3065065e-05
5.8394763e-05
5.3670656e-05
4.9284663e-05
4.4833053e-05
4.075534e-05
3.6597878e-05
3.2855004e-05
2.9015355e-05
2.5636966e-05
2.2141116e-05
1.9160721e-05
1.6037291e-05
1.3493372e-05
1.077401e-05
8.7117609e-06
6.4313708e-06
4.9056653e-06
3.1020717e-06
2.1820101e-06
8.9156786e-07
6.4141219e-07
-2.0824766e-07
0.010747837
0.0089860373
0.0057284606
0.0028925096
0.0013777285
0.00099811022
0.0011161088
0.0012807842
0.001354659
0.0013589427
0.0013408399
0.0013245652
0.0013144838
0.0013079718
0.001302383
0.0012965423
0.0012902109
0.0012834695
0.0012764332
0.0012691841
0.0012617724
0.0012542297
0.0012465764
0.0012388279
0.0012309957
0.0012230903
0.0012151208
0.0012070961
0.0011990234
0.0011909101
0.0011827619
0.0011745845
0.0011663821
0.001158159
0.0011499183
0.0011416634
0.0011333965
0.0011251203
0.0011168363
0.0011085467
0.0011002525
0.0010919556
0.0010836566
0.001075357
0.0010670573
0.0010587588
0.0010504616
0.0010421667
0.0010338743
0.0010255851
0.0010172992
0.0010090174
0.0010007396
0.00099246628
0.00098419745
0.00097593353
0.00096767439
0.00095942046
0.0009511716
0.0009429282
0.00093469006
0.00092645746
0.00091823022
0.00091000859
0.00090179245
0.00089358204
0.00088537721
0.00087717808
0.00086898454
0.00086079668
0.00085261451
0.00084443805
0.00083626735
0.0008281023
0.00081994301
0.00081178935
0.00080364158
0.00079549944
0.00078736328
0.00077923265
0.0007711081
0.00076298908
0.00075487633
0.00074676908
0.00073866822
0.00073057282
0.00072248405
0.00071440077
0.00070632438
0.00069825339
0.00069018957
0.00068213117
0.00067408031
0.00066603487
0.00065799734
0.0006499652
0.00064194147
0.00063392317
0.00062591378
0.00061790981
0.00060991531
0.00060192625
0.00059394744
0.00058597403
0.00057801157
0.00057005464
0.00056210943
0.00055416979
0.00054624292
0.00053832149
0.00053041398
0.00052251197
0.000514625
0.0005067436
0.00049887857
0.00049101916
0.00048317758
0.00047534167
0.00046752523
0.00045971445
0.00045192499
0.00044414119
0.00043638071
0.0004286259
0.00042089667
0.00041317306
0.00040547749
0.00039778753
0.00039012832
0.00038247468
0.00037485475
0.00036724035
0.00035966291
0.00035209093
0.00034455949
0.00033703339
0.00032955175
0.00032207531
0.00031464763
0.00030722494
0.00029985573
0.00029249124
0.00028518539
0.00027788392
0.00027064675
0.00026341353
0.00025625079
0.00024909146
0.00024200939
0.00023493005
0.00022793537
0.00022094259
0.0002140426
0.00020714346
0.00020034601
0.00019354815
0.00018686171
0.00018017334
0.00017360704
0.00016703698
0.00016060068
0.0001541584
0.00014786271
0.00014155842
0.00013541477
0.00012925939
0.00012328013
0.00011728539
0.00011148383
0.00010566235
0.00010005286
9.4418193e-05
8.90163e-05
8.3583013e-05
7.8405552e-05
7.3189342e-05
6.8254592e-05
6.3272383e-05
5.8600273e-05
5.3870369e-05
4.9482684e-05
4.5024946e-05
4.0945656e-05
3.6781671e-05
3.3037325e-05
2.9190684e-05
2.5810908e-05
2.23075e-05
1.9325758e-05
1.6194095e-05
1.3648763e-05
1.0920395e-05
8.856365e-06
6.56631e-06
5.0373925e-06
3.2245184e-06
2.2948186e-06
9.9709111e-07
6.988779e-07
-1.8073206e-07
0.0101271
0.0086695435
0.0058575487
0.0032137768
0.0016706336
0.0011857677
0.0012313324
0.0013659479
0.0014275175
0.0014214331
0.0013924926
0.0013670878
0.001350446
0.0013393127
0.0013301742
0.0013213574
0.0013124502
0.0013034828
0.0012945319
0.001285632
0.0012767862
0.0012679872
0.0012592257
0.0012504946
0.0012417872
0.0012330993
0.0012244273
0.0012157698
0.0012071254
0.0011984938
0.0011898745
0.0011812677
0.0011726729
0.0011640905
0.0011555199
0.0011469615
0.0011384148
0.0011298802
0.0011213571
0.0011128459
0.0011043459
0.0010958576
0.0010873803
0.0010789144
0.0010704594
0.0010620155
0.0010535822
0.0010451596
0.0010367473
0.0010283454
0.0010199534
0.0010115715
0.0010031993
0.00099483697
0.00098648392
0.00097814032
0.0009698057
0.00096148024
0.00095316351
0.00094485566
0.00093655626
0.00092826539
0.00091998267
0.0009117082
0.00090344169
0.00089518322
0.0008869325
0.00087868953
0.00087045405
0.0008622261
0.00085400553
0.00084579231
0.00083758635
0.00082938749
0.00082119576
0.00081301095
0.00080483326
0.00079666237
0.00078849853
0.00078034129
0.00077219111
0.00076404742
0.00075591088
0.00074778071
0.00073965773
0.000731541
0.00072343164
0.00071532847
0.00070723285
0.00069914329
0.0006910615
0.00068298574
0.00067491806
0.00066685634
0.00065880305
0.00065075564
0.00064271712
0.00063468446
0.00062666117
0.00061864369
0.00061063611
0.00060263432
0.00059464318
0.00058665777
0.00057868367
0.0005707154
0.0005627592
0.00055480882
0.00054687157
0.00053893998
0.00053102262
0.00052311097
0.00051521469
0.00050732413
0.00049945026
0.00049158215
0.00048373218
0.00047588797
0.00046806356
0.00046024487
0.00045244783
0.00044465648
0.00043688879
0.00042912675
0.00042139064
0.00041366012
0.00040595798
0.0003982614
0.00039059592
0.0003829359
0.00037530999
0.00036768945
0.00036010629
0.00035252839
0.00034499147
0.00033745966
0.00032997277
0.00032249079
0.00031505808
0.00030763001
0.00030025598
0.00029288625
0.00028557576
0.00027826919
0.00027102756
0.00026378934
0.00025662231
0.00024945807
0.00024237187
0.00023528769
0.00022828903
0.00022129147
0.00021438763
0.00020748375
0.00020068258
0.00019388001
0.00018718997
0.00018049688
0.0001739271
0.0001673523
0.00016091262
0.00015446558
0.0001481666
0.00014185747
0.00013571063
0.00012955033
0.00012356796
0.0001175682
0.0001117636
0.00010593696
0.00010032449
9.4684489e-05
8.9279674e-05
8.3840852e-05
7.8660508e-05
7.3438521e-05
6.8500913e-05
6.3512641e-05
5.8837676e-05
5.4101371e-05
4.9710806e-05
4.5246269e-05
4.1164035e-05
3.699278e-05
3.3245366e-05
2.9390902e-05
2.6007837e-05
2.2495963e-05
1.9510539e-05
1.6369697e-05
1.3819942e-05
1.1081742e-05
9.011754e-06
6.7117298e-06
5.1732152e-06
3.3519649e-06
2.4018715e-06
1.0974134e-06
7.3635433e-07
-1.7579926e-07
0.0095816758
0.0083457812
0.005937536
0.0035044352
0.0019574587
0.001376202
0.0013468714
0.0014495028
0.0015001539
0.0014859669
0.0014471324
0.001412329
0.0013885735
0.0013724909
0.0013597103
0.0013479132
0.0013364209
0.0013251959
0.0013142893
0.0013036983
0.0012933808
0.0012832888
0.001273382
0.0012636295
0.001254007
0.0012444955
0.0012350797
0.0012257477
0.0012164896
0.0012072981
0.0011981665
0.0011890895
0.0011800624
0.0011710815
0.0011621429
0.001153244
0.0011443816
0.0011355538
0.001126758
0.0011179927
0.0011092558
0.0011005459
0.0010918615
0.0010832016
0.0010745646
0.0010659497
0.0010573557
0.0010487819
0.0010402271
0.0010316908
0.001023172
0.0010146703
0.0010061848
0.00099771509
0.00098926037
0.00098082036
0.00097239425
0.00096398189
0.00095558258
0.00094719617
0.00093882198
0.00093045988
0.00092210924
0.00091377
0.00090544166
0.00089712415
0.00088881698
0.00088052004
0.00087223292
0.00086395552
0.00085568759
0.00084742898
0.00083917948
0.00083093885
0.00082270701
0.0008144837
0.000806269
0.00079806254
0.00078986446
0.00078167431
0.00077349242
0.00076531822
0.00075715226
0.00074899374
0.00074084341
0.00073270032
0.0007245655
0.00071643776
0.0007083184
0.00070020593
0.00069210197
0.00068400479
0.00067591639
0.00066783464
0.00065976194
0.00065169575
0.00064363904
0.00063558878
0.0006275484
0.00061951439
0.00061149077
0.00060347343
0.0005954672
0.00058746714
0.00057947883
0.00057149676
0.00056352717
0.00055556375
0.00054761387
0.00053966997
0.00053174068
0.00052381739
0.00051590983
0.00050800825
0.00050012371
0.00049224515
0.00048438507
0.00047653095
0.00046869697
0.00046086886
0.00045306273
0.00044526242
0.00043748611
0.00042971554
0.00042197123
0.00041423258
0.00040652265
0.0003988183
0.0003911454
0.00038347796
0.00037584498
0.00036821733
0.00036062744
0.00035304271
0.00034549936
0.00033796098
0.00033046795
0.00032297965
0.00031554107
0.00030810689
0.00030072723
0.00029335159
0.00028603571
0.00027872339
0.00027147659
0.00026423278
0.00025706077
0.00024989107
0.00024280008
0.00023571054
0.00022870727
0.00022170443
0.00021479613
0.00020788704
0.00020108154
0.0001942738
0.00018757956
0.00018088132
0.00017430744
0.00016772749
0.0001612838
0.00015483157
0.00014852866
0.00014221428
0.00013606357
0.00012989792
0.00012391172
0.00011790649
0.00011209808
0.00010626581
0.00010064953
9.5003705e-05
8.9595037e-05
8.4150158e-05
7.8965894e-05
7.3737566e-05
6.8795929e-05
6.380098e-05
5.9121822e-05
5.4378449e-05
4.9983453e-05
4.5511392e-05
4.142439e-05
3.7245085e-05
3.3492417e-05
2.9629317e-05
2.6240275e-05
2.2719141e-05
1.9726623e-05
1.657595e-05
1.4017253e-05
1.1268959e-05
9.1867356e-06
6.8772894e-06
5.3201312e-06
3.4919329e-06
2.5084648e-06
1.1965058e-06
7.6048976e-07
-1.8554215e-07
0.009103661
0.0080275775
0.0059713145
0.0037601598
0.0022343668
0.0015694523
0.0014638964
0.0015315687
0.0015716549
0.0015514895
0.0015041149
0.0014599332
0.001428525
0.0014070624
0.0013904721
0.0013756701
0.0013615884
0.0013480802
0.0013351787
0.0013228586
0.0013110391
0.0012996308
0.0012885589
0.0012777672
0.0012672125
0.0012568611
0.0012466852
0.0012366628
0.0012267753
0.0012170078
0.0012073475
0.0011977839
0.0011883077
0.0011789112
0.0011695874
0.0011603304
0.0011511348
0.0011419962
0.0011329101
0.0011238731
0.0011148816
0.0011059329
0.0010970242
0.0010881531
0.0010793173
0.001070515
0.0010617441
0.0010530031
0.0010442902
0.0010356043
0.0010269437
0.0010183075
0.0010096944
0.0010011035
0.00099253363
0.00098398402
0.00097545362
0.00096694189
0.00095844787
0.00094997112
0.00094151072
0.00093306625
0.00092463693
0.00091622244
0.00090782213
0.00089943572
0.00089106257
0.00088270238
0.00087435463
0.00086601909
0.00085769536
0.00084938319
0.00084108222
0.00083279214
0.00082451275
0.00081624373
0.00080798503
0.00079973623
0.00079149737
0.00078326793
0.00077504817
0.00076683749
0.00075863632
0.00075044386
0.00074226074
0.00073408602
0.00072592064
0.00071776341
0.00070961551
0.00070147547
0.00069334485
0.00068522191
0.00067710856
0.00066900267
0.00066090659
0.00065281779
0.00064473917
0.00063666768
0.00062860672
0.00062055278
0.00061250984
0.00060447374
0.00059644934
0.00058843165
0.00058042621
0.00057242754
0.00056444183
0.00055646274
0.00054849767
0.00054053899
0.00053259536
0.00052465812
0.00051673702
0.00050882225
0.00050092492
0.00049303388
0.00048516172
0.00047729577
0.00046945035
0.00046161105
0.00045379409
0.00044598315
0.00043819659
0.00043041593
0.0004226619
0.00041491366
0.00040719451
0.00039948103
0.00039179939
0.00038412325
0.00037648196
0.00036884601
0.00036124821
0.00035365556
0.00034610469
0.00033855872
0.00033105853
0.00032356295
0.00031611753
0.00030867636
0.00030129017
0.0002939078
0.00028658568
0.00027926686
0.00027201408
0.00026476397
0.00025758623
0.0002504104
0.00024331389
0.00023621838
0.00022920978
0.0002222011
0.00021528764
0.0002083728
0.00020156231
0.00019474888
0.00018804976
0.00018134588
0.00017476723
0.00016818163
0.00016173326
0.00015527535
0.0001489678
0.0001426477
0.00013649237
0.0001303209
0.00012433006
0.00011831887
0.00011250577
0.00010666737
0.0001010463
9.5394126e-05
8.9980516e-05
8.4529024e-05
7.9339595e-05
7.4104343e-05
6.9157237e-05
6.4155e-05
5.946996e-05
5.4718884e-05
5.0317449e-05
4.5837218e-05
4.1743024e-05
3.7555045e-05
3.3794137e-05
2.9921855e-05
2.6523084e-05
2.2992323e-05
1.9987883e-05
1.6827358e-05
1.4253358e-05
1.149552e-05
9.3925646e-06
7.0749231e-06
5.4878939e-06
3.6537766e-06
2.6230159e-06
1.3008591e-06
7.8040442e-07
-1.9957627e-07
0.0086824925
0.0077235326
0.0059647777
0.0039779225
0.0024972645
0.0017650435
0.0015837298
0.001612745
0.0016414462
0.0016170419
0.0015628669
0.0015097526
0.0014702881
0.0014429509
0.0014222936
0.0014044212
0.0013877417
0.0013719262
0.0013569836
0.0013428834
0.0013295182
0.0013167594
0.0013044959
0.0012926429
0.0012811368
0.0012699284
0.0012589775
0.0012482514
0.0012377227
0.0012273685
0.0012171698
0.0012071104
0.0011971764
0.0011873561
0.001177639
0.0011680161
0.0011584794
0.0011490222
0.001139638
0.0011303214
0.0011210675
0.001111872
0.0011027308
0.0010936405
0.0010845978
0.0010755998
0.0010666438
0.0010577273
0.0010488481
0.0010400041
0.0010311935
0.0010224146
0.0010136656
0.0010049453
0.00099625206
0.00098758472
0.00097894197
0.00097032287
0.00096172628
0.00095315136
0.00094459704
0.00093606259
0.00092754709
0.00091904996
0.00091057041
0.00090210792
0.00089366176
0.00088523141
0.00087681627
0.0008684159
0.00086002985
0.00085165768
0.00084329899
0.00083495329
0.00082662035
0.0008182997
0.00080999125
0.00080169443
0.00079340928
0.00078513514
0.00077687226
0.00076861991
0.00076037852
0.00075214716
0.00074392648
0.00073571542
0.00072751492
0.00071932368
0.00071114291
0.00070297103
0.00069480962
0.00068665683
0.0006785146
0.00067038071
0.00066225753
0.00065414243
0.00064603834
0.00063794215
0.00062985724
0.00062178005
0.0006137146
0.00060565662
0.00059761102
0.00058957272
0.00058154729
0.0005735292
0.00056552468
0.00055752724
0.00054954441
0.00054156843
0.00053360805
0.00052565447
0.00051771756
0.00050978734
0.00050187508
0.00049396944
0.00048608316
0.00047820339
0.00047034464
0.00046249225
0.00045466267
0.00044683934
0.00043904084
0.00043124843
0.0004234831
0.00041572372
0.00040799387
0.00040026981
0.00039257802
0.00038489183
0.00037724092
0.00036959541
0.00036198849
0.00035438672
0.0003468272
0.00033927253
0.00033176412
0.00032426023
0.00031680699
0.00030935787
0.00030196423
0.00029457423
0.00028724501
0.00027991885
0.00027265928
0.00026540209
0.00025821785
0.00025103517
0.00024393242
0.00023683026
0.00022981564
0.00022280047
0.0002158812
0.00020896001
0.00020214386
0.00019532417
0.00018861953
0.00018190946
0.00017532539
0.00016873362
0.00016227988
0.0001558158
0.00014950289
0.00014317656
0.00013701583
0.00013083805
0.00012484173
0.0001188241
0.00011300535
0.00010716034
0.00010153337
9.5874372e-05
9.0454549e-05
8.4995965e-05
7.9799881e-05
7.4557233e-05
6.9602885e-05
6.4592908e-05
5.9899853e-05
5.5140664e-05
5.0730196e-05
4.6241461e-05
4.2136879e-05
3.7940023e-05
3.4166896e-05
3.0285439e-05
2.6871927e-05
2.3331857e-05
2.0309128e-05
1.7139488e-05
1.4542081e-05
1.1775864e-05
9.6419934e-06
7.3173505e-06
5.6881198e-06
3.8476666e-06
2.755957e-06
1.4189681e-06
8.064353e-07
-2.0651936e-07
0.0083075544
0.0074386854
0.0059261407
0.0041567564
0.0027423168
0.0019616792
0.0017074845
0.0016940194
0.001709326
0.0016817681
0.0016227476
0.0015616236
0.0015139481
0.0014802361
0.0014551635
0.0014340974
0.0014148025
0.0013966654
0.0013796405
0.0013637037
0.0013487383
0.0013345839
0.0013210925
0.0013081482
0.0012956648
0.0012835763
0.0012718298
0.0012603817
0.0012491956
0.0012382406
0.001227491
0.0012169246
0.001206523
0.0011962699
0.0011861514
0.0011761553
0.0011662709
0.0011564887
0.0011468007
0.0011371992
0.0011276778
0.0011182306
0.0011088524
0.0010995383
0.0010902843
0.0010810864
0.0010719409
0.0010628448
0.001053795
0.0010447889
0.0010358241
0.0010268982
0.0010180094
0.0010091554
0.0010003346
0.00099154535
0.00098278608
0.00097405537
0.00096535199
0.00095667463
0.00094802219
0.00093939348
0.00093078758
0.00092220352
0.00091364053
0.0009050977
0.00089657435
0.00088806959
0.00087958289
0.0008711135
0.00086266104
0.00085422473
0.00084580426
0.00083739885
0.00082900837
0.00082063207
0.00081226997
0.00080392121
0.00079558594
0.00078726325
0.00077895352
0.00077065576
0.00076237051
0.0007540966
0.00074583482
0.00073758386
0.00072934482
0.00072111614
0.00071289917
0.00070469211
0.0006964967
0.00068831084
0.00068013664
0.00067197162
0.00066381835
0.00065567395
0.00064754153
0.00063941773
0.00063130612
0.00062320289
0.0006151123
0.00060702974
0.00059896041
0.00059089894
0.00058285109
0.00057481111
0.00056678547
0.00055876733
0.00055076455
0.00054276902
0.00053478978
0.00052681771
0.000518863
0.00051091529
0.00050298619
0.00049506401
0.00048716183
0.00047926638
0.00047139259
0.00046352537
0.00045568157
0.00044784419
0.00044003224
0.00043222651
0.00042444847
0.00041667645
0.00040893458
0.00040119854
0.00039349537
0.0003857978
0.00037813613
0.00037047981
0.0003628627
0.00035525065
0.00034768147
0.00034011702
0.00033259945