/*--------------------------------*- C++ -*----------------------------------*\
| =========                 |                                                 |
| \\      /  F ield         | OpenFOAM: The Open Source CFD Toolbox           |
|  \\    /   O peration     | Version:  5.x                                   |
|   \\  /    A nd           | Web:      www.OpenFOAM.org                      |
|    \\/     M anipulation  |                                                 |
\*---------------------------------------------------------------------------*/
FoamFile
{
    version     2.0;
    format      ascii;
    class       surfaceScalarField;
    location    "0.6";
    object      phi;
}
// * * * * * * * * * * * * * * * * * * * * * * * * * * * * * * * * * * * * * //

dimensions      [0 3 -1 0 0 0 0];

internalField   nonuniform List<scalar> 
42870
(
2.9770622e-08
9.9456505e-09
-3.9716272e-08
2.0561057e-08
9.2095645e-09
1.4207253e-08
6.3538043e-09
1.0639519e-08
3.5677338e-09
8.8228886e-09
1.8166306e-09
7.8252439e-09
9.9764462e-10
7.1956696e-09
6.2957439e-10
6.7342779e-09
4.6139164e-10
6.3576783e-09
3.765996e-10
6.0343917e-09
3.232866e-10
5.7525153e-09
2.8187647e-10
5.5056849e-09
2.4683037e-10
5.2884671e-09
2.1721779e-10
5.0958525e-09
1.9261464e-10
4.9235511e-09
1.723014e-10
4.7681187e-09
1.5543241e-10
4.6268705e-09
1.4124818e-10
4.4977156e-09
1.2915484e-10
4.378997e-09
1.1871862e-10
4.2693738e-09
1.0962323e-10
4.1677388e-09
1.0163494e-10
4.0731663e-09
9.4572563e-11
3.9848725e-09
8.8293822e-11
3.9021902e-09
8.2682211e-11
3.8245467e-09
7.764356e-11
3.7514483e-09
7.3098396e-11
3.6824662e-09
6.8982104e-11
3.6172271e-09
6.5239042e-11
3.5554031e-09
6.1823987e-11
3.4967061e-09
5.8697057e-11
3.4408801e-09
5.5825957e-11
3.3876988e-09
5.3181389e-11
3.3369589e-09
5.073982e-11
3.2884797e-09
4.8479202e-11
3.2420977e-09
4.6382077e-11
3.1976662e-09
4.4431475e-11
3.1550519e-09
4.261427e-11
3.1141347e-09
4.0917158e-11
3.0748046e-09
3.9330146e-11
3.036962e-09
3.7842607e-11
3.0005151e-09
3.6446873e-11
2.9653808e-09
3.5134311e-11
2.9314818e-09
3.3899001e-11
2.898748e-09
3.2733819e-11
2.8671138e-09
3.1634193e-11
2.8365196e-09
3.0594165e-11
2.8069094e-09
2.9610212e-11
2.7782321e-09
2.8677276e-11
2.7504395e-09
2.7792649e-11
2.7234875e-09
2.695196e-11
2.6973344e-09
2.615314e-11
2.671942e-09
2.5392359e-11
2.647274e-09
2.4668083e-11
2.623297e-09
2.3976933e-11
2.5999792e-09
2.3317816e-11
2.5772915e-09
2.2687702e-11
2.5552057e-09
2.2085834e-11
2.5336962e-09
2.1509441e-11
2.5127382e-09
2.0958047e-11
2.4923091e-09
2.0429123e-11
2.4723866e-09
1.9922458e-11
2.4529509e-09
1.9435719e-11
2.433982e-09
1.8968891e-11
2.4154622e-09
1.8519765e-11
2.3973738e-09
1.8088476e-11
2.3797008e-09
1.7672954e-11
2.3624273e-09
1.7273503e-11
2.3455391e-09
1.6888189e-11
2.3290217e-09
1.6517417e-11
2.3128624e-09
1.6159318e-11
2.297048e-09
1.5814366e-11
2.2815672e-09
1.5480804e-11
2.266408e-09
1.5159206e-11
2.2515601e-09
1.4847922e-11
2.2370125e-09
1.4547546e-11
2.222756e-09
1.4256487e-11
2.2087807e-09
1.3975352e-11
2.195078e-09
1.3702685e-11
2.1816389e-09
1.3439116e-11
2.1684556e-09
1.318329e-11
2.1555198e-09
1.2935772e-11
2.1428245e-09
1.2695318e-11
2.1303621e-09
1.2462451e-11
2.1181259e-09
1.223611e-11
2.1061092e-09
1.2016727e-11
2.0943059e-09
1.1803372e-11
2.0827095e-09
1.1596333e-11
2.0713146e-09
1.1394899e-11
2.0601154e-09
1.1199231e-11
2.0491065e-09
1.1008852e-11
2.0382829e-09
1.0823676e-11
2.0276394e-09
1.064348e-11
2.0171714e-09
1.0467951e-11
2.0068742e-09
1.0297201e-11
1.9967436e-09
1.0130621e-11
1.986775e-09
9.9686586e-12
1.9769647e-09
9.8103033e-12
1.9673082e-09
9.656473e-12
1.9578024e-09
9.5057797e-12
1.9484428e-09
9.3595586e-12
1.9392269e-09
9.2159366e-12
1.9301501e-09
9.0768276e-12
1.9212104e-09
8.9397071e-12
1.9124031e-09
8.8072339e-12
1.9037269e-09
8.6762367e-12
1.895177e-09
8.5499429e-12
1.8867524e-09
8.4245632e-12
1.8784483e-09
8.3041351e-12
1.8702643e-09
8.18394e-12
1.8621953e-09
8.0690236e-12
1.8542416e-09
7.9536536e-12
1.8463977e-09
7.8439187e-12
1.8386647e-09
7.7330035e-12
1.8310365e-09
7.6281909e-12
1.8235151e-09
7.5213874e-12
1.8160939e-09
7.4212153e-12
1.8087757e-09
7.3182053e-12
1.8015532e-09
7.2224731e-12
1.7944303e-09
7.1229387e-12
1.7873989e-09
7.0314311e-12
1.7804638e-09
6.9350942e-12
1.7736161e-09
6.84764e-12
1.7668619e-09
6.7542124e-12
1.7601913e-09
6.6706496e-12
1.7536114e-09
6.5798596e-12
1.7471114e-09
6.5000584e-12
1.7406997e-09
6.4116535e-12
1.7343642e-09
6.3354921e-12
1.728115e-09
6.249205e-12
1.7219384e-09
6.1765977e-12
1.7158462e-09
6.0921886e-12
1.7098232e-09
6.0230515e-12
1.7038829e-09
5.9402637e-12
1.6980083e-09
5.8745579e-12
1.6922152e-09
5.7931543e-12
1.6864843e-09
5.7308341e-12
1.6808338e-09
5.6505622e-12
1.6752422e-09
5.5916281e-12
1.6697299e-09
5.5122443e-12
1.6642732e-09
5.4566991e-12
1.6588953e-09
5.3779507e-12
1.6535694e-09
5.3258356e-12
1.648322e-09
5.2474682e-12
1.6431231e-09
5.1988381e-12
1.6380025e-09
5.1205812e-12
1.632927e-09
5.0755218e-12
1.6279299e-09
4.9971107e-12
1.6229742e-09
4.9557288e-12
1.6180973e-09
4.8768697e-12
1.613258e-09
4.8393154e-12
1.6084983e-09
4.759716e-12
1.6037721e-09
4.7261523e-12
1.5991266e-09
4.6454918e-12
1.5945105e-09
4.6161358e-12
1.5899764e-09
4.53408e-12
1.5854672e-09
4.5091702e-12
1.5810419e-09
4.4253623e-12
1.5766367e-09
4.4051931e-12
1.5723174e-09
4.3192477e-12
1.5680133e-09
4.3041534e-12
1.5637976e-09
4.2156508e-12
1.5595916e-09
4.2060247e-12
1.5554771e-09
4.1145167e-12
1.5513663e-09
4.1107999e-12
1.5473505e-09
4.0157949e-12
1.543332e-09
4.0185083e-12
1.5394125e-09
3.9194635e-12
1.5354833e-09
3.9291971e-12
1.5316578e-09
3.8255176e-12
1.5278149e-09
3.8429547e-12
1.5240809e-09
3.7339782e-12
1.520321e-09
3.7599014e-12
1.5166761e-09
3.6448948e-12
1.5129959e-09
3.6802071e-12
1.5094375e-09
3.5583477e-12
1.5058335e-09
3.6040869e-12
1.502359e-09
3.4744509e-12
1.4988272e-09
3.5318304e-12
1.4954338e-09
3.3933602e-12
1.49197e-09
3.4637886e-12
1.4886547e-09
3.3152941e-12
1.4852543e-09
3.4004241e-12
1.4820138e-09
3.2405166e-12
1.4786715e-09
3.3423247e-12
1.4755021e-09
3.1693889e-12
1.4722118e-09
3.2902365e-12
1.4691095e-09
3.1023749e-12
1.4658643e-09
3.2451511e-12
1.4628242e-09
3.0400752e-12
1.4596158e-09
3.2083942e-12
1.4566326e-09
2.9832834e-12
1.4534507e-09
3.1818085e-12
1.4505177e-09
2.9330479e-12
1.4473496e-09
3.1680843e-12
1.4444589e-09
2.8907478e-12
1.4412873e-09
3.1715208e-12
1.438429e-09
2.8583126e-12
1.4352276e-09
3.2013956e-12
1.4323867e-09
2.8409283e-12
3.5678918e-12
4.194459e-08
1.0465733e-08
-4.2464673e-08
3.8698342e-08
1.2455813e-08
3.4615699e-08
1.0436447e-08
3.0799708e-08
7.3837242e-09
2.7651819e-08
4.9645204e-09
2.5118491e-08
3.5309722e-09
2.3094309e-08
2.6537559e-09
2.1480474e-08
2.0752272e-09
2.0180288e-08
1.6767857e-09
1.9107669e-08
1.3959049e-09
1.8199428e-08
1.1901177e-09
1.7414252e-08
1.032007e-09
1.6725246e-08
9.0622352e-10
1.6113893e-08
8.0396749e-10
1.5566552e-08
7.1964203e-10
1.5072719e-08
6.4926615e-10
1.4624124e-08
5.898429e-10
1.4214184e-08
5.3909512e-10
1.3837593e-08
4.9530956e-10
1.3490026e-08
4.5718955e-10
1.3167914e-08
4.2374757e-10
1.2868275e-08
3.9421083e-10
1.25886e-08
3.6796969e-10
1.2326753e-08
3.4452911e-10
1.2080907e-08
3.23489e-10
1.184949e-08
3.0451554e-10
1.1631136e-08
2.8733601e-10
1.1424657e-08
2.7171818e-10
1.122901e-08
2.5747132e-10
1.1043277e-08
2.4442955e-10
1.0866647e-08
2.3245641e-10
1.0698398e-08
2.2143036e-10
1.0537886e-08
2.112517e-10
1.0384536e-08
2.0182927e-10
1.0237829e-08
1.9308887e-10
1.00973e-08
1.8496064e-10
9.9625256e-09
1.7738855e-10
9.8331247e-09
1.7031808e-10
9.7087485e-09
1.6370636e-10
9.589081e-09
1.5751006e-10
9.4738318e-09
1.5169609e-10
9.3627367e-09
1.4622943e-10
9.2555514e-09
1.4108437e-10
9.152053e-09
1.3623218e-10
9.0520344e-09
1.3165279e-10
8.9553063e-09
1.2732229e-10
8.8616914e-09
1.2322504e-10
8.7710279e-09
1.1934083e-10
8.6831631e-09
1.1565745e-10
8.5979575e-09
1.1215757e-10
8.5152789e-09
1.0883169e-10
8.4350065e-09
1.0566475e-10
8.3570251e-09
1.0264947e-10
8.2812295e-09
9.9772613e-11
8.2075185e-09
9.7028766e-11
8.1358001e-09
9.4406085e-11
8.0659853e-09
9.1900639e-11
7.9979931e-09
8.9501665e-11
7.9317447e-09
8.7206473e-11
7.8671686e-09
8.5005223e-11
7.8041947e-09
8.2896331e-11
7.7427597e-09
8.0870703e-11
7.682801e-09
7.8927639e-11
7.6242622e-09
7.7058561e-11
7.5670871e-09
7.5263512e-11
7.5112257e-09
7.3534391e-11
7.4566272e-09
7.1871967e-11
7.4032469e-09
7.0268554e-11
7.3510388e-09
6.8725476e-11
7.2999629e-09
6.7235283e-11
7.2499775e-09
6.5799763e-11
7.2010465e-09
6.4411742e-11
7.1531322e-09
6.3073506e-11
7.106202e-09
6.1778126e-11
7.0602214e-09
6.0528206e-11
7.0151609e-09
5.9316945e-11
6.970989e-09
5.8147233e-11
6.9276792e-09
5.701251e-11
6.8852023e-09
5.5915961e-11
6.8435344e-09
5.485119e-11
6.8026487e-09
5.3821496e-11
6.7625234e-09
5.2820646e-11
6.7231338e-09
5.1852082e-11
6.68446e-09
5.090986e-11
6.6464793e-09
4.9997455e-11
6.6091735e-09
4.9109118e-11
6.5725216e-09
4.8248253e-11
6.5365071e-09
4.7409447e-11
6.5011103e-09
4.6596049e-11
6.4663161e-09
4.5803017e-11
6.4321064e-09
4.5033415e-11
6.3984672e-09
4.4282605e-11
6.3653818e-09
4.3553382e-11
6.3328373e-09
4.2841664e-11
6.3008181e-09
4.2149843e-11
6.2693124e-09
4.1474404e-11
6.2383055e-09
4.0817122e-11
6.2077867e-09
4.0175306e-11
6.1777424e-09
3.9550121e-11
6.1481623e-09
3.8939624e-11
6.1190341e-09
3.8344188e-11
6.090348e-09
3.7762879e-11
6.0620928e-09
3.7194949e-11
6.0342591e-09
3.6640877e-11
6.0068367e-09
3.6098668e-11
5.9798167e-09
3.5569949e-11
5.9531896e-09
3.5051605e-11
5.9269471e-09
3.4546694e-11
5.9010805e-09
3.4050483e-11
5.8755816e-09
3.3567925e-11
5.850443e-09
3.3092319e-11
5.8256562e-09
3.2630712e-11
5.8012149e-09
3.2174264e-11
5.7771107e-09
3.1732399e-11
5.7533383e-09
3.1293746e-11
5.7298891e-09
3.0870444e-11
5.706759e-09
3.0448343e-11
5.6839389e-09
3.0042599e-11
5.6614259e-09
2.9635846e-11
5.6392107e-09
2.9246709e-11
5.6172915e-09
2.8854207e-11
5.5956584e-09
2.8480826e-11
5.5743111e-09
2.8101508e-11
5.5532386e-09
2.7743102e-11
5.5324425e-09
2.7375955e-11
5.5119107e-09
2.7031841e-11
5.4916465e-09
2.6675922e-11
5.4716365e-09
2.6345459e-11
5.4518859e-09
2.5999832e-11
5.43238e-09
2.5682483e-11
5.4131259e-09
2.5346278e-11
5.3941074e-09
2.5041544e-11
5.3753338e-09
2.4713897e-11
5.3567869e-09
2.4421383e-11
5.3384786e-09
2.4101474e-11
5.3203886e-09
2.3820809e-11
5.3025314e-09
2.3507824e-11
5.2848843e-09
2.3238739e-11
5.2674646e-09
2.2931889e-11
5.2502472e-09
2.2674157e-11
5.2332525e-09
2.2372657e-11
5.2164522e-09
2.2126136e-11
5.1998704e-09
2.1829214e-11
5.1834754e-09
2.1593817e-11
5.1672953e-09
2.1300684e-11
5.1512944e-09
2.1076408e-11
5.1355053e-09
2.0786298e-11
5.1198878e-09
2.0573199e-11
5.1044793e-09
2.0285312e-11
5.0892351e-09
2.0083553e-11
5.0741977e-09
1.9797093e-11
5.059317e-09
1.9606887e-11
5.0446415e-09
1.9321029e-11
5.0301149e-09
1.9142709e-11
5.0157924e-09
1.8856605e-11
5.001611e-09
1.869058e-11
4.987633e-09
1.8403355e-11
4.973788e-09
1.8250156e-11
4.9601464e-09
1.7960896e-11
4.9466293e-09
1.7821157e-11
4.9333161e-09
1.7528894e-11
4.9201187e-09
1.7403393e-11
4.9071261e-09
1.7107113e-11
4.8942402e-09
1.6996746e-11
4.8815606e-09
1.6695378e-11
4.8689779e-09
1.6601216e-11
4.8566038e-09
1.6293607e-11
4.8443161e-09
1.6216888e-11
4.8322398e-09
1.5901808e-11
4.8202388e-09
1.584398e-11
4.8084526e-09
1.5520092e-11
4.7967297e-09
1.5482833e-11
4.7852259e-09
1.51487e-11
4.7737722e-09
1.5133943e-11
4.7625425e-09
1.4788001e-11
4.7513486e-09
1.4797977e-11
4.7403846e-09
1.4438524e-11
4.7294406e-09
1.4475825e-11
4.7187329e-09
1.4100981e-11
4.7080281e-09
1.4168621e-11
4.6975671e-09
1.3776335e-11
4.6870897e-09
1.3877811e-11
4.6768644e-09
1.3465826e-11
4.6666014e-09
1.360525e-11
4.6565998e-09
1.3171074e-11
4.6465367e-09
1.3353291e-11
4.6367449e-09
1.2894226e-11
4.626865e-09
1.3124966e-11
4.617267e-09
1.2638133e-11
4.6075511e-09
1.2924247e-11
4.5981277e-09
1.240669e-11
4.5885531e-09
1.2756397e-11
4.5792807e-09
1.2205452e-11
4.5698203e-09
1.2628507e-11
4.5606682e-09
1.2042848e-11
4.5512894e-09
1.2550362e-11
4.5422142e-09
1.1933487e-11
4.5328725e-09
1.254306e-11
4.5237876e-09
1.1925853e-11
1.3271917e-11
4.4985416e-08
9.3760192e-09
-4.3895702e-08
4.4926145e-08
1.2515084e-08
4.3804184e-08
1.1558408e-08
4.210076e-08
9.0871484e-09
4.0236589e-08
6.8286915e-09
3.8381194e-08
5.3863671e-09
3.6586149e-08
4.4488004e-09
3.4904486e-08
3.7568905e-09
3.3367745e-08
3.213527e-09
3.1978292e-08
2.7853582e-09
3.0723579e-08
2.4448307e-09
2.9588333e-08
2.1672531e-09
2.8558549e-08
1.9360075e-09
2.7621881e-08
1.7406349e-09
2.6767258e-08
1.5742652e-09
2.5984739e-08
1.4317854e-09
2.5265535e-08
1.3090464e-09
2.4602013e-08
1.2026176e-09
2.3987612e-08
1.1097102e-09
2.3416729e-08
1.0280732e-09
2.288457e-08
9.5590647e-10
2.2387029e-08
8.9175136e-10
2.192057e-08
8.3442881e-10
2.1482133e-08
7.8296572e-10
2.1069058e-08
7.3656478e-10
2.0679019e-08
6.9455445e-10
2.0309975e-08
6.5637982e-10
1.9960128e-08
6.2156508e-10
1.9627884e-08
5.8971504e-10
1.931183e-08
5.6048432e-10
1.90107e-08
5.3358562e-10
1.8723368e-08
5.0876255e-10
1.8448818e-08
4.8580232e-10
1.8186136e-08
4.6451065e-10
1.7934498e-08
4.4472738e-10
1.7693156e-08
4.2630241e-10
1.7461431e-08
4.0911366e-10
1.7238706e-08
3.9304319e-10
1.7024415e-08
3.7799686e-10
1.6818045e-08
3.6388046e-10
1.661912e-08
3.5062075e-10
1.6427208e-08
3.3814133e-10
1.6241908e-08
3.2638484e-10
1.6062851e-08
3.1528839e-10
1.5889697e-08
3.0480694e-10
1.5722132e-08
2.9488799e-10
1.5559861e-08
2.8549613e-10
1.5402614e-08
2.7658691e-10
1.5250139e-08
2.6813252e-10
1.5102202e-08
2.6009473e-10
1.4958582e-08
2.5245182e-10
1.4819076e-08
2.4517046e-10
1.4683492e-08
2.3823395e-10
1.4551652e-08
2.3161285e-10
1.4423386e-08
2.2529463e-10
1.4298539e-08
2.1925291e-10
1.4176961e-08
2.1347853e-10
1.4058515e-08
2.0794749e-10
1.3943068e-08
2.0265349e-10
1.3830499e-08
1.9757446e-10
1.3720689e-08
1.9270664e-10
1.361353e-08
1.880295e-10
1.3508916e-08
1.8354139e-10
1.3406752e-08
1.7922288e-10
1.3306941e-08
1.7507414e-10
1.3209399e-08
1.7107664e-10
1.3114039e-08
1.6723229e-10
1.3020784e-08
1.6352331e-10
1.2929556e-08
1.5995305e-10
1.2840287e-08
1.5650413e-10
1.2752906e-08
1.5318118e-10
1.2667351e-08
1.4996721e-10
1.2583556e-08
1.4686812e-10
1.2501467e-08
1.4386723e-10
1.2421024e-08
1.4097145e-10
1.2342176e-08
1.381642e-10
1.226487e-08
1.3545331e-10
1.218906e-08
1.3282238e-10
1.2114696e-08
1.302802e-10
1.2041737e-08
1.2781041e-10
1.1970136e-08
1.2542249e-10
1.1899857e-08
1.2310008e-10
1.1830855e-08
1.2085339e-10
1.1763099e-08
1.1866618e-10
1.1696547e-08
1.1654923e-10
1.163117e-08
1.1448628e-10
1.156693e-08
1.1248857e-10
1.1503799e-08
1.1053994e-10
1.1441743e-08
1.086521e-10
1.1380737e-08
1.0680903e-10
1.1320748e-08
1.0502261e-10
1.1261754e-08
1.0327699e-10
1.1203723e-08
1.0158422e-10
1.1146636e-08
9.9928783e-11
1.1090463e-08
9.8322762e-11
1.1035186e-08
9.6750977e-11
1.0980778e-08
9.5225237e-11
1.0927222e-08
9.3731002e-11
1.0874492e-08
9.2279868e-11
1.0822574e-08
9.0857793e-11
1.0771443e-08
8.9475891e-11
1.0721084e-08
8.812103e-11
1.0671476e-08
8.6803341e-11
1.0622606e-08
8.5511102e-11
1.0574451e-08
8.4253434e-11
1.0527002e-08
8.3019505e-11
1.0480236e-08
8.181764e-11
1.0434144e-08
8.0638351e-11
1.0388706e-08
7.9488385e-11
1.0343914e-08
7.8360271e-11
1.0299747e-08
7.7258734e-11
1.0256199e-08
7.6178511e-11
1.0213252e-08
7.5122118e-11
1.0170897e-08
7.4086884e-11
1.0129118e-08
7.3072579e-11
1.0087909e-08
7.2079552e-11
1.0047253e-08
7.1104527e-11
1.0007144e-08
7.015126e-11
9.9675673e-09
6.9212843e-11
9.928517e-09
6.8297031e-11
9.8899784e-09
6.7392769e-11
9.8519469e-09
6.6512313e-11
9.8144085e-09
6.5639858e-11
9.7773588e-09
6.4792826e-11
9.7407848e-09
6.3949969e-11
9.704682e-09
6.3134612e-11
9.6690387e-09
6.2319292e-11
9.6338501e-09
6.1533981e-11
9.5991058e-09
6.0744203e-11
9.5648007e-09
5.9987497e-11
9.5309256e-09
5.9221403e-11
9.4974752e-09
5.8491959e-11
9.4644413e-09
5.7747751e-11
9.4318183e-09
5.7044413e-11
9.3995994e-09
5.6320388e-11
9.3677781e-09
5.5642071e-11
9.3363494e-09
5.4936583e-11
9.3053057e-09
5.4282379e-11
9.2746438e-09
5.3593848e-11
9.244355e-09
5.2962945e-11
9.2144378e-09
5.2289841e-11
9.1848824e-09
5.1681569e-11
9.1556892e-09
5.1022407e-11
9.1268468e-09
5.0436211e-11
9.0983579e-09
4.9789524e-11
9.0702094e-09
4.9224983e-11
9.0424063e-09
4.8589371e-11
9.0149333e-09
4.8046181e-11
8.9877984e-09
4.7420231e-11
8.9609837e-09
4.6898259e-11
8.9345002e-09
4.6280595e-11
8.9083273e-09
4.57798e-11
8.8824793e-09
4.5169048e-11
8.8569324e-09
4.4689578e-11
8.8317046e-09
4.4084368e-11
8.8067687e-09
4.3626498e-11
8.7821466e-09
4.302547e-11
8.7578071e-09
4.2589661e-11
8.7337766e-09
4.1991432e-11
8.7100194e-09
4.1578313e-11
8.6865668e-09
4.0981485e-11
8.6633783e-09
4.0591889e-11
8.6404904e-09
3.9995048e-11
8.6178571e-09
3.9629994e-11
8.5955208e-09
3.9031713e-11
8.5734296e-09
3.8692465e-11
8.5516319e-09
3.8091265e-11
8.5300694e-09
3.7779337e-11
8.5087975e-09
3.7173717e-11
8.4877506e-09
3.6890905e-11
8.4669914e-09
3.6279312e-11
8.4464465e-09
3.6027733e-11
8.4261866e-09
3.5408588e-11
8.4061299e-09
3.5190693e-11
8.3863555e-09
3.4562385e-11
8.3667724e-09
3.4381016e-11
8.347469e-09
3.3741909e-11
8.3283445e-09
3.360036e-11
8.3094967e-09
3.2948801e-11
8.2908144e-09
3.2850879e-11
8.2724055e-09
3.218526e-11
8.254148e-09
3.2135327e-11
8.2361597e-09
3.1454152e-11
8.2183077e-09
3.1457234e-11
8.2007195e-09
3.0759222e-11
8.1832518e-09
3.0821062e-11
8.1660406e-09
3.0105434e-11
8.148933e-09
3.0232504e-11
8.1320717e-09
2.9499426e-11
8.1152971e-09
2.9698899e-11
8.0987534e-09
2.8950327e-11
8.0822801e-09
2.922975e-11
8.0660143e-09
2.8471208e-11
8.0498053e-09
2.8837512e-11
8.0337665e-09
2.8081683e-11
8.0177773e-09
2.8539552e-11
8.0018987e-09
2.7812094e-11
7.9860553e-09
2.8386493e-11
7.9702415e-09
2.7739614e-11
2.9330723e-11
4.6708301e-08
8.4205394e-09
-4.5752821e-08
4.7419063e-08
1.1804322e-08
4.7560609e-08
1.1416862e-08
4.7201011e-08
9.4467456e-09
4.6552881e-08
7.4768219e-09
4.5745391e-08
6.193857e-09
4.4815622e-08
5.3785692e-09
4.3809001e-08
4.7635115e-09
4.2773465e-08
4.2490637e-09
4.1740526e-08
3.8182972e-09
4.0725856e-08
3.4595e-09
3.973781e-08
3.1552996e-09
3.8782371e-08
2.8914461e-09
3.7863991e-08
2.659015e-09
3.6985446e-08
2.4528102e-09
3.6147906e-08
2.2693251e-09
3.5351267e-08
2.1056858e-09
3.4594544e-08
1.95934e-09
3.3876199e-08
1.8280553e-09
3.3194374e-08
1.7098988e-09
3.2547048e-08
1.6032318e-09
3.1932155e-08
1.5066445e-09
3.1347646e-08
1.4189384e-09
3.0791541e-08
1.3390706e-09
3.0261955e-08
1.2661506e-09
2.9757116e-08
1.1993931e-09
2.9275368e-08
1.1381284e-09
2.8815173e-08
1.0817602e-09
2.8375106e-08
1.0297813e-09
2.7953856e-08
9.8173435e-10
2.7550209e-08
9.3723277e-10
2.716305e-08
8.9592198e-10
2.6791347e-08
8.5750469e-10
2.6434155e-08
8.2170276e-10
2.6090597e-08
7.8828567e-10
2.5759867e-08
7.5703235e-10
2.5441218e-08
7.2776278e-10
2.5133962e-08
7.0029913e-10
2.4837459e-08
6.7449978e-10
2.455112e-08
6.5021976e-10
2.4274393e-08
6.2734715e-10
2.4006773e-08
6.0576222e-10
2.3747781e-08
5.8537622e-10
2.3496981e-08
5.6608901e-10
2.3253957e-08
5.4783016e-10
2.301833e-08
5.3051487e-10
2.2789739e-08
5.1408735e-10
2.2567851e-08
4.9847483e-10
2.235235e-08
4.8363333e-10
2.2142946e-08
4.6949948e-10
2.1939359e-08
4.5603891e-10
2.1741333e-08
4.4319574e-10
2.1548624e-08
4.309436e-10
2.1361004e-08
4.192326e-10
2.1178255e-08
4.0804313e-10
2.1000178e-08
3.9732997e-10
2.0826578e-08
3.8707915e-10
2.0657276e-08
3.7724907e-10
2.0492099e-08
3.6783059e-10
2.0330889e-08
3.5878504e-10
2.0173488e-08
3.5010759e-10
2.0019755e-08
3.4176184e-10
1.986955e-08
3.3374668e-10
1.9722746e-08
3.2602728e-10
1.9579214e-08
3.1860582e-10
1.9438842e-08
3.1144873e-10
1.9301513e-08
3.0456125e-10
1.9167125e-08
2.9791075e-10
1.9035573e-08
2.915052e-10
1.8906765e-08
2.8531239e-10
1.8780603e-08
2.7934276e-10
1.8657006e-08
2.7356442e-10
1.8535884e-08
2.6799024e-10
1.8417163e-08
2.6258846e-10
1.830076e-08
2.5737409e-10
1.8186609e-08
2.5231514e-10
1.8074634e-08
2.4742866e-10
1.7964774e-08
2.4268248e-10
1.7856958e-08
2.3809569e-10
1.7751133e-08
2.3363572e-10
1.7647232e-08
2.293234e-10
1.7545206e-08
2.2512564e-10
1.7444995e-08
2.2106505e-10
1.7346553e-08
2.1710811e-10
1.7249823e-08
2.1327906e-10
1.7154766e-08
2.0954373e-10
1.7061326e-08
2.0592785e-10
1.696947e-08
2.0239666e-10
1.6879144e-08
1.9897745e-10
1.6790318e-08
1.9563488e-10
1.6702944e-08
1.9239745e-10
1.6616991e-08
1.892292e-10
1.6532416e-08
1.861599e-10
1.6449191e-08
1.8315309e-10
1.6367275e-08
1.8023968e-10
1.6286643e-08
1.773827e-10
1.6207254e-08
1.7461383e-10
1.6129089e-08
1.7189584e-10
1.6052108e-08
1.6926141e-10
1.5976293e-08
1.6667281e-10
1.5901605e-08
1.6416328e-10
1.5828031e-08
1.6169521e-10
1.5755533e-08
1.5930185e-10
1.5684098e-08
1.5694601e-10
1.561369e-08
1.5466129e-10
1.5544299e-08
1.5241008e-10
1.5475891e-08
1.5022648e-10
1.5408456e-08
1.4807326e-10
1.534196e-08
1.4598394e-10
1.5276398e-08
1.4392238e-10
1.5211735e-08
1.4192121e-10
1.5147969e-08
1.399454e-10
1.5085064e-08
1.3802656e-10
1.502302e-08
1.3613118e-10
1.4961803e-08
1.342893e-10
1.4901413e-08
1.3246933e-10
1.4841818e-08
1.3069943e-10
1.4783019e-08
1.2895035e-10
1.4724984e-08
1.2724776e-10
1.4667716e-08
1.2556531e-10
1.4611183e-08
1.2392571e-10
1.455539e-08
1.22306e-10
1.4500304e-08
1.2072529e-10
1.4445932e-08
1.1916472e-10
1.4392243e-08
1.1763906e-10
1.4339243e-08
1.161343e-10
1.4286903e-08
1.1466012e-10
1.4235228e-08
1.1320809e-10
1.4184191e-08
1.1178195e-10
1.4133798e-08
1.1037985e-10
1.4084021e-08
1.0899858e-10
1.4034869e-08
1.0764379e-10
1.3986313e-08
1.0630435e-10
1.3938363e-08
1.0499453e-10
1.3890989e-08
1.0369404e-10
1.3844204e-08
1.02427e-10
1.3797978e-08
1.0116273e-10
1.3752324e-08
9.9936526e-11
1.3707212e-08
9.8705881e-11
1.3662656e-08
9.7518743e-11
1.3618627e-08
9.6319248e-11
1.3575138e-08
9.5169613e-11
1.3532162e-08
9.3998891e-11
1.3489713e-08
9.2885374e-11
1.3447761e-08
9.174114e-11
1.3406324e-08
9.0662551e-11
1.336537e-08
8.9542648e-11
1.3324919e-08
8.8497974e-11
1.3284939e-08
8.7400292e-11
1.3245448e-08
8.6388752e-11
1.3206417e-08
8.5311279e-11
1.3167865e-08
8.4332235e-11
1.3129761e-08
8.3273026e-11
1.3092124e-08
8.2326089e-11
1.3054926e-08
8.1283267e-11
1.3018184e-08
8.0368221e-11
1.2981869e-08
7.9339994e-11
1.2946002e-08
7.8456868e-11
1.2910552e-08
7.7441479e-11
1.287554e-08
7.6590523e-11
1.2840935e-08
7.5586289e-11
1.2806759e-08
7.4767996e-11
1.2772981e-08
7.3773306e-11
1.2739622e-08
7.2988407e-11
1.2706652e-08
7.2001731e-11
1.2674093e-08
7.1251251e-11
1.2641914e-08
7.0271108e-11
1.2610137e-08
6.9556368e-11
1.2578729e-08
6.8581392e-11
1.2547716e-08
6.7904028e-11
1.2517062e-08
6.6932946e-11
1.2486795e-08
6.6294959e-11
1.2456877e-08
6.5326644e-11
1.2427337e-08
6.4730389e-11
1.2398136e-08
6.3763904e-11
1.2369304e-08
6.3212146e-11
1.23408e-08
6.2246781e-11
1.2312657e-08
6.1742741e-11
1.2284828e-08
6.0778112e-11
1.2257353e-08
6.0325487e-11
1.2230177e-08
5.9361688e-11
1.2203348e-08
5.8964668e-11
1.2176799e-08
5.800247e-11
1.2150591e-08
5.7665774e-11
1.2124643e-08
5.6706951e-11
1.2099028e-08
5.6435773e-11
1.207365e-08
5.5483691e-11
1.2048599e-08
5.5283566e-11
1.2023754e-08
5.4344083e-11
1.1999233e-08
5.4220622e-11
1.1974879e-08
5.3303614e-11
1.1950847e-08
5.3261982e-11
1.1926934e-08
5.2383809e-11
1.1903344e-08
5.2428241e-11
1.1879811e-08
5.1614611e-11
1.1856598e-08
5.1752411e-11
1.1833376e-08
5.1033937e-11
1.1810423e-08
5.1339756e-11
1.1787425e-08
5.0736999e-11
5.2279224e-11
4.8508713e-08
7.6800181e-09
-4.7768192e-08
4.9286633e-08
1.1026402e-08
4.9723648e-08
1.0979847e-08
4.9836378e-08
9.3340157e-09
4.9749763e-08
7.5634367e-09
4.9545104e-08
6.3985162e-09
4.9231711e-08
5.6919622e-09
4.8820704e-08
5.1745192e-09
4.8338041e-08
4.7317266e-09
4.7807333e-08
4.349005e-09
4.7241759e-08
4.0250736e-09
4.6648711e-08
3.7483475e-09
4.6034737e-08
3.5054206e-09
4.5406584e-08
3.2871681e-09
4.4770669e-08
3.0887254e-09
4.4132563e-08
2.9074306e-09
4.3496841e-08
2.7414077e-09
4.2867161e-08
2.5890199e-09
4.2246397e-08
2.44882e-09
4.1636764e-08
2.3195318e-09
4.1039922e-08
2.2000734e-09
4.045707e-08
2.0894962e-09
3.988902e-08
1.9869886e-09
3.9336273e-08
1.8918177e-09
3.8799076e-08
1.8033476e-09
3.827748e-08
1.7209885e-09
3.777138e-08
1.6442286e-09
3.7280555e-08
1.5725858e-09
3.6804691e-08
1.505645e-09
3.6343417e-08
1.4430083e-09
3.5896312e-08
1.384338e-09
3.5462929e-08
1.3293042e-09
3.5042803e-08
1.2776315e-09
3.463546e-08
1.2290448e-09
3.4240427e-08
1.1833195e-09
3.3857234e-08
1.1402248e-09
3.348542e-08
1.0995774e-09
3.3124536e-08
1.0611828e-09
3.2774144e-08
1.0248915e-09
3.2433826e-08
9.9053806e-10
3.2103172e-08
9.5800086e-10
3.1781796e-08
9.2713802e-10
3.1469322e-08
8.9785098e-10
3.1165394e-08
8.7001695e-10
3.0869667e-08
8.4355647e-10
3.058182e-08
8.1836229e-10
3.0301536e-08
7.943709e-10
3.0028524e-08
7.7148758e-10
2.9762495e-08
7.496622e-10
2.9503184e-08
7.288101e-10
2.9250331e-08
7.0889241e-10
2.9003694e-08
6.8983261e-10
2.8763036e-08
6.7160158e-10
2.8528139e-08
6.5412932e-10
2.8298787e-08
6.3739522e-10
2.8074782e-08
6.213344e-10
2.7855928e-08
6.0593357e-10
2.7642045e-08
5.911318e-10
2.7432954e-08
5.7692225e-10
2.7228492e-08
5.6324712e-10
2.7028494e-08
5.5010549e-10
2.6832814e-08
5.3744186e-10
2.66413e-08
5.2526062e-10
2.6453819e-08
5.1350777e-10
2.6270233e-08
5.0219249e-10
2.6090419e-08
4.9126181e-10
2.5914251e-08
4.8072952e-10
2.5741619e-08
4.7054327e-10
2.5572403e-08
4.6072102e-10
2.5406505e-08
4.5121043e-10
2.5243814e-08
4.4203342e-10
2.5084241e-08
4.3313736e-10
2.4927683e-08
4.2454812e-10
2.4774059e-08
4.1621255e-10
2.4623273e-08
4.0816015e-10
2.4475252e-08
4.0033676e-10
2.4329905e-08
3.9277541e-10
2.4187166e-08
3.854209e-10
2.4046952e-08
3.7830986e-10
2.3909202e-08
3.7138571e-10
2.3773837e-08
3.646884e-10
2.3640803e-08
3.5815973e-10
2.3510025e-08
3.5184303e-10
2.3381455e-08
3.4567854e-10
2.3255021e-08
3.397129e-10
2.313068e-08
3.3388437e-10
2.3008365e-08
3.2824282e-10
2.2888037e-08
3.2272456e-10
2.2769632e-08
3.1738276e-10
2.2653115e-08
3.1215173e-10
2.2538425e-08
3.0708765e-10
2.2425532e-08
3.0212264e-10
2.2314375e-08
2.9731606e-10
2.2204931e-08
2.9259789e-10
2.209714e-08
2.8803055e-10
2.1990981e-08
2.8354178e-10
2.1886398e-08
2.7919683e-10
2.1783372e-08
2.7492128e-10
2.168185e-08
2.707835e-10
2.1581816e-08
2.667067e-10
2.1483218e-08
2.6276182e-10
2.1386043e-08
2.5887031e-10
2.1290239e-08
2.5510541e-10
2.1195799e-08
2.5138657e-10
2.110267e-08
2.4779012e-10
2.1010847e-08
2.442326e-10
2.092028e-08
2.4079321e-10
2.0830967e-08
2.3738679e-10
2.0742857e-08
2.3409431e-10
2.065595e-08
2.3082919e-10
2.0570197e-08
2.2767432e-10
2.04856e-08
2.2454152e-10
2.0402112e-08
2.2151544e-10
2.0319736e-08
2.1850671e-10
2.0238424e-08
2.1560134e-10
2.0158184e-08
2.1270893e-10
2.0078967e-08
2.0991672e-10
2.0000784e-08
2.0713359e-10
1.9923584e-08
2.0444749e-10
1.9847383e-08
2.0176699e-10
1.9772128e-08
1.9918047e-10
1.9697837e-08
1.965965e-10
1.9624459e-08
1.9410336e-10
1.9552014e-08
1.9161021e-10
1.9480448e-08
1.8920472e-10
1.9409785e-08
1.8679709e-10
1.9339972e-08
1.8447384e-10
1.9271033e-08
1.8214682e-10
1.9202914e-08
1.799007e-10
1.9135644e-08
1.7764972e-10
1.9069167e-08
1.7547599e-10
1.9003514e-08
1.7329681e-10
1.8938627e-08
1.7119094e-10
1.8874542e-08
1.6907966e-10
1.8811199e-08
1.6703745e-10
1.8748635e-08
1.6499041e-10
1.868679e-08
1.6300784e-10
1.8625705e-08
1.6102172e-10
1.8565316e-08
1.5909502e-10
1.8505668e-08
1.5716672e-10
1.8446695e-08
1.5529235e-10
1.8388445e-08
1.5341908e-10
1.833085e-08
1.5159365e-10
1.8273963e-08
1.4977284e-10
1.8217711e-08
1.4799317e-10
1.8162151e-08
1.4622251e-10
1.8107208e-08
1.4448562e-10
1.8052943e-08
1.4276304e-10
1.7999277e-08
1.4106609e-10
1.7946276e-08
1.393898e-10
1.7893857e-08
1.3773015e-10
1.7842091e-08
1.3609855e-10
1.779089e-08
1.3447371e-10
1.7740331e-08
1.328855e-10
1.7690321e-08
1.3129315e-10
1.7640942e-08
1.2974723e-10
1.7592097e-08
1.2818526e-10
1.7543873e-08
1.2668083e-10
1.7496167e-08
1.2514725e-10
1.7449074e-08
1.2368377e-10
1.7402483e-08
1.2217679e-10
1.7356497e-08
1.2075397e-10
1.7310998e-08
1.1927204e-10
1.7266097e-08
1.1788987e-10
1.7221667e-08
1.1643164e-10
1.7177828e-08
1.1509042e-10
1.7134444e-08
1.1365476e-10
1.7091646e-08
1.1235511e-10
1.7049286e-08
1.1094122e-10
1.7007506e-08
1.0968406e-10
1.6966147e-08
1.0829143e-10
1.6925364e-08
1.0707805e-10
1.6884984e-08
1.057066e-10
1.6845176e-08
1.0453863e-10
1.6805751e-08
1.0318876e-10
1.6766895e-08
1.0206821e-10
1.6728401e-08
1.007409e-10
1.6690473e-08
9.9670191e-11
1.6652884e-08
9.8367204e-11
1.6615861e-08
9.7349142e-11
1.6579149e-08
9.6073239e-11
1.6543003e-08
9.5111057e-11
1.6507139e-08
9.3866323e-11
1.6471841e-08
9.2963653e-11
1.6436792e-08
9.1756008e-11
1.6402311e-08
9.091684e-11
1.636804e-08
8.9754755e-11
1.633434e-08
8.8983401e-11
1.6300805e-08
8.7878952e-11
1.6267846e-08
8.7180081e-11
1.6234999e-08
8.6150314e-11
1.6202731e-08
8.5529608e-11
1.6170517e-08
8.4597635e-11
1.6138881e-08
8.4065064e-11
1.6107238e-08
8.3257514e-11
1.6076147e-08
8.2843554e-11
1.604501e-08
8.2170797e-11
1.601432e-08
8.202974e-11
1.5983585e-08
8.1471335e-11
8.2685617e-11
5.0434354e-08
7.1052355e-09
-4.9859571e-08
5.1196628e-08
1.0264128e-08
5.1670553e-08
1.0505922e-08
5.1882292e-08
9.1222766e-09
5.1956936e-08
7.4887928e-09
5.197007e-08
6.3853819e-09
5.1925718e-08
5.7363148e-09
5.1817716e-08
5.2825211e-09
5.1655631e-08
4.8938108e-09
5.14541e-08
4.5505359e-09
5.1220572e-08
4.2586021e-09
5.0956755e-08
4.0121644e-09
5.0663571e-08
3.7986049e-09
5.0343134e-08
3.6076051e-09
4.9998512e-08
3.4333476e-09
4.9633071e-08
3.2728711e-09
4.9250082e-08
3.1243974e-09
4.8852602e-08
2.9864991e-09
4.8443463e-08
2.8579592e-09
4.8025271e-08
2.7377235e-09
4.7600399e-08
2.6249458e-09
4.7170986e-08
2.518909e-09
4.6738933e-08
2.4190419e-09
4.6305916e-08
2.3248342e-09
4.5873393e-08
2.2358709e-09
4.5442624e-08
2.1517579e-09
4.5014679e-08
2.0721729e-09
4.4590471e-08
1.9967947e-09
4.4170752e-08
1.9253634e-09
4.3756152e-08
1.8576081e-09
4.3347176e-08
1.7933143e-09
4.2944232e-08
1.7322483e-09
4.2547633e-08
1.6742304e-09
4.2157622e-08
1.6190559e-09
4.1774368e-08
1.5665734e-09
4.1397992e-08
1.5166014e-09
4.1028557e-08
1.4690124e-09
4.0666095e-08
1.4236445e-09
4.0310596e-08
1.3803905e-09
3.9962029e-08
1.3391049e-09
3.9620332e-08
1.2996984e-09
3.928543e-08
1.2620392e-09
3.8957227e-08
1.2260539e-09
3.8635622e-08
1.1916224e-09
3.8320493e-08
1.1586853e-09
3.8011723e-08
1.1271325e-09
3.7709177e-08
1.0969169e-09