/*--------------------------------*- C++ -*----------------------------------*\
| =========                 |                                                 |
| \\      /  F ield         | OpenFOAM: The Open Source CFD Toolbox           |
|  \\    /   O peration     | Version:  5.x                                   |
|   \\  /    A nd           | Web:      www.OpenFOAM.org                      |
|    \\/     M anipulation  |                                                 |
\*---------------------------------------------------------------------------*/
FoamFile
{
    version     2.0;
    format      ascii;
    class       volVectorField;
    location    "0.6";
    object      U;
}
// * * * * * * * * * * * * * * * * * * * * * * * * * * * * * * * * * * * * * //

dimensions      [0 1 -1 0 0 0 0];

internalField   nonuniform List<vector> 
21600
(
(0.40517356 0.012133439 0)
(0.28658316 0.010905356 0)
(0.19462966 0.0064223042 0)
(0.14037736 0.0024872546 0)
(0.11280814 0.00059977514 0)
(0.097466347 0.00010205701 0)
(0.088149788 2.6413467e-05 0)
(0.08185422 5.7571759e-05 0)
(0.077027023 9.7625751e-05 0)
(0.072979781 0.00011626638 0)
(0.069456819 0.000115473 0)
(0.06636472 0.00010541833 0)
(0.063644165 9.3701696e-05 0)
(0.061238599 8.3334337e-05 0)
(0.059095137 7.4781368e-05 0)
(0.057168966 6.7729201e-05 0)
(0.055424362 6.1800366e-05 0)
(0.05383354 5.6715659e-05 0)
(0.052374661 5.229152e-05 0)
(0.051030299 4.8404438e-05 0)
(0.049786158 4.4967575e-05 0)
(0.048630394 4.1912836e-05 0)
(0.047552988 3.9186161e-05 0)
(0.046545474 3.6741319e-05 0)
(0.045600562 3.4540574e-05 0)
(0.044712028 3.2550798e-05 0)
(0.043874436 3.0745401e-05 0)
(0.043083105 2.9100649e-05 0)
(0.042333894 2.759779e-05 0)
(0.041623209 2.6219553e-05 0)
(0.04094783 2.4952542e-05 0)
(0.040304946 2.3783902e-05 0)
(0.039692011 2.2703903e-05 0)
(0.039106786 2.1702745e-05 0)
(0.038547227 2.0773251e-05 0)
(0.038011527 1.9907777e-05 0)
(0.037498025 1.9100982e-05 0)
(0.03700524 1.8346781e-05 0)
(0.036531808 1.7641155e-05 0)
(0.036076503 1.6979172e-05 0)
(0.035638194 1.6357802e-05 0)
(0.035215852 1.5772975e-05 0)
(0.034808533 1.5222406e-05 0)
(0.034415365 1.4702678e-05 0)
(0.034035557 1.4212084e-05 0)
(0.033668359 1.3747723e-05 0)
(0.033313106 1.3308342e-05 0)
(0.032969147 1.289144e-05 0)
(0.032635921 1.2496109e-05 0)
(0.032312855 1.2120148e-05 0)
(0.031999477 1.1762913e-05 0)
(0.031695278 1.1422444e-05 0)
(0.031399861 1.1098327e-05 0)
(0.031112769 1.0788816e-05 0)
(0.030833669 1.0493688e-05 0)
(0.030562144 1.0211358e-05 0)
(0.030297921 9.9417338e-06 0)
(0.030040612 9.6833437e-06 0)
(0.029789997 9.4362043e-06 0)
(0.029545711 9.1989686e-06 0)
(0.029307583 8.9717711e-06 0)
(0.029075264 8.7533725e-06 0)
(0.028848628 8.5439699e-06 0)
(0.028627334 8.3423793e-06 0)
(0.028411302 8.1488374e-06 0)
(0.028200195 7.9622494e-06 0)
(0.027993973 7.7829218e-06 0)
(0.0277923 7.6098555e-06 0)
(0.027595175 7.443364e-06 0)
(0.027402258 7.2824884e-06 0)
(0.02721359 7.1275307e-06 0)
(0.027028819 6.9776282e-06 0)
(0.026848026 6.8331085e-06 0)
(0.026670849 6.6932079e-06 0)
(0.026497409 6.5581958e-06 0)
(0.026327324 6.4273707e-06 0)
(0.026160758 6.3009477e-06 0)
(0.025997309 6.1783691e-06 0)
(0.025837184 6.0598075e-06 0)
(0.025679956 5.9448172e-06 0)
(0.025525877 5.8334372e-06 0)
(0.025374489 5.7253537e-06 0)
(0.025226093 5.6205056e-06 0)
(0.025080198 5.5187869e-06 0)
(0.024937153 5.4199758e-06 0)
(0.024796432 5.3241252e-06 0)
(0.024658433 5.2308085e-06 0)
(0.024522591 5.1403331e-06 0)
(0.02438936 5.0520834e-06 0)
(0.024258126 4.9666346e-06 0)
(0.024129405 4.8830587e-06 0)
(0.024002529 4.8022251e-06 0)
(0.023878079 4.7229202e-06 0)
(0.02375533 4.6463904e-06 0)
(0.023634931 4.5710614e-06 0)
(0.023516094 4.4985594e-06 0)
(0.023399544 4.42684e-06 0)
(0.023284421 4.3580544e-06 0)
(0.02317153 4.2897229e-06 0)
(0.023059937 4.2244502e-06 0)
(0.02295053 4.1592078e-06 0)
(0.022842294 4.0972473e-06 0)
(0.02273621 4.0348025e-06 0)
(0.022631171 3.9759322e-06 0)
(0.022528259 3.9161776e-06 0)
(0.022426267 3.8601799e-06 0)
(0.022326386 3.8028211e-06 0)
(0.022227301 3.7496308e-06 0)
(0.022130323 3.694446e-06 0)
(0.022034014 3.6438989e-06 0)
(0.021939815 3.59074e-06 0)
(0.02184616 3.542692e-06 0)
(0.021754628 3.4913678e-06 0)
(0.021663512 3.4457396e-06 0)
(0.02157454 3.3960765e-06 0)
(0.021485855 3.3527429e-06 0)
(0.021399346 3.3045786e-06 0)
(0.021312989 3.2634961e-06 0)
(0.021228852 3.2166512e-06 0)
(0.021144728 3.1777403e-06 0)
(0.021062877 3.1320748e-06 0)
(0.020980894 3.0952949e-06 0)
(0.02090125 3.0506415e-06 0)
(0.020821322 3.0159509e-06 0)
(0.020743812 2.972155e-06 0)
(0.020665859 2.9395346e-06 0)
(0.020590412 2.8964527e-06 0)
(0.020514356 2.8658838e-06 0)
(0.020440909 2.8233472e-06 0)
(0.020366677 2.7948421e-06 0)
(0.020295172 2.7527066e-06 0)
(0.020222693 2.7262683e-06 0)
(0.020153074 2.6843625e-06 0)
(0.020082282 2.6600385e-06 0)
(0.020014498 2.6182081e-06 0)
(0.019945328 2.5960266e-06 0)
(0.019879333 2.5540941e-06 0)
(0.019811724 2.5341309e-06 0)
(0.019747475 2.4919224e-06 0)
(0.019681366 2.4742444e-06 0)
(0.019618823 2.4315732e-06 0)
(0.019554157 2.4162847e-06 0)
(0.019493285 2.3729563e-06 0)
(0.019430004 2.3601691e-06 0)
(0.019370772 2.315968e-06 0)
(0.019308821 2.3058203e-06 0)
(0.019251199 2.2605342e-06 0)
(0.019190524 2.2531801e-06 0)
(0.019134486 2.2065593e-06 0)
(0.019075032 2.2021945e-06 0)
(0.019020557 2.15399e-06 0)
(0.018962271 2.1528147e-06 0)
(0.01890934 2.1027417e-06 0)
(0.018852166 2.1050114e-06 0)
(0.018800763 2.0527672e-06 0)
(0.018744646 2.0587498e-06 0)
(0.018694759 2.0040051e-06 0)
(0.018639644 2.0140234e-06 0)
(0.018591264 1.9564135e-06 0)
(0.018537092 1.9708264e-06 0)
(0.018490213 1.9099454e-06 0)
(0.018436924 1.9291667e-06 0)
(0.018391545 1.8645765e-06 0)
(0.018339075 1.8890623e-06 0)
(0.018295198 1.8202715e-06 0)
(0.018243481 1.8505581e-06 0)
(0.018201112 1.7770147e-06 0)
(0.018150076 1.8137027e-06 0)
(0.018109225 1.7347929e-06 0)
(0.018058793 1.7785735e-06 0)
(0.018019476 1.6936052e-06 0)
(0.017969564 1.7452647e-06 0)
(0.017931803 1.6534597e-06 0)
(0.017882318 1.713906e-06 0)
(0.01784614 1.614377e-06 0)
(0.017796979 1.6846518e-06 0)
(0.017762419 1.5763873e-06 0)
(0.017713468 1.6577122e-06 0)
(0.017680567 1.5395353e-06 0)
(0.017631697 1.6333281e-06 0)
(0.017600509 1.5038954e-06 0)
(0.01755157 1.6118289e-06 0)
(0.017522161 1.4695357e-06 0)
(0.01747298 1.5936308e-06 0)
(0.017445429 1.4365705e-06 0)
(0.017395804 1.5792618e-06 0)
(0.017370214 1.4051304e-06 0)
(0.017319901 1.5694489e-06 0)
(0.0172964 1.3753609e-06 0)
(0.017245101 1.565191e-06 0)
(0.017223858 1.347415e-06 0)
(0.017171194 1.5679487e-06 0)
(0.017152444 1.3213708e-06 0)
(0.017097907 1.580041e-06 0)
(0.017082002 1.2969418e-06 0)
(0.017024855 1.6058023e-06 0)
(0.017012405 1.272258e-06 0)
(0.016951367 1.6557322e-06 0)
(0.01694383 1.2443916e-06 0)
(0.016874587 2.0483634e-06 0)
(0.48430148 0.022535619 0)
(0.4568556 0.024514352 0)
(0.41445822 0.019498832 0)
(0.3704098 0.012617615 0)
(0.33188321 0.0073138897 0)
(0.29914029 0.0043275975 0)
(0.27267655 0.0027949197 0)
(0.25195428 0.0019946151 0)
(0.23565567 0.001556412 0)
(0.22245476 0.0012942441 0)
(0.21139476 0.0011136131 0)
(0.20189066 0.00097261097 0)
(0.19358681 0.00085668886 0)
(0.1862478 0.00076066468 0)
(0.17970179 0.00068113403 0)
(0.17381616 0.0006148666 0)
(0.16848611 0.0005590112 0)
(0.16362849 0.00051131767 0)
(0.15917653 0.0004701222 0)
(0.15507632 0.0004341989 0)
(0.15128346 0.00040263382 0)
(0.14776124 0.0003747164 0)
(0.14447873 0.00034988703 0)
(0.14140984 0.00032768812 0)
(0.13853219 0.00030774922 0)
(0.13582669 0.00028975831 0)
(0.1332767 0.00027346083 0)
(0.13086787 0.00025863817 0)
(0.12858754 0.00024511182 0)
(0.12642471 0.000232725 0)
(0.12436954 0.00022134992 0)
(0.12241343 0.00021087138 0)
(0.12054859 0.00020119606 0)
(0.11876819 0.00019223725 0)
(0.11706599 0.00018392555 0)
(0.11543647 0.00017619428 0)
(0.11387456 0.00016899111 0)
(0.11237573 0.00016226383 0)
(0.11093585 0.00015597251 0)
(0.10955114 0.00015007547 0)
(0.10821818 0.00014454199 0)
(0.10693382 0.00013933826 0)
(0.10569519 0.00013444047 0)
(0.10449963 0.00012982079 0)
(0.10334473 0.00012546076 0)
(0.1022282 0.00012133712 0)
(0.10114802 0.00011743557 0)
(0.1001022 0.0001137364 0)
(0.099089036 0.00011022856 0)
(0.098106778 0.00010689504 0)
(0.097154003 0.00010372734 0)
(0.09622914 0.0001007106 0)
(0.095331004 9.7838436e-05 0)
(0.094458175 9.5097762e-05 0)
(0.093609671 9.248393e-05 0)
(0.092784192 8.9985225e-05 0)
(0.091980935 8.7598352e-05 0)
(0.09119869 8.5312628e-05 0)
(0.090436821 8.3125896e-05 0)
(0.089694182 8.1028397e-05 0)
(0.088970287 7.9019027e-05 0)
(0.088264038 7.7088784e-05 0)
(0.087575089 7.523735e-05 0)
(0.086902368 7.3456223e-05 0)
(0.086245664 7.1745719e-05 0)
(0.085603917 7.0097855e-05 0)
(0.084977042 6.8513626e-05 0)
(0.084363979 6.6985529e-05 0)
(0.083764767 6.5515001e-05 0)
(0.083178327 6.4094791e-05 0)
(0.082604825 6.2726675e-05 0)
(0.082043151 6.1403774e-05 0)
(0.081493597 6.0128292e-05 0)
(0.08095501 5.8893702e-05 0)
(0.080427807 5.7702363e-05 0)
(0.079910781 5.6547952e-05 0)
(0.07940448 5.5432959e-05 0)
(0.078907629 5.4351477e-05 0)
(0.078420911 5.3306159e-05 0)
(0.077942971 5.229141e-05 0)
(0.077474631 5.1309761e-05 0)
(0.077014446 5.0355949e-05 0)
(0.076563385 4.9432456e-05 0)
(0.076119896 4.8534576e-05 0)
(0.075685105 4.7664566e-05 0)
(0.075257342 4.6818124e-05 0)
(0.074837895 4.5997128e-05 0)
(0.074424962 4.5197935e-05 0)
(0.07402001 4.4422084e-05 0)
(0.073621085 4.3666646e-05 0)
(0.073229841 4.2932451e-05 0)
(0.072844164 4.2217341e-05 0)
(0.072465907 4.1521487e-05 0)
(0.072092773 4.0843759e-05 0)
(0.071726835 4.0183451e-05 0)
(0.071365594 3.9540465e-05 0)
(0.071011355 3.891289e-05 0)
(0.070661403 3.830208e-05 0)
(0.070318292 3.7704962e-05 0)
(0.069979066 3.7124204e-05 0)
(0.069646552 3.6555251e-05 0)
(0.06931753 3.600254e-05 0)
(0.068995119 3.5459541e-05 0)
(0.068675816 3.4933018e-05 0)
(0.06836305 3.4414372e-05 0)
(0.068053009 3.3912236e-05 0)
(0.067749465 3.341605e-05 0)
(0.06744826 3.2936945e-05 0)
(0.067153541 3.2461534e-05 0)
(0.066860776 3.2004077e-05 0)
(0.066574512 3.1547987e-05 0)
(0.066289814 3.1110863e-05 0)
(0.066011663 3.0672666e-05 0)
(0.065734683 3.0254794e-05 0)
(0.065464325 2.983315e-05 0)
(0.065194733 2.9433417e-05 0)
(0.064931871 2.9027094e-05 0)
(0.064669357 2.8644636e-05 0)
(0.064413715 2.8252423e-05 0)
(0.064157988 2.7886369e-05 0)
(0.063909307 2.7507179e-05 0)
(0.063660092 2.7156799e-05 0)
(0.063418131 2.6789542e-05 0)
(0.063175168 2.6454155e-05 0)
(0.062939704 2.6097795e-05 0)
(0.062702746 2.5776837e-05 0)
(0.062473572 2.5430411e-05 0)
(0.062242385 2.5123349e-05 0)
(0.062019308 2.4785864e-05 0)
(0.06179367 2.4492293e-05 0)
(0.061576513 2.4162842e-05 0)
(0.061356211 2.3882379e-05 0)
(0.061144808 2.3560021e-05 0)
(0.060929639 2.3292424e-05 0)
(0.060723839 2.2976278e-05 0)
(0.060513609 2.2721304e-05 0)
(0.060313272 2.2410458e-05 0)
(0.060107794 2.2168009e-05 0)
(0.059912793 2.1861578e-05 0)
(0.059711886 2.1631582e-05 0)
(0.059522104 2.1328661e-05 0)
(0.059325593 2.1111168e-05 0)
(0.059140926 2.0810854e-05 0)
(0.05894864 2.0605969e-05 0)
(0.058768994 2.0307312e-05 0)
(0.058580766 2.0115246e-05 0)
(0.058406056 1.981732e-05 0)
(0.058221722 1.9638357e-05 0)
(0.058051876 1.9340153e-05 0)
(0.057871272 1.9174722e-05 0)
(0.057706227 1.8875233e-05 0)
(0.057529191 1.8723816e-05 0)
(0.057368895 1.8421957e-05 0)
(0.057195263 1.8285207e-05 0)
(0.057039673 1.7979853e-05 0)
(0.05686928 1.785851e-05 0)
(0.056718365 1.7548468e-05 0)
(0.056551043 1.7443449e-05 0)
(0.056404782 1.7127445e-05 0)
(0.056240355 1.7039804e-05 0)
(0.05609874 1.6716459e-05 0)
(0.055937028 1.6647448e-05 0)
(0.05580006 1.6315295e-05 0)
(0.055640874 1.6266328e-05 0)
(0.055508568 1.5923776e-05 0)
(0.055351706 1.5896524e-05 0)
(0.05522409 1.5541826e-05 0)
(0.055069339 1.5538192e-05 0)
(0.054946457 1.5169447e-05 0)
(0.054793584 1.519164e-05 0)
(0.054675494 1.4806742e-05 0)
(0.054524249 1.4857301e-05 0)
(0.054411028 1.4453936e-05 0)
(0.054261133 1.4535786e-05 0)
(0.054152878 1.4111375e-05 0)
(0.054004028 1.4227884e-05 0)
(0.053900859 1.3779553e-05 0)
(0.053752709 1.3934648e-05 0)
(0.053654775 1.3459136e-05 0)
(0.053506937 1.3657383e-05 0)
(0.053414418 1.3151039e-05 0)
(0.053266448 1.3397778e-05 0)
(0.053179565 1.2856403e-05 0)
(0.053030949 1.3157991e-05 0)
(0.052949974 1.257675e-05 0)
(0.052800107 1.2940763e-05 0)
(0.052725377 1.2314067e-05 0)
(0.052573536 1.2749694e-05 0)
(0.052505479 1.2070959e-05 0)
(0.052350777 1.258957e-05 0)
(0.05228995 1.1850927e-05 0)
(0.052131268 1.2466942e-05 0)
(0.05207843 1.1658781e-05 0)
(0.05191428 1.2391117e-05 0)
(0.051870545 1.1501444e-05 0)
(0.051698793 1.2376034e-05 0)
(0.051666013 1.1391427e-05 0)
(0.051483098 1.2449141e-05 0)
(0.051465141 1.1380503e-05 0)
(0.051263024 1.361093e-05 0)
(0.48500646 0.020562032 0)
(0.48876434 0.026123171 0)
(0.48430431 0.02358312 0)
(0.47044257 0.017965086 0)
(0.45157583 0.012980243 0)
(0.43042549 0.0097478139 0)
(0.40942319 0.0076798118 0)
(0.38990059 0.0062019024 0)
(0.37224067 0.0050889239 0)
(0.35634566 0.0042539594 0)
(0.34199736 0.0036250641 0)
(0.32900811 0.0031400061 0)
(0.31722664 0.002754653 0)
(0.30652068 0.0024415975 0)
(0.29676742 0.0021836301 0)
(0.28785329 0.0019686604 0)
(0.27967577 0.0017875216 0)
(0.27214517 0.0016331686 0)
(0.26518404 0.001500259 0)
(0.25872635 0.0013847385 0)
(0.25271561 0.0012835192 0)
(0.24710366 0.0011941948 0)
(0.24184896 0.0011148766 0)
(0.23691584 0.0010440412 0)
(0.23227315 0.00098046394 0)
(0.22789393 0.00092312947 0)
(0.22375437 0.00087120992 0)
(0.2198337 0.00082400337 0)
(0.21611341 0.00078093283 0)
(0.21257722 0.00074149827 0)
(0.2092105 0.00070528735 0)
(0.2060003 0.00067193434 0)
(0.20293491 0.00064113796 0)
(0.20000388 0.00061262421 0)
(0.19719772 0.00058616877 0)
(0.19450788 0.00056156177 0)
(0.19192659 0.00053863366 0)
(0.1894468 0.00051722076 0)
(0.18706208 0.00049719325 0)
(0.18476651 0.00047842115 0)
(0.18255476 0.0004608041 0)
(0.18042182 0.00044423715 0)
(0.17836323 0.00042864213 0)
(0.17637469 0.00041393299 0)
(0.17445248 0.00040004862 0)
(0.17259285 0.00038691745 0)
(0.17079269 0.00037449166 0)
(0.16904871 0.00036271083 0)
(0.16735829 0.00035153753 0)
(0.16571852 0.00034091994 0)
(0.16412721 0.00033082889 0)
(0.16258173 0.00032121932 0)
(0.16108027 0.00031206885 0)
(0.15962045 0.00030333786 0)
(0.15820076 0.00029500957 0)
(0.15681901 0.00028704856 0)
(0.15547399 0.00027944256 0)
(0.15416364 0.00027215941 0)
(0.15288703 0.00026519062 0)
(0.15164217 0.00025850677 0)
(0.15042841 0.00025210273 0)
(0.14924382 0.00024595125 0)
(0.14808797 0.00024004996 0)
(0.14695896 0.00023437313 0)
(0.1458566 0.00022892072 0)
(0.14477901 0.00022366835 0)
(0.14372619 0.00021861823 0)
(0.14269625 0.00021374714 0)
(0.14168942 0.00020905904 0)
(0.14070376 0.00020453138 0)
(0.13973971 0.00020016965 0)
(0.13879527 0.00019595201 0)
(0.13787111 0.00019188552 0)
(0.13696512 0.00018794895 0)
(0.13607821 0.0001841505 0)
(0.13520816 0.00018046918 0)
(0.13435611 0.00017691425 0)
(0.13351973 0.00017346524 0)
(0.13270036 0.00017013244 0)
(0.13189554 0.0001668957 0)
(0.13110687 0.0001637659 0)
(0.1303317 0.00016072319 0)
(0.12957191 0.0001577791 0)
(0.12882465 0.00015491432 0)
(0.12809206 0.00015214081 0)
(0.12737109 0.00014943956 0)
(0.12666417 0.00014682267 0)
(0.12596801 0.00014427178 0)
(0.12528536 0.00014179916 0)
(0.12461264 0.00013938715 0)
(0.12395295 0.00013704765 0)
(0.1233024 0.00013476377 0)
(0.12266447 0.00013254708 0)
(0.12203494 0.0001303818 0)
(0.12141766 0.00012827885 0)
(0.12080805 0.0001262236 0)
(0.12021039 0.00012422578 0)
(0.1196197 0.00012227251 0)
(0.11904071 0.00012037238 0)
(0.11846801 0.00011851404 0)
(0.1179068 0.00011670451 0)
(0.11735121 0.00011493459 0)
(0.11680697 0.00011320893 0)
(0.11626768 0.0001115215 0)
(0.11573964 0.00010987423 0)
(0.1152159 0.00010826356 0)
(0.11470335 0.00010668912 0)
(0.11419443 0.00010515045 0)
(0.11369672 0.00010364362 0)
(0.11320197 0.00010217248 0)
(0.11271847 0.00010072865 0)
(0.11223727 9.9320758e-05 0)
(0.11176742 9.7935586e-05 0)
(0.11129917 9.6587194e-05 0)
(0.11084244 9.5256586e-05 0)
(0.1103866 9.3964088e-05 0)
(0.10994249 9.2684316e-05 0)
(0.10949854 9.1444576e-05 0)
(0.10906658 9.0212055e-05 0)
(0.10863403 8.9022126e-05 0)
(0.1082138 8.7833571e-05 0)
(0.10779219 8.6690785e-05 0)
(0.10738329 8.5543036e-05 0)
(0.10697218 8.4444947e-05 0)
(0.10657424 8.333501e-05 0)
(0.10617322 8.2279438e-05 0)
(0.10578588 8.1204523e-05 0)
(0.10539456 8.0189437e-05 0)
(0.10501752 7.914681e-05 0)
(0.10463552 7.8170458e-05 0)
(0.10426847 7.7157571e-05 0)
(0.10389544 7.6218322e-05 0)
(0.10353811 7.5232683e-05 0)
(0.1031737 7.432919e-05 0)
(0.10282585 7.3368426e-05 0)
(0.10246974 7.2499431e-05 0)
(0.10213114 7.1561223e-05 0)
(0.10178301 7.0725729e-05 0)
(0.10145343 6.9807833e-05 0)
(0.10111298 6.9004985e-05 0)
(0.10079226 6.8105196e-05 0)
(0.10045919 6.7334355e-05 0)
(0.10014714 6.645052e-05 0)
(0.099821163 6.5711207e-05 0)
(0.099517634 6.4841155e-05 0)
(0.099198474 6.4133113e-05 0)
(0.098903335 6.327475e-05 0)
(0.098590711 6.2597886e-05 0)
(0.098303847 6.1749064e-05 0)
(0.097997484 6.1103565e-05 0)
(0.097718796 6.0262153e-05 0)
(0.09741842 5.9648347e-05 0)
(0.097147831 5.8812177e-05 0)
(0.096853164 5.8230697e-05 0)
(0.096590613 5.7397566e-05 0)
(0.096301377 5.684925e-05 0)
(0.096046823 5.601692e-05 0)
(0.09576273 5.5502915e-05 0)
(0.09551615 5.4669068e-05 0)
(0.095236907 5.4190794e-05 0)
(0.094998299 5.3353021e-05 0)
(0.094723598 5.2912256e-05 0)
(0.094492982 5.2068058e-05 0)
(0.094222502 5.1666888e-05 0)
(0.093999918 5.0813678e-05 0)
(0.093733319 5.0454616e-05 0)
(0.093518834 4.9589636e-05 0)
(0.093255752 4.9275628e-05 0)
(0.093049458 4.8395991e-05 0)
(0.0927895 4.8130487e-05 0)
(0.092591519 4.7233104e-05 0)
(0.092334258 4.7020131e-05 0)
(0.092144743 4.6101738e-05 0)
(0.09188971 4.5945936e-05 0)
(0.091708852 4.5003055e-05 0)
(0.091455529 4.4909789e-05 0)
(0.091283561 4.393871e-05 0)
(0.091031365 4.3914201e-05 0)
(0.090868571 4.2910932e-05 0)
(0.090616845 4.29624e-05 0)
(0.090463566 4.1922715e-05 0)
(0.090211562 4.2058496e-05 0)
(0.090068213 4.0977937e-05 0)
(0.089815064 4.120776e-05 0)
(0.089682147 4.008166e-05 0)
(0.08942684 4.0416861e-05 0)
(0.089304976 3.9240604e-05 0)
(0.089046303 3.9694354e-05 0)
(0.088936266 3.8463736e-05 0)
(0.088672759 3.905135e-05 0)
(0.088575541 3.7763414e-05 0)
(0.088305359 3.8502357e-05 0)
(0.088222283 3.7157499e-05 0)
(0.087943023 3.806629e-05 0)
(0.087875954 3.6674004e-05 0)
(0.087584277 3.7767265e-05 0)
(0.087536085 3.6364397e-05 0)
(0.087226912 3.7666432e-05 0)
(0.087202423 3.6356162e-05 0)
(0.086867729 3.9465652e-05 0)
(0.48431541 0.017835415 0)
(0.49042566 0.024335373 0)
(0.49745776 0.023345401 0)
(0.49888418 0.019096428 0)
(0.49460893 0.014929051 0)
(0.48638572 0.012195096 0)
(0.47625358 0.010413729 0)
(0.46546498 0.0090498871 0)
(0.45455291 0.0079132695 0)
(0.44369416 0.0069715914 0)
(0.43296722 0.0061983543 0)
(0.42245425 0.0055554026 0)
(0.41223864 0.0050091792 0)
(0.40238787 0.0045380325 0)
(0.39294523 0.0041289997 0)
(0.38393184 0.0037729264 0)
(0.37535185 0.0034621137 0)
(0.36719836 0.00318977 0)
(0.35945711 0.002950065 0)
(0.35210978 0.0027380859 0)
(0.34513557 0.0025497637 0)
(0.33851288 0.0023816973 0)
(0.33221986 0.0022310707 0)
(0.32623535 0.0020955077 0)
(0.32053894 0.0019730295 0)
(0.31511146 0.0018619496 0)
(0.30993485 0.0017608615 0)
(0.30499238 0.0016685505 0)
(0.30026849 0.0015840017 0)
(0.29574883 0.0015063244 0)
(0.29142017 0.0014347747 0)
(0.28727026 0.0013686872 0)
(0.28328791 0.0013075079 0)
(0.27946269 0.0012507306 0)
(0.27578511 0.0011979367 0)
(0.27224628 0.0011487341 0)
(0.26883815 0.0011028026 0)
(0.26555308 0.0010598331 0)
(0.26238425 0.0010195782 0)
(0.25932506 0.00098179044 0)
(0.25636971 0.00094627706 0)
(0.25351244 0.000912837 0)
(0.25074835 0.00088131899 0)
(0.24807235 0.00085155724 0)
(0.2454803 0.00082343272 0)
(0.24296767 0.0007968068 0)
(0.24053097 0.00077158578 0)
(0.23816612 0.00074765204 0)
(0.23587022 0.00072493194 0)
(0.23363955 0.00070332418 0)
(0.23147169 0.00068277118 0)
(0.22936322 0.00066318446 0)
(0.22731217 0.00064451972 0)
(0.22531536 0.0006266987 0)
(0.22337123 0.00060968815 0)
(0.22147675 0.00059341779 0)
(0.21963073 0.00057786343 0)
(0.21783028 0.00056296095 0)
(0.21607456 0.00054869384 0)
(0.21436074 0.000535003 0)
(0.21268834 0.00052187871 0)
(0.21105455 0.00050926584 0)
(0.2094592 0.00049716038 0)
(0.2078995 0.00048551003 0)
(0.20637558 0.00047431576 0)
(0.20488462 0.00046352753 0)
(0.20342707 0.00045315101 0)
(0.20200004 0.00044313798 0)
(0.20060427 0.00043349811 0)
(0.19923679 0.00042418417 0)
(0.19789866 0.00041520937 0)
(0.19658677 0.00040652734 0)
(0.19530251 0.00039815486 0)
(0.19404261 0.00039004612 0)
(0.19280878 0.00038222086 0)
(0.19159758 0.00037463329 0)
(0.19041105 0.00036730593 0)
(0.18924554 0.00036019316 0)
(0.18810345 0.00035332026 0)
(0.18698087 0.00034664149 0)
(0.1858806 0.00034018432 0)
(0.18479844 0.00033390265 0)
(0.18373757 0.00032782624 0)
(0.18269349 0.00032190891 0)
(0.18166981 0.00031618238 0)
(0.18066167 0.00031060002 0)
(0.17967315 0.00030519521 0)
(0.17869898 0.0002999211 0)
(0.17774372 0.0002948128 0)
(0.17680168 0.00028982333 0)
(0.17587795 0.00028498884 0)
(0.17496636 0.00028026219 0)
(0.17407255 0.00027568066 0)
(0.17318984 0.00027119727 0)
(0.17232445 0.0002668501 0)
(0.17146915 0.00026259234 0)
(0.17063081 0.0002584622 0)
(0.16980157 0.00025441364 0)
(0.16898899 0.00025048523 0)
(0.16818455 0.0002466313 0)
(0.16739654 0.00024289016 0)
(0.16661571 0.00023921752 0)
(0.16585116 0.00023565023 0)
(0.16509284 0.00023214643 0)
(0.16435072 0.00022874167 0)
(0.16361387 0.0002253951 0)
(0.16289322 0.00022214151 0)
(0.16217689 0.00021894223 0)
(0.16147682 0.00021582936 0)
(0.16078009 0.00021276793 0)
(0.16009976 0.00020978647 0)
(0.15942179 0.00020685399 0)
(0.15876042 0.00020399512 0)
(0.1581004 0.00020118369 0)
(0.15745727 0.00019843924 0)
(0.15681445 0.00019574131 0)
(0.15618889 0.00019310374 0)
(0.15556256 0.00019051261 0)
(0.15495393 0.00018797479 0)
(0.15434342 0.00018548416 0)
(0.15375114 0.00018303954 0)
(0.15315581 0.00018064364 0)
(0.15257934 0.00017828595 0)
(0.15199859 0.00017597949 0)
(0.15143742 0.00017370287 0)
(0.15087068 0.00017148098 0)
(0.15032435 0.00016927995 0)
(0.14977107 0.00016713813 0)
(0.14923914 0.00016500743 0)
(0.14869881 0.00016294164 0)
(0.14818088 0.00016087637 0)
(0.147653 0.00015888284 0)
(0.14714871 0.00015687828 0)
(0.14663281 0.00015495371 0)
(0.1461418 0.0001530054 0)
(0.14563742 0.0001511467 0)
(0.14515941 0.00014925037 0)
(0.14466611 0.00014745487 0)
(0.1442008 0.00014560643 0)
(0.14371816 0.00014387171 0)
(0.1432653 0.00014206724 0)
(0.14279291 0.00014039126 0)
(0.14235228 0.00013862696 0)
(0.14188973 0.00013700794 0)
(0.14146112 0.00013528012 0)
(0.14100802 0.00013371662 0)
(0.14059127 0.00013202177 0)
(0.14014722 0.00013051266 0)
(0.13974219 0.00012884727 0)
(0.13930681 0.0001273918 0)
(0.13891337 0.0001257525 0)
(0.13848626 0.00012435018 0)
(0.13810432 0.00012273366 0)
(0.1376851 0.00012138441 0)
(0.1373146 0.0001197874 0)
(0.13690287 0.00011849149 0)
(0.13654376 0.0001169108 0)
(0.13613911 0.0001156689 0)
(0.13579139 0.00011410133 0)
(0.13539341 0.00011291453 0)
(0.1350571 0.00011135692 0)
(0.13466534 0.00011022675 0)
(0.13434049 0.00010867598 0)
(0.1339545 0.00010760443 0)
(0.1336412 0.00010605741 0)
(0.13326049 0.000105047 0)
(0.13295886 0.0001035006 0)
(0.13258291 0.00010255444 0)
(0.13229312 0.0001010056 0)
(0.13192137 0.0001001274 0)
(0.13164362 9.8573067e-05 0)
(0.13127546 9.7767256e-05 0)
(0.13101 9.6204434e-05 0)
(0.13064476 9.5476164e-05 0)
(0.13039191 9.3901978e-05 0)
(0.13002886 9.3257236e-05 0)
(0.12978899 9.1668952e-05 0)
(0.12942729 9.1114684e-05 0)
(0.12920085 8.9509806e-05 0)
(0.12883957 8.9053999e-05 0)
(0.1286271 8.743048e-05 0)
(0.12826518 8.708223e-05 0)
(0.12806731 8.5438729e-05 0)
(0.12770354 8.5208397e-05 0)
(0.12752104 8.3544701e-05 0)
(0.127154 8.3443908e-05 0)
(0.12698779 8.1761841e-05 0)
(0.12661583 8.1803285e-05 0)
(0.12646704 8.0108142e-05 0)
(0.12608814 8.0305152e-05 0)
(0.1259582 7.8608414e-05 0)
(0.1255699 7.8973462e-05 0)
(0.12546062 7.7298273e-05 0)
(0.1250598 7.7839284e-05 0)
(0.12497359 7.6230998e-05 0)
(0.12455618 7.6947643e-05 0)
(0.1244963 7.5483688e-05 0)
(0.12405688 7.6457467e-05 0)
(0.12402754 7.5188835e-05 0)
(0.12355992 7.8475088e-05 0)
(0.48571949 0.016050687 0)
(0.49005657 0.022583198 0)
(0.49782113 0.022343654 0)
(0.50336445 0.01886648 0)
(0.50487878 0.015206966 0)
(0.50313403 0.012810077 0)
(0.49965025 0.011328472 0)
(0.49538825 0.010222625 0)
(0.49067976 0.0092715167 0)
(0.48557346 0.0084492686 0)
(0.48007559 0.0077527618 0)
(0.47423322 0.0071569902 0)
(0.46812396 0.0066335087 0)
(0.46183122 0.0061637403 0)
(0.45542974 0.0057384376 0)
(0.44898187 0.0053526509 0)
(0.44253821 0.005002557 0)
(0.43613951 0.0046844944 0)
(0.42981821 0.0043950514 0)
(0.42359964 0.0041311511 0)
(0.41750316 0.0038901212 0)
(0.41154296 0.0036695883 0)
(0.40572904 0.0034674824 0)
(0.40006783 0.0032819324 0)
(0.39456303 0.0031112975 0)
(0.38921595 0.0029540839 0)
(0.3840263 0.0028089908 0)
(0.37899225 0.0026748264 0)
(0.37411115 0.0025505616 0)
(0.36937935 0.0024352442 0)
(0.36479297 0.0023280607 0)
(0.3603474 0.0022282485 0)
(0.35603823 0.0021351642 0)
(0.35186044 0.002048194 0)
(0.34780953 0.0019668279 0)
(0.34388038 0.0018905687 0)
(0.34006866 0.0018190113 0)
(0.33636937 0.0017517487 0)
(0.33277846 0.0016884579 0)
(0.32929112 0.0016288027 0)
(0.3259037 0.0015725256 0)
(0.3226116 0.0015193459 0)
(0.31941159 0.0014690576 0)
(0.31629931 0.0014214241 0)
(0.31327195 0.0013762812 0)
(0.31032536 0.0013334265 0)
(0.30745715 0.0012927298 0)
(0.30466336 0.0012540161 0)
(0.30194202 0.0012171825 0)
(0.29928932 0.0011820758 0)
(0.29670369 0.0011486156 0)
(0.29418144 0.0011166659 0)
(0.29172139 0.0010861653 0)
(0.28931992 0.0010569917 0)
(0.28697624 0.0010290998 0)
(0.28468679 0.0010023782 0)
(0.28245113 0.00097679525 0)
(0.28026572 0.00095224799 0)
(0.27813049 0.00092871648 0)
(0.27604186 0.00090610445 0)
(0.27400016 0.0008844025 0)
(0.27200171 0.0008635195 0)
(0.27004723 0.00084345525 0)
(0.26813295 0.00082412219 0)
(0.26625994 0.00080552826 0)
(0.26442432 0.0007875886 0)
(0.26262754 0.00077031889 0)
(0.26086555 0.00075363618 0)
(0.25914019 0.00073756304 0)
(0.25744722 0.00072201728 0)
(0.25578889 0.0007070278 0)
(0.25416071 0.00069251278 0)
(0.25256537 0.00067850742 0)
(0.25099809 0.0006649298 0)
(0.24946201 0.00065182072 0)
(0.24795206 0.00063909736 0)
(0.24647184 0.0006268059 0)
(0.24501591 0.00061486259 0)
(0.24358839 0.00060331906 0)
(0.24218344 0.00059209009 0)
(0.24080571 0.00058123213 0)
(0.23944893 0.00057065816 0)
(0.2381183 0.0005604295 0)
(0.23680708 0.00055045746 0)
(0.23552106 0.00054080806 0)
(0.23425298 0.00053139032 0)
(0.23300927 0.0005222746 0)
(0.23178209 0.00051336781 0)
(0.23057854 0.00050474481 0)
(0.22939017 0.00049631032 0)
(0.22822481 0.00048814305 0)
(0.2270733 0.00048014529 0)
(0.22594427 0.00047239982 0)
(0.22482781 0.00046480673 0)
(0.2237334 0.00045745256 0)
(0.2226503 0.00045023512 0)
(0.22158892 0.00044324407 0)
(0.22053759 0.0004363753 0)
(0.21950773 0.00042972211 0)
(0.21848671 0.00042317799 0)
(0.21748699 0.0004168389 0)
(0.21649489 0.00041059727 0)
(0.215524 0.00040455065 0)
(0.21455951 0.00039859067 0)
(0.21361626 0.0003928176 0)
(0.21267816 0.00038712035 0)
(0.21176142 0.00038160202 0)
(0.21084857 0.00037615083 0)
(0.20995726 0.00037087027 0)
(0.20906858 0.00036564912 0)
(0.20820174 0.00036059105 0)
(0.2073362 0.00035558514 0)
(0.2064929 0.00035073499 0)
(0.20564955 0.00034593092 0)
(0.20482893 0.00034127535 0)
(0.20400687 0.00033666042 0)
(0.20320813 0.00033218698 0)
(0.20240648 0.00032774982 0)
(0.20162888 0.00032344686 0)
(0.20084684 0.00031917668 0)
(0.20008967 0.00031503345 0)
(0.19932647 0.00031092037 0)
(0.19858909 0.00030692666 0)
(0.19784399 0.00030296151 0)
(0.1971258 0.00029910782 0)
(0.1963981 0.00029528211 0)
(0.19569854 0.00029155953 0)
(0.19498758 0.00028786539 0)
(0.19430614 0.00028426546 0)
(0.19361128 0.00028069566 0)
(0.19294747 0.00027721052 0)
(0.1922681 0.00027375833 0)
(0.1916215 0.00027038045 0)
(0.19095703 0.0002670398 0)
(0.19032723 0.00026376216 0)
(0.1896771 0.00026052729 0)
(0.18906374 0.00025734319 0)
(0.1884274 0.00025420902 0)
(0.18783016 0.00025111213 0)
(0.18720707 0.00024807392 0)
(0.18662564 0.00024505824 0)
(0.18601529 0.00024211178 0)
(0.18544943 0.00023917157 0)
(0.18485131 0.00023631306 0)
(0.18430079 0.00023344287 0)
(0.18371439 0.00023066895 0)
(0.18317903 0.00022786365 0)
(0.18260386 0.00022517141 0)
(0.18208349 0.00022242604 0)
(0.18151905 0.00021981306 0)
(0.18101356 0.00021712294 0)
(0.18045936 0.00021458716 0)
(0.17996865 0.00021194783 0)
(0.17942419 0.00020948774 0)
(0.17894822 0.00020689495 0)
(0.17841297 0.00020450943 0)
(0.17795173 0.0002019592 0)
(0.17742518 0.00019964767 0)
(0.17697868 0.00019713619 0)
(0.17646029 0.00019489857 0)
(0.17602861 0.00019242226 0)
(0.1755178 0.00019025898 0)
(0.17510103 0.00018781457 0)
(0.17459721 0.00018572656 0)
(0.17419552 0.00018331103 0)
(0.17369806 0.00018129989 0)
(0.17331165 0.00017891048 0)
(0.17281985 0.00017697839 0)
(0.17244898 0.00017461273 0)
(0.17196213 0.00017276253 0)
(0.17160711 0.00017041866 0)
(0.1711244 0.00016865395 0)
(0.17078561 0.0001663304 0)
(0.17030619 0.00016465547 0)
(0.16998409 0.00016235147 0)
(0.16950698 0.00016077141 0)
(0.1692021 0.00015848696 0)
(0.16872625 0.00015700775 0)
(0.16843922 0.00015474393 0)
(0.16796342 0.00015337242 0)
(0.167695 0.00015113182 0)
(0.1672179 0.00014987572 0)
(0.16696895 0.00014766299 0)
(0.16648902 0.00014653086 0)
(0.16626057 0.00014435361 0)
(0.16577603 0.00014335465 0)
(0.16556929 0.00014122495 0)
(0.1650781 0.0001403686 0)
(0.16489452 0.00013830529 0)
(0.16439424 0.00013760042 0)
(0.16423557 0.0001356329 0)
(0.16372333 0.00013508675 0)
(0.16359168 0.00013326033 0)
(0.16306398 0.00013287899 0)
(0.16296191 0.00013125771 0)
(0.16241456 0.00013106671 0)
(0.16234508 0.00012970183 0)
(0.16177316 0.00012994104 0)
(0.16173932 0.00012876009 0)
(0.16113829 0.00013165824 0)
(0.48712481 0.014785484 0)
(0.4904585 0.021076953 0)
(0.49712165 0.021400193 0)
(0.50294473 0.018455488 0)
(0.50590367 0.015080788 0)