/*--------------------------------*- C++ -*----------------------------------*\
| =========                 |                                                 |
| \\      /  F ield         | OpenFOAM: The Open Source CFD Toolbox           |
|  \\    /   O peration     | Version:  1.4.1-dev                             |
|   \\  /    A nd           | Web:      http://www.openfoam.org               |
|    \\/     M anipulation  |                                                 |
\*---------------------------------------------------------------------------*/

FoamFile
{
    version 2.0;
    format ascii;

    root "/home/mjaworsk/OpenFOAM/mjaworsk-1.4.1-dev/run/FlatPlate-Blasius";
    case "icoHeatFoam-flatPlate2";
    instance "0.4";
    local "";

    class volScalarField;
    object p;
}

// * * * * * * * * * * * * * * * * * * * * * * * * * * * * * * * * * * * * * //

dimensions      [0 2 -2 0 0 0 0];

internalField   nonuniform List<scalar> 
2475
(
0.00439322
0.00184703
0.000220433
-0.000192026
-0.00015824
-8.97419e-05
-5.67644e-05
-4.26747e-05
-3.46696e-05
-2.92744e-05
-2.57551e-05
-2.37989e-05
-2.30768e-05
-2.33445e-05
-2.42984e-05
-2.58169e-05
-2.77313e-05
-3.01916e-05
-3.31376e-05
-3.67964e-05
-4.0699e-05
-4.45952e-05
-4.74233e-05
-4.96344e-05
-5.15344e-05
-5.48471e-05
-5.87091e-05
-6.37703e-05
-6.77792e-05
-7.11306e-05
-7.09245e-05
-6.77576e-05
-5.99026e-05
-4.42432e-05
-2.43103e-05
0.00383732
0.00184428
0.00031713
-0.00013152
-0.00012267
-6.80658e-05
-4.32947e-05
-3.33518e-05
-2.75328e-05
-2.35713e-05
-2.11079e-05
-1.99511e-05
-1.98482e-05
-2.06066e-05
-2.19566e-05
-2.37983e-05
-2.59796e-05
-2.86614e-05
-3.17944e-05
-3.56127e-05
-3.96568e-05
-4.36781e-05
-4.6618e-05
-4.89207e-05
-5.08982e-05
-5.4274e-05
-5.81979e-05
-6.33117e-05
-6.73778e-05
-7.07747e-05
-7.06244e-05
-6.74927e-05
-5.96932e-05
-4.40526e-05
-2.41816e-05
0.00333355
0.00186006
0.000463504
-4.90145e-05
-8.07741e-05
-4.04473e-05
-2.47225e-05
-2.10742e-05
-1.88253e-05
-1.69233e-05
-1.58375e-05
-1.56803e-05
-1.63249e-05
-1.76573e-05
-1.94589e-05
-2.1662e-05
-2.41365e-05
-2.7059e-05
-3.03933e-05
-3.43838e-05
-3.85796e-05
-4.27345e-05
-4.57896e-05
-4.81848e-05
-5.02396e-05
-5.36823e-05
-5.76717e-05
-6.28436e-05
-6.69705e-05
-7.04177e-05
-7.03247e-05
-6.72317e-05
-5.94903e-05
-4.38759e-05
-2.40701e-05
0.00294625
0.00187472
0.000635654
6.09187e-05
-2.63723e-05
-4.21401e-06
1.40911e-06
-3.5844e-06
-6.92262e-06
-8.19061e-06
-9.10918e-06
-1.03727e-05
-1.20588e-05
-1.41678e-05
-1.65615e-05
-1.92257e-05
-2.20646e-05
-2.528e-05
-2.8854e-05
-3.30455e-05
-3.74145e-05
-4.17198e-05
-4.49018e-05
-4.7398e-05
-4.95363e-05
-5.30534e-05
-5.71149e-05
-6.2352e-05
-6.65452e-05
-7.00483e-05
-7.00156e-05
-6.6966e-05
-5.92867e-05
-4.37107e-05
-2.39698e-05
0.00263329
0.00185575
0.0007951
0.000186103
3.87069e-05
3.94496e-05
3.58466e-05
2.11867e-05
1.01267e-05
4.12244e-06
2.77573e-07
-3.02615e-06
-6.22124e-06
-9.46186e-06
-1.27157e-05
-1.60449e-05
-1.9405e-05
-2.30337e-05
-2.69383e-05
-3.13986e-05
-3.59913e-05
-4.04875e-05
-4.38315e-05
-4.64592e-05
-4.87056e-05
-5.23159e-05
-5.64641e-05
-6.17792e-05
-6.605e-05
-6.96186e-05
-6.96549e-05
-6.6657e-05
-5.90493e-05
-4.35301e-05
-2.38593e-05
0.0023704
0.00179772
0.000921786
0.000313616
0.000109699
8.53237e-05
7.44539e-05
5.1866e-05
3.2426e-05
2.04592e-05
1.28188e-05
6.87557e-06
1.69136e-06
-3.07454e-06
-7.50509e-06
-1.17536e-05
-1.58415e-05
-2.00508e-05
-2.44188e-05
-2.92486e-05
-3.41404e-05
-3.88894e-05
-4.24542e-05
-4.52687e-05
-4.76678e-05
-5.14018e-05
-5.56578e-05
-6.10678e-05
-6.54318e-05
-6.90788e-05
-6.91969e-05
-6.6261e-05
-5.87392e-05
-4.33012e-05
-2.37131e-05
0.00214974
0.0017146
0.00101165
0.000436121
0.00018565
0.000131444
0.000113292
8.55045e-05
5.85599e-05
4.01268e-05
2.81349e-05
1.91914e-05
1.17134e-05
5.12744e-06
-7.49868e-07
-6.15161e-06
-1.11688e-05
-1.61307e-05
-2.11061e-05
-2.6419e-05
-3.16974e-05
-3.67734e-05
-4.06363e-05
-4.37156e-05
-4.63322e-05
-5.02312e-05
-5.46208e-05
-6.01445e-05
-6.46215e-05
-6.83626e-05
-6.85807e-05
-6.5718e-05
-5.8301e-05
-4.29763e-05
-2.34916e-05
0.00196491
0.00162201
0.00106714
0.000547403
0.000266017
0.000178719
0.000150734
0.000119767
8.70568e-05
6.22461e-05
4.55227e-05
3.33573e-05
2.34615e-05
1.49218e-05
7.44299e-06
7.34584e-07
-5.3575e-06
-1.12046e-05
-1.69073e-05
-2.28021e-05
-2.85475e-05
-3.40204e-05
-3.82626e-05
-4.16958e-05
-4.46088e-05
-4.87193e-05
-5.32694e-05
-5.8922e-05
-6.35328e-05
-6.73848e-05
-6.77287e-05
-6.49513e-05
-5.76629e-05
-4.24907e-05
-2.3139e-05
0.00180866
0.00153001
0.00109336
0.000641627
0.000348025
0.000228479
0.000186777
0.000153147
0.000116707
8.6205e-05
6.45145e-05
4.88799e-05
3.64779e-05
2.5938e-05
1.67909e-05
8.698e-06
1.45035e-06
-5.35783e-06
-1.18627e-05
-1.84039e-05
-2.46729e-05
-3.05925e-05
-3.52821e-05
-3.915e-05
-4.24392e-05
-4.68055e-05
-5.15395e-05
-5.73245e-05
-6.20838e-05
-6.60572e-05
-6.65595e-05
-6.38798e-05
-5.67494e-05
-4.17744e-05
-2.25912e-05
0.00167447
0.00144345
0.00109718
0.000715204
0.000427154
0.000281163
0.000222415
0.000184943
0.000146446
0.000111496
8.49055e-05
6.55299e-05
5.04746e-05
3.78901e-05
2.7039e-05
1.75157e-05
9.06215e-06
1.24887e-06
-6.10153e-06
-1.33239e-05
-2.01503e-05
-2.6543e-05
-3.1725e-05
-3.60846e-05
-3.98171e-05
-4.44733e-05
-4.94112e-05
-5.53169e-05
-6.02267e-05
-6.43153e-05
-6.50095e-05
-6.2439e-05
-5.55025e-05
-4.07727e-05
-2.17958e-05
0.00155745
0.00136392
0.00108571
0.000767797
0.000498807
0.000335845
0.000258919
0.000215281
0.000175441
0.000137533
0.000106552
8.32655e-05
6.53475e-05
5.06328e-05
3.80415e-05
2.70504e-05
1.73457e-05
8.48635e-06
2.52268e-07
-7.67985e-06
-1.50902e-05
-2.19719e-05
-2.76737e-05
-3.25568e-05
-3.67804e-05
-4.17479e-05
-4.69091e-05
-5.29158e-05
-5.79682e-05
-6.21434e-05
-6.30543e-05
-6.0601e-05
-5.39002e-05
-3.94671e-05
-2.07379e-05
0.00145421
0.00129131
0.00106478
0.000801703
0.000559613
0.000390268
0.000297015
0.000244899
0.000203251
0.00016365
0.000129195
0.000102084
8.11023e-05
6.41214e-05
4.97368e-05
3.72432e-05
2.62454e-05
1.62935e-05
7.13054e-06
-1.54813e-06
-9.57462e-06
-1.69653e-05
-2.3209e-05
-2.86341e-05
-3.33812e-05
-3.86729e-05
-4.40783e-05
-5.01707e-05
-5.53586e-05
-5.95789e-05
-6.07162e-05
-5.83843e-05
-5.19613e-05
-3.78854e-05
-1.94559e-05
0.00136236
0.00122486
0.00103842
0.000820508
0.000607946
0.000441544
0.000336402
0.00027465
0.000229924
0.000189258
0.000152408
0.000121898
9.77709e-05
7.83663e-05
6.21082e-05
4.8075e-05
3.57492e-05
2.46584e-05
1.45162e-05
5.04389e-06
-3.63835e-06
-1.15672e-05
-1.8377e-05
-2.43621e-05
-2.96569e-05
-3.52852e-05
-4.09557e-05
-4.71318e-05
-5.24579e-05
-5.66888e-05
-5.80503e-05
-5.58451e-05
-4.97345e-05
-3.60902e-05
-1.80313e-05
0.00128017
0.00116386
0.00100916
0.000827879
0.000643913
0.000487102
0.000375783
0.000304994
0.000255867
0.000214015
0.00017568
0.000142469
0.000115334
9.33926e-05
7.51614e-05
5.95413e-05
4.58583e-05
3.35894e-05
2.24195e-05
1.21011e-05
2.71894e-06
-5.78411e-06
-1.31878e-05
-1.97564e-05
-2.56208e-05
-3.16024e-05
-3.75573e-05
-4.38294e-05
-4.93056e-05
-5.35354e-05
-5.51163e-05
-5.30529e-05
-4.72773e-05
-3.41535e-05
-1.65554e-05
0.00120626
0.00110772
0.000978541
0.000826911
0.000668776
0.000525262
0.000413315
0.000335718
0.000281543
0.000237899
0.00019857
0.000163432
0.000133666
0.000109197
8.89064e-05
7.16422e-05
5.65725e-05
4.30935e-05
3.08556e-05
1.96413e-05
9.51373e-06
3.97513e-07
-7.63022e-06
-1.48108e-05
-2.1267e-05
-2.76243e-05
-3.38814e-05
-4.02736e-05
-4.5915e-05
-5.01564e-05
-5.19555e-05
-5.00658e-05
-4.46389e-05
-3.21327e-05
-1.50982e-05
0.00113953
0.00105598
0.000947528
0.000819976
0.000684296
0.000555407
0.000447238
0.000365984
0.000307148
0.000261102
0.000220812
0.000184383
0.000152523
0.000125704
0.000103334
8.43759e-05
6.78871e-05
5.31693e-05
3.98312e-05
2.76808e-05
1.67657e-05
6.99723e-06
-1.68547e-06
-9.509e-06
-1.65804e-05
-2.33387e-05
-2.9916e-05
-3.64611e-05
-4.22829e-05
-4.65665e-05
-4.85862e-05
-4.69183e-05
-4.18527e-05
-3.00604e-05
-1.36982e-05
0.00107908
0.00100825
0.00091674
0.000808818
0.000692274
0.0005778
0.00047628
0.000394609
0.000332452
0.000283819
0.000242345
0.000204984
0.000171584
0.000142751
0.000118389
9.77252e-05
7.97927e-05
6.38082e-05
4.934e-05
3.62253e-05
2.44908e-05
1.40335e-05
4.66475e-06
-3.83323e-06
-1.15433e-05
-1.87292e-05
-2.56452e-05
-3.23821e-05
-3.83998e-05
-4.27662e-05
-4.50118e-05
-4.36238e-05
-3.89385e-05
-2.79488e-05
-1.23701e-05
0.00102414
0.000964146
0.000886551
0.000794686
0.000694294
0.000593215
0.000499821
0.000420446
0.000356848
0.000306048
0.000263212
0.000225021
0.000190527
0.000160099
0.000133952
0.000111639
9.22648e-05
7.49967e-05
5.93677e-05
4.5265e-05
3.26952e-05
2.15213e-05
1.14357e-05
2.23137e-06
-6.13907e-06
-1.37789e-05
-2.10523e-05
-2.80247e-05
-3.42555e-05
-3.87506e-05
-4.1231e-05
-4.01848e-05
-3.5909e-05
-2.57984e-05
-1.11162e-05
0.000974061
0.000923325
0.000857156
0.000778439
0.000691629
0.000602613
0.000517829
0.00044265
0.000379548
0.000327521
0.000283418
0.000244388
0.000209083
0.000177477
0.000149847
0.000126021
0.000105249
8.67062e-05
6.98969e-05
5.47796e-05
4.13698e-05
2.9468e-05
1.8639e-05
8.69444e-06
-3.54908e-07
-8.47289e-06
-1.61226e-05
-2.33769e-05
-2.98415e-05
-3.45134e-05
-3.72435e-05
-3.65999e-05
-3.27753e-05
-2.36059e-05
-9.93269e-06
0.000928353
0.000885474
0.000828632
0.00076065
0.000685246
0.000606938
0.00053066
0.000460794
0.000399819
0.000347761
0.00030283
0.000263013
0.000227054
0.000194628
0.000165867
0.000140739
0.000118658
9.88786e-05
8.09011e-05
6.47482e-05
5.04913e-05
3.78674e-05
2.62822e-05
1.55611e-05
5.81634e-06
-2.79981e-06
-1.08445e-05
-1.8429e-05
-2.51517e-05
-3.00488e-05
-3.30516e-05
-3.2868e-05
-2.95488e-05
-2.13698e-05
-8.81257e-06
0.000886564
0.000850298
0.000800985
0.000741698
0.000675848
0.000606994
0.000538845
0.000474838
0.000417153
0.00036623
0.000321153
0.000280768
0.000244274
0.000211315
0.000181792
0.000155635
0.000132379
0.000111419
9.23234e-05
7.51515e-05
6.00354e-05
4.66952e-05
3.43622e-05
2.2834e-05
1.23763e-05
3.24736e-06
-5.21117e-06
-1.31735e-05
-2.01831e-05
-2.53521e-05
-2.86606e-05
-2.89889e-05
-2.62396e-05
-1.90917e-05
-7.74758e-06
0.000848135
0.000817412
0.000774135
0.000721825
0.000663935
0.000603403
0.000542913
0.000484977
0.000431325
0.000382485
0.000338017
0.00029744
0.000260569
0.000227311
0.000197393
0.000170538
0.000146289
0.000124208
0.000104055
8.5946e-05
6.99889e-05
5.59176e-05
4.28549e-05
3.05101e-05
1.93229e-05
9.66986e-06
7.78351e-07
-7.60687e-06
-1.49362e-05
-2.04215e-05
-2.40777e-05
-2.49648e-05
-2.28544e-05
-1.67747e-05
-6.73002e-06
0.000812354
0.000786318
0.000747923
0.000701197
0.000649881
0.000596621
0.000543284
0.000491465
0.000442313
0.000396254
0.00035308
0.000312772
0.000275748
0.000242387
0.000212426
0.000185257
0.000160263
0.000137134
0.000115947
9.70235e-05
8.03324e-05
6.55126e-05
5.17117e-05
3.85681e-05
2.66521e-05
1.64638e-05
7.11836e-06
-1.73146e-06
-9.41599e-06
-1.52606e-05
-1.9314e-05
-2.08029e-05
-1.93994e-05
-1.44195e-05
-5.75013e-06
0.000778492
0.000756489
0.000722173
0.000679976
0.000634048
0.00058704
0.000540269
0.000494489
0.000450148
0.000407387
0.000366083
0.00032651
0.000289608
0.000256325
0.000226622
0.000199567
0.000174163
0.000150115
0.000127876
0.000108211
9.09909e-05
7.54794e-05
6.08821e-05
4.69523e-05
3.43481e-05
2.36206e-05
1.37946e-05
4.44595e-06
-3.6301e-06
-9.87609e-06
-1.43838e-05
-1.65168e-05
-1.58876e-05
-1.20321e-05
-4.79429e-06
0.000745975
0.000727509
0.000696781
0.000658395
0.000616884
0.000575125
0.000534199
0.000494196
0.000454832
0.000415777
0.000376833
0.000338445
0.000301967
0.000268929
0.0002397
0.000213173
0.000187797
0.000163073
0.000139787
0.000119337
0.000101791
8.58012e-05
7.03578e-05
5.55878e-05
4.23663e-05
3.11249e-05
2.07803e-05
1.09064e-05
2.40642e-06
-4.27763e-06
-9.29858e-06
-1.21179e-05
-1.23308e-05
-9.62745e-06
-3.85318e-06
0.000714406
0.000699122
0.000671735
0.000636754
0.000598941
0.000561489
0.000525542
0.000490807
0.000456367
0.000421312
0.000385179
0.000348436
0.000312711
0.000280077
0.000251424
0.000225715
0.000200853
0.000175855
0.000151662
0.000130318
0.000112478
9.6341e-05
8.01634e-05
6.44321e-05
5.0625e-05
3.89498e-05
2.80546e-05
1.76238e-05
8.6687e-06
1.51023e-06
-4.07483e-06
-7.62144e-06
-8.73313e-06
-7.21813e-06
-2.92905e-06
0.000683444
0.000671155
0.000647038
0.000615306
0.000580737
0.000546799
0.000514894
0.000484674
0.000454815
0.000423871
0.000390952
0.000356365
0.000321812
0.000289767
0.000261701
0.000236888
0.000212942
0.000188207
0.000163456
0.000141197
0.000122868
0.000106797
9.0252e-05
7.35175e-05
5.90241e-05
4.70054e-05
3.55932e-05
2.45728e-05
1.51299e-05
7.45805e-06
1.26857e-06
-3.04654e-06
-5.10112e-06
-4.80746e-06
-2.03686e-06
0.000652687
0.000643386
0.00062259
0.000594116
0.000562572
0.000531574
0.000502837
0.000476223
0.000450315
0.000423323
0.00039391
0.000362025
0.000329206
0.000298052
0.000270568
0.000246538
0.000223677
0.000199768
0.000175022
0.000152062
0.000132989
0.000116859
0.000100404
8.29357e-05
6.75582e-05
5.51443e-05
4.33343e-05
3.17319e-05
2.17449e-05
1.35235e-05
6.70432e-06
1.59204e-06
-1.44433e-06
-2.38854e-06
-1.16869e-06
0.000621773
0.000615557
0.00059818
0.000573047
0.000544482
0.000516088
0.000489826
0.000465901
0.000443114
0.000419617
0.000393775
0.000365064
0.000334614
0.000304822
0.000278007
0.000254593
0.000232743
0.000210062
0.000186001
0.000162805
0.000142934
0.000126367
0.000110202
9.26156e-05
7.63414e-05
6.32624e-05
5.11677e-05
3.91087e-05
2.84953e-05
1.96619e-05
1.21911e-05
6.26524e-06
2.21174e-06
3.35701e-08
-2.62197e-07
0.000590964
0.000587747
0.000573763
0.000552015
0.000526462
0.000500537
0.000476309
0.000454318
0.000433789
0.000413122
0.000390609
0.0003653
0.000337718
0.000309804
0.000283877
0.000260982
0.000239982
0.000218674
0.000195881
0.00017303
0.000152586
0.000135326
0.000119274
0.000102128
8.53323e-05
7.13039e-05
5.88698e-05
4.65834e-05
3.53431e-05
2.58199e-05
1.76867e-05
1.09406e-05
5.84172e-06
2.42093e-06
6.84461e-07
0.000521333
0.000523831
0.000517136
0.000503133
0.000484668
0.000464481
0.000444646
0.000426372
0.00040989
0.000394486
0.000378722
0.000361001
0.00034042
0.000317543
0.000294253
0.00027265
0.000253388
0.000235148
0.000215834
0.000194791
0.000173797
0.000155104
0.000138936
0.000123083
0.00010608
8.99725e-05
7.63904e-05
6.37957e-05
5.13347e-05
4.00982e-05
3.03706e-05
2.17215e-05
1.41885e-05
7.84247e-06
2.63465e-06
0.000448469
0.000448996
0.000445258
0.000437666
0.000427112
0.000414626
0.000401218
0.000387812
0.000375086
0.000363236
0.00035176
0.000339587
0.00032557
0.00030925
0.000291327
0.000273356
0.000256631
0.000241077
0.000225328
0.000208082
0.000189705
0.000171963
0.000156049
0.000141146
0.000125538
0.000109565
9.50139e-05
8.17686e-05
6.86677e-05
5.59913e-05
4.43145e-05
3.34163e-05
2.31153e-05
1.34226e-05
4.38154e-06
0.000392226
0.000388732
0.000384555
0.000379446
0.000373213
0.000365799
0.000357345
0.000348184
0.000338737
0.000329329
0.000319995
0.000310399
0.000299979
0.000288295
0.000275377
0.000261785
0.000248243
0.000235044
0.000221808
0.000207865
0.000193056
0.000178006
0.000163466
0.000149462
0.000135321
0.000120786
0.000106548
9.30045e-05
7.97093e-05
6.64999e-05
5.36925e-05
4.12953e-05
2.91886e-05
1.73193e-05
5.78286e-06
0.000344631
0.00033978
0.000335403
0.000331235
0.000326913
0.000322118
0.000316661
0.000310508
0.000303754
0.000296553
0.000289032
0.00028121
0.000272991
0.000264208
0.000254749
0.000244634
0.000234035
0.000223141
0.000212017
0.000200547
0.00018858
0.000176138
0.000163447
0.00015072
0.000137928
0.000124889
0.000111648
9.84758e-05
8.53843e-05
7.2244e-05
5.91038e-05
4.60138e-05
3.29561e-05
1.98508e-05
6.71577e-06
0.000302728
0.000298513
0.000294782
0.000291362
0.000287984
0.000284377
0.000280345
0.000275777
0.000270664
0.000265069
0.000259098
0.000252837
0.000246311
0.000239454
0.000232152
0.000224307
0.000215922
0.000207088
0.000197915
0.000188416
0.000178504
0.000168096
0.000157246
0.000146098
0.000134725
0.000123053
0.000111029
9.87641e-05
8.63372e-05
7.37046e-05
6.08446e-05
4.77752e-05
3.44975e-05
2.09409e-05
7.06762e-06
0.000264838
0.000261771
0.000258917
0.00025616
0.000253341
0.000250312
0.000246975
0.000243282
0.000239236
0.000234859
0.000230191
0.000225248
0.000220028
0.000214491
0.000208588
0.000202275
0.000195543
0.000188401
0.000180874
0.000172959
0.000164634
0.000155877
0.000146696
0.000137122
0.000127176
0.000116853
0.000106138
9.50523e-05
8.36182e-05
7.18268e-05
5.96675e-05
4.71229e-05
3.41941e-05
2.0834e-05
7.03372e-06
0.000230531
0.00022825
0.000226015
0.000223751
0.000221378
0.000218826
0.000216057
0.000213051
0.000209807
0.000206322
0.000202593
0.000198612
0.000194367
0.000189841
0.00018502
0.000179877
0.000174394
0.000168549
0.000162335
0.000155746
0.000148782
0.000141427
0.000133668
0.000125494
0.000116905
0.000107901
9.84719e-05
8.86068e-05
7.83029e-05
6.75574e-05
5.6363e-05
4.46978e-05
3.25581e-05
1.99096e-05
6.74145e-06
0.00019929
0.000197468
0.000195664
0.000193821
0.00019188
0.00018979
0.000187525
0.000185073
0.00018243
0.000179593
0.000176559
0.000173315
0.000169852
0.000166151
0.000162199
0.000157972
0.000153455
0.000148628
0.000143483
0.000138005
0.000132184
0.000126
0.000119438
0.000112481
0.000105119
9.73391e-05
8.91263e-05
8.04681e-05
7.13533e-05
6.17698e-05
5.17065e-05
4.11399e-05
3.00594e-05
1.84334e-05
6.2452e-06
0.000171016
0.00016954
0.00016808
0.000166585
0.000165005
0.000163297
0.000161442
0.000159431
0.000157264
0.000154939
0.000152454
0.000149797
0.000146957
0.000143917
0.000140664
0.000137178
0.000133447
0.000129453
0.000125184
0.000120621
0.00011575
0.000110552
0.00010501
9.91075e-05
9.28282e-05
8.61556e-05
7.9073e-05
7.15636e-05
6.36106e-05
5.51964e-05
4.63076e-05
3.69218e-05
2.70283e-05
1.66004e-05
5.62674e-06
0.000145863
0.000144664
0.000143475
0.000142253
0.000140958
0.000139556
0.000138033
0.00013638
0.0001346
0.000132689
0.000130647
0.000128462
0.000126124
0.000123617
0.000120931
0.000118048
0.000114957
0.000111639
0.000108083
0.000104272
0.00010019
9.58201e-05
9.11456e-05
8.61489e-05
8.08146e-05
7.51247e-05
6.90612e-05
6.26055e-05
5.57398e-05
4.84459e-05
4.07095e-05
3.25097e-05
2.38346e-05
1.46603e-05
4.97391e-06
0.000124018
0.000123036
0.00012206
0.000121053
0.000119984
0.000118827
0.000117569
0.000116203
0.000114733
0.000113154
0.000111464
0.000109654
0.000107716
0.000105635
0.000103402
0.000101001
9.84238e-05
9.56541e-05
9.26817e-05
8.94908e-05
8.60685e-05
8.23967e-05
7.84598e-05
7.42402e-05
6.97224e-05
6.48886e-05
5.97216e-05
5.42034e-05
4.83168e-05
4.20442e-05
3.53714e-05
2.8279e-05
2.07549e-05
1.27783e-05
4.33747e-06
0.000105697
0.000104885
0.000104074
0.000103235
0.000102343
0.000101377
0.000100326
9.91864e-05
9.79585e-05
9.66394e-05
9.52273e-05
9.37134e-05
9.20909e-05
9.03477e-05
8.84753e-05
8.6461e-05
8.42961e-05
8.19674e-05
7.94657e-05
7.67767e-05
7.3889e-05
7.07859e-05
6.74532e-05
6.38745e-05
6.00354e-05
5.59193e-05
5.151e-05
4.67901e-05
4.17439e-05
3.63546e-05
3.06094e-05
2.44908e-05
1.79879e-05
1.10826e-05
3.76385e-06
9.11905e-05
9.05072e-05
8.98206e-05
8.91081e-05
8.83492e-05
8.75266e-05
8.6633e-05
8.56639e-05
8.46199e-05
8.34982e-05
8.22969e-05
8.10083e-05
7.96263e-05
7.81404e-05
7.65432e-05
7.48237e-05
7.2974e-05
7.09828e-05
6.88417e-05
6.65382e-05
6.40621e-05
6.13985e-05
5.85349e-05
5.54563e-05
5.21501e-05
4.86008e-05
4.47939e-05
4.07134e-05
3.63444e-05
3.16717e-05
2.66831e-05
2.13629e-05
1.57004e-05
9.67939e-06
3.28925e-06
8.08738e-05
8.02784e-05
7.96774e-05
7.90518e-05
7.83845e-05
7.76609e-05
7.68753e-05
7.60235e-05
7.51063e-05
7.41207e-05
7.3065e-05
7.1932e-05
7.07163e-05
6.94085e-05
6.80021e-05
6.64871e-05
6.48567e-05
6.31006e-05
6.12113e-05
5.91777e-05
5.69905e-05
5.46362e-05
5.21033e-05
4.93784e-05
4.64498e-05
4.33036e-05
3.99264e-05
3.63033e-05
3.24207e-05
2.82643e-05
2.38226e-05
1.9081e-05
1.40293e-05
8.65257e-06
2.9408e-06
7.52964e-05
7.47489e-05
7.41938e-05
7.36141e-05
7.29948e-05
7.23233e-05
7.15946e-05
7.0805e-05
6.99552e-05
6.90423e-05
6.80642e-05
6.70145e-05
6.58877e-05
6.46752e-05
6.33709e-05
6.19655e-05
6.04527e-05
5.88228e-05
5.70689e-05
5.51804e-05
5.31486e-05
5.09609e-05
4.86063e-05
4.60722e-05
4.33476e-05
4.04194e-05
3.72749e-05
3.38998e-05
3.02814e-05
2.64058e-05
2.22622e-05
1.78365e-05
1.31187e-05
8.09423e-06
2.75294e-06
0.000519685
0.000817236
0.000718161
0.000864662
0.000789374
0.000932867
0.000911603
0.00105283
0.00105099
0.00120119
0.00122607
0.00140188
0.00145353
0.00166967
0.00175946
0.00204389
0.00221868
0.00266108
0.00305436
0.00387559
0.000519955
0.00081674
0.000718905
0.000864192
0.000789983
0.000932037
0.000912279
0.00105158
0.00105167
0.00119908
0.00122655
0.00139786
0.00145345
0.00166193
0.00175946
0.00202856
0.00221712
0.00261817
0.00300309
0.00355631
0.000520439
0.000815773
0.000720388
0.000863036
0.000791288
0.00093015
0.000913774
0.00104885
0.00105336
0.00119457
0.00122834
0.00138965
0.00145595
0.00164585
0.00176197
0.00199727
0.00221111
0.00253661
0.00289042
0.00319373
0.000521067
0.000814917
0.000722195
0.00086167
0.000792856
0.000927948
0.000915529
0.00104566
0.00105533
0.00118898
0.00123051
0.00137935
0.00145827
0.00162627
0.00176146
0.00196148
0.0021882
0.00244154
0.00273523
0.0028907
0.000522025
0.000814281
0.000724349
0.00086014
0.000794686
0.000925467
0.000917471
0.00104197
0.00105743
0.0011822
0.00123265
0.00136697
0.00145919
0.00160463
0.00175434
0.00192376
0.00214466
0.00234039
0.00256335
0.00264538
0.000523504
0.000813743
0.000726935
0.00085828
0.000796821
0.000922447
0.000919598
0.00103742
0.00105962
0.0011739
0.00123432
0.00135288
0.00145722
0.00158283
0.00173818
0.00188432
0.0020823
0.00223534
0.00239102
0.00243325
0.000525591
0.000813116
0.000729961
0.000855915
0.000799231
0.000918667
0.000921877
0.00103178
0.00106173
0.00116426
0.0012347
0.00133847
0.00145066
0.00156168
0.00171198
0.00184168
0.00200647
0.0021267
0.00222611
0.00224132
0.000528267
0.000812186
0.000733412
0.000852926
0.000801895
0.000914021
0.000924295
0.00102509
0.00106344
0.00115392
0.00123274
0.00132471
0.00143844
0.00154043
0.00167687
0.0017935
0.00192317
0.00201521
0.00207216
0.00206674
0.000531443
0.000810762
0.000737307
0.000849253
0.000804825
0.000908493
0.000926793
0.00101758
0.00106418
0.00114366
0.00122756
0.00131164
0.00142064
0.00151695
0.00163524
0.00173844
0.00183661
0.00190297
0.00193023
0.00190968
0.000535028
0.000808689
0.000741715
0.000844885
0.000808033
0.000902134
0.000929154
0.00100969
0.00106325
0.00113387
0.00121873
0.00129828
0.00139834
0.00148927
0.00158902
0.00167669
0.00174897
0.00179267
0.00179999
0.00176964
0.000538985
0.000805834
0.000746706
0.000839846
0.00081146
0.000895082
0.000930946
0.0010019
0.00106008
0.0011245
0.0012065
0.00128317
0.00137267
0.00145641
0.00153907
0.00160992
0.0016614
0.00168648
0.00168063
0.001645
0.000543348
0.000802046
0.000752299
0.000834197
0.000814928
0.000887601
0.000931601
0.000994562
0.00105439
0.00111491
0.00119155
0.00126517
0.00134409
0.00141831
0.00148571
0.00154013
0.00157483
0.00158569
0.00157125
0.00153365
0.000548215
0.000797139
0.000758424
0.000828062
0.00081811
0.000880091
0.000930597
0.00098775
0.00104633
0.00110417
0.00117442
0.00124367
0.00131251
0.00137571
0.00142929
0.00146894
0.00149015
0.00149074
0.00147105
0.00143365
0.000553719
0.000790908
0.000764871
0.000821649
0.000820575
0.000872964
0.000927608
0.000981123
0.00103636
0.00109152
0.00115522
0.00121853
0.00127773
0.00132946
0.00137041
0.00139749
0.00140817
0.00140168
0.00137923
0.00134347
0.000560004
0.00078317
0.000771263
0.000814773
0.000821777
0.000866447
0.000922617
0.000974019
0.00102487
0.00107655
0.00113376
0.00118998
0.00123973
0.00128032
0.00130989
0.00132661
0.00132941
0.00131839
0.00129504
0.00126188
0.000567186
0.000773845
0.000777072
0.000809353
0.000821376
0.000860484
0.000915919
0.000965765
0.00101193
0.00105907
0.0011098
0.00115832
0.00119878
0.001229
0.00124857
0.00125701
0.0012542
0.00124063
0.00121778
0.00118786
0.000575309
0.000763021
0.00078161
0.000805081
0.000819263
0.000854656
0.000907898
0.000955939
0.000997354
0.00103904
0.00108313
0.00112386
0.00115541
0.00117622
0.00118721
0.00118921
0.00118264
0.00116808
0.00114677
0.0011205
0.000584368
0.000751008
0.000784038
0.000802047
0.000815843
0.000848449
0.000898759
0.000944314
0.000980885
0.00101644
0.00105367
0.00108685
0.00111021
0.00112276
0.00112656
0.00112362
0.00111475
0.00110037
0.00108135
0.00105904
0.00059431
0.000738323
0.000783439
0.000800176
0.000811906
0.000841643
0.000888563
0.000930852
0.000962306
0.000991237
0.00102143
0.00104755
0.00106373
0.00106927
0.00106726
0.00106061
0.00105051
0.00103719
0.00102101
0.00100284
0.000604903
0.000725795
0.000779147
0.000798219
0.000807885
0.000834218
0.000877334
0.000915684
0.000941571
0.000963476
0.000986548
0.00100618
0.00101636
0.00101636
0.00100985
0.00100052
0.000989978
0.000978303
0.000965342
0.0009514
0.000615693
0.000714089
0.00077117
0.000794919
0.000803718
0.00082618
0.000865078
0.000899052
0.000918953
0.000933449
0.000949317
0.000963017
0.000968426
0.000964408
0.000954696
0.000943596
0.000933207
0.000923572
0.000914048
0.000904324
0.000626104
0.000703766
0.000760293
0.000789234
0.000798592
0.000817377
0.000851696
0.000881182
0.000895011
0.000901826
0.000910333
0.000918507
0.000920247
0.000913612
0.000901955
0.000889937
0.000880163
0.00087278
0.000866742
0.000861089
0.000635505
0.000695262
0.000747899
0.000780539
0.000791387
0.000807149
0.000836948
0.00086209
0.000870377
0.000869664
0.000870647
0.000873424
0.000872172
0.000864066
0.00085164
0.000839526
0.000830745
0.000825661
0.00082295
0.000821038
0.000643404
0.000688555
0.000734942
0.000768754
0.000781425
0.000794699
0.000820204
0.000841565
0.000845363
0.000838016
0.000831591
0.000828817
0.000824794
0.000815986
0.000803791
0.00079235
0.000784873
0.000781976
0.000782218
0.00078352
0.000649512
0.000683042
0.000722006
0.000754636
0.000768348
0.00077952
0.000800848
0.000819194
0.000819899
0.000807398
0.000794275
0.00078582
0.000778926
0.000769772
0.00075851
0.000748374
0.00074243
0.000741495
0.000744151
0.000748004
0.000653558
0.000678098
0.000709423
0.00073903
0.000752483
0.000761274
0.000778584
0.000794339
0.000793723
0.000777998
0.00075937
0.000745493
0.000735497
0.000725931
0.000715875
0.000707398
0.000703081
0.0007038
0.000708276
0.000714025
0.000655303
0.000673102
0.000697078
0.000722321
0.000734426
0.000740444
0.000753287
0.000766616
0.000766075
0.000749662
0.000727493
0.000708859
0.00069553
0.000685062
0.000675913
0.000668991
0.000666136
0.000668115
0.000673854
0.000681014
0.000654708
0.000667325
0.000684649
0.000704651
0.000714653
0.00071783
0.000725876
0.000736287
0.000736268
0.000721385
0.000698505
0.000676773
0.000660174
0.000647997
0.000638822
0.000632731
0.000630787
0.000633507
0.000640024
0.000648312
0.000651708
0.00066042
0.000671833
0.000686139
0.000693302
0.000693913
0.000697469
0.00070414
0.000704295
0.000692024
0.000671115
0.000648957
0.000630283
0.000615997
0.000605571
0.000598986
0.000596847
0.000599469
0.000606214
0.000615429
0.000646096
0.000651984
0.000658447
0.000667031
0.000670689
0.000668833
0.000668645
0.000671541
0.000670905
0.000661082
0.000643611
0.000623591
0.000605095
0.000589671
0.000577581
0.000569254
0.000565527
0.00056698
0.000573223
0.000582915
0.000626598
0.000627212
0.000624143
0.000620732
0.000615914
0.000608189
0.000600313
0.00059519
0.000591776
0.000586576
0.000577264
0.000564179
0.000549127
0.00053394
0.000520012
0.000508572
0.000500947
0.000498415
0.00050177
0.000510909
0.000572152
0.000568937
0.00056143
0.000552023
0.000541878
0.000530782
0.000520018
0.000511629
0.000506119
0.000502102
0.000497733
0.000491955
0.000484657
0.000476239
0.000467254
0.000458382
0.000450566
0.000444992
0.00044283
0.000444818
0.000509976
0.000506024
0.00049878
0.000489614
0.000479547
0.000469146
0.000459056
0.000450104
0.000442816
0.000437128
0.000432563
0.000428591
0.000424817
0.000420944
0.000416741
0.000412107
0.000407173
0.000402326
0.000398115
0.000395055
0.00044822
0.000444628
0.000438493
0.000430749
0.000422138
0.000413228
0.000404456
0.000396303
0.000389223
0.000383459
0.000378947
0.000375403
0.000372469
0.000369812
0.000367158
0.000364293
0.000361075
0.00035746
0.000353507
0.000349363
0.000389895
0.000386915
0.000382013
0.000375873
0.000369041
0.000361954
0.000354965
0.000348389
0.000342478
0.00033737
0.000333072
0.000329485
0.000326452
0.000323799
0.000321345
0.000318911
0.000316332
0.000313482
0.000310303
0.000306823
0.000336653
0.000334294
0.000330443
0.000325673
0.000320409
0.000314964
0.000309579
0.000304432
0.000299649
0.000295307
0.000291441
0.000288038
0.000285041
0.000282359
0.000279882
0.000277505
0.000275136
0.00027272
0.000270242
0.000267727
0.000288877
0.000287026
0.00028402
0.000280303
0.000276209
0.000271976
0.000267776
0.000263729
0.000259912
0.000256368
0.000253114
0.000250145
0.000247434
0.000244939
0.000242618
0.000240429
0.000238343
0.000236343
0.000234425
0.000232597
0.000246434
0.000244973
0.000242601
0.00023967
0.000236442
0.000233104
0.000229788
0.000226584
0.000223543
0.000220689
0.000218031
0.000215566
0.000213284
0.000211165
0.00020919
0.000207338
0.000205593
0.000203944
0.000202388
0.000200928
0.000209112
0.000207948
0.000206058
0.000203723
0.000201151
0.000198489
0.000195844
0.000193284
0.00019085
0.000188559
0.000186416
0.00018442
0.000182561
0.000180824
0.000179194
0.000177657
0.000176205
0.000174834
0.000173547
0.000172349
0.000176742
0.000175806
0.000174286
0.000172406
0.000170335
0.000168191
0.00016606
0.000163997
0.000162035
0.000160185
0.000158451
0.000156832
0.000155317
0.000153898
0.00015256
0.000151296
0.0001501
0.000148974
0.000147921
0.000146946
0.000149218
0.000148458
0.00014722
0.000145689
0.000144002
0.000142255
0.000140519
0.000138838
0.000137238
0.000135729
0.000134314
0.000132991
0.000131753
0.00013059
0.000129494
0.000128457
0.000127478
0.000126556
0.000125695
0.0001249
0.000126528
0.0001259
0.000124877
0.000123612
0.000122218
0.000120774
0.000119338
0.000117948
0.000116626
0.000115379
0.000114209
0.000113114
0.000112089
0.000111126
0.000110218
0.000109359
0.000108548
0.000107785
0.000107076
0.000106422
0.000108779
0.00010825
0.000107386
0.000106317
0.000105139
0.000103918
0.000102705
0.000101531
0.000100414
9.93603e-05
9.83717e-05