/*--------------------------------*- C++ -*----------------------------------*\
| =========                 |                                                 |
| \\      /  F ield         | OpenFOAM: The Open Source CFD Toolbox           |
|  \\    /   O peration     | Version:  1.4.1-dev                             |
|   \\  /    A nd           | Web:      http://www.openfoam.org               |
|    \\/     M anipulation  |                                                 |
\*---------------------------------------------------------------------------*/

FoamFile
{
    version 2.0;
    format ascii;

    root "/home/mjaworsk/OpenFOAM/mjaworsk-1.4.1-dev/run/FlatPlate-Blasius";
    case "icoHeatFoam-flatPlate2";
    instance "0.4";
    local "";

    class volVectorField;
    object U;
}

// * * * * * * * * * * * * * * * * * * * * * * * * * * * * * * * * * * * * * //

dimensions      [0 1 -1 0 0 0 0];

internalField   nonuniform List<vector> 
2475
(
(0.132076 0.00805177 0)
(0.0795541 0.00527737 0)
(0.0536074 0.00186742 0)
(0.039802 0.000631972 0)
(0.0322151 0.00026789 0)
(0.0279731 0.000143011 0)
(0.025203 0.000104237 0)
(0.0230815 8.61452e-05 0)
(0.0213405 7.06917e-05 0)
(0.0198771 5.76746e-05 0)
(0.0186256 4.75585e-05 0)
(0.0175377 3.97435e-05 0)
(0.016579 3.35634e-05 0)
(0.0157244 2.86147e-05 0)
(0.0149559 2.45588e-05 0)
(0.0142593 2.12301e-05 0)
(0.0136241 1.84313e-05 0)
(0.013041 1.61263e-05 0)
(0.0125026 1.41608e-05 0)
(0.0120026 1.25524e-05 0)
(0.0115366 1.11102e-05 0)
(0.0111025 9.86732e-06 0)
(0.0106994 8.62908e-06 0)
(0.0103269 7.59849e-06 0)
(0.00997862 6.67197e-06 0)
(0.0096526 6.05438e-06 0)
(0.00933989 5.40072e-06 0)
(0.00904918 4.95429e-06 0)
(0.00876611 4.35338e-06 0)
(0.00851501 3.96392e-06 0)
(0.00826269 3.34794e-06 0)
(0.00806437 3.01943e-06 0)
(0.00783668 2.483e-06 0)
(0.00770925 2.26891e-06 0)
(0.00747144 1.94973e-06 0)
(0.182611 0.0167907 0)
(0.161486 0.0149739 0)
(0.139484 0.00822962 0)
(0.117642 0.00412777 0)
(0.0996195 0.00225461 0)
(0.0869046 0.00134 0)
(0.0780132 0.000888694 0)
(0.0712897 0.000658742 0)
(0.0658589 0.000517821 0)
(0.0613177 0.000417022 0)
(0.0574393 0.000341474 0)
(0.0540704 0.000283862 0)
(0.0511036 0.000238861 0)
(0.0484609 0.000203054 0)
(0.0460861 0.000173957 0)
(0.0439345 0.00015015 0)
(0.0419727 0.000130318 0)
(0.0401716 0.000113907 0)
(0.0385092 9.99803e-05 0)
(0.0369663 8.83284e-05 0)
(0.0355306 7.79694e-05 0)
(0.034196 6.89431e-05 0)
(0.0329568 6.04739e-05 0)
(0.0318091 5.34442e-05 0)
(0.0307315 4.72757e-05 0)
(0.0297224 4.26925e-05 0)
(0.0287553 3.80666e-05 0)
(0.0278608 3.45092e-05 0)
(0.0269919 3.02692e-05 0)
(0.0262266 2.71999e-05 0)
(0.0254575 2.29752e-05 0)
(0.0248577 2.05071e-05 0)
(0.0241697 1.65109e-05 0)
(0.0237941 1.50793e-05 0)
(0.0231002 1.15208e-05 0)
(0.189936 0.0169316 0)
(0.189544 0.0185992 0)
(0.183426 0.0130358 0)
(0.171032 0.00856908 0)
(0.155936 0.00595266 0)
(0.141858 0.00417087 0)
(0.129975 0.00294304 0)
(0.120042 0.00217021 0)
(0.11162 0.00168145 0)
(0.104383 0.00134522 0)
(0.0980881 0.0010984 0)
(0.0925487 0.000911362 0)
(0.0876235 0.000765954 0)
(0.0832048 0.000650569 0)
(0.0792114 0.000557111 0)
(0.0755777 0.00048071 0)
(0.0722524 0.000417271 0)
(0.0691911 0.000364657 0)
(0.0663587 0.000320078 0)
(0.0637265 0.000282462 0)
(0.0612738 0.000249139 0)
(0.0589924 0.000220003 0)
(0.0568692 0.00019331 0)
(0.0548985 0.000171164 0)
(0.0530408 0.000151872 0)
(0.0513022 0.000136873 0)
(0.0496339 0.000121981 0)
(0.0480971 0.000110032 0)
(0.0466021 9.64204e-05 0)
(0.0452934 8.62025e-05 0)
(0.0439703 7.28304e-05 0)
(0.0429476 6.47459e-05 0)
(0.0417641 5.16107e-05 0)
(0.0411346 4.70081e-05 0)
(0.0399639 3.39935e-05 0)
(0.19049 0.0143067 0)
(0.19534 0.0179224 0)
(0.198117 0.0144412 0)
(0.195263 0.0107825 0)
(0.188032 0.00855195 0)
(0.179078 0.00684201 0)
(0.169884 0.00536847 0)
(0.160929 0.00422555 0)
(0.152398 0.00339153 0)
(0.144412 0.00277076 0)
(0.137027 0.0022932 0)
(0.130235 0.00191958 0)
(0.123997 0.00162315 0)
(0.118262 0.00138483 0)
(0.112979 0.00119011 0)
(0.1081 0.00102978 0)
(0.103581 0.000896008 0)
(0.099382 0.000784446 0)
(0.095466 0.000689632 0)
(0.0918057 0.000609148 0)
(0.0883749 0.000537822 0)
(0.0851705 0.000475307 0)
(0.08217 0.000418517 0)
(0.0793752 0.000371323 0)
(0.0767248 0.000330146 0)
(0.0742442 0.000297401 0)
(0.0718525 0.000264996 0)
(0.0696583 0.000238548 0)
(0.0675103 0.000208953 0)
(0.0656444 0.000186534 0)
(0.0637337 0.000157712 0)
(0.0622749 0.000140114 0)
(0.0605529 0.000111142 0)
(0.0596635 0.000100943 0)
(0.0579736 7.11417e-05 0)
(0.191644 0.0121512 0)
(0.195695 0.0160721 0)
(0.200694 0.0141837 0)
(0.202409 0.0112309 0)
(0.200636 0.00945763 0)
(0.196925 0.00819889 0)
(0.192253 0.00697975 0)
(0.186923 0.00588037 0)
(0.181085 0.00498036 0)
(0.174935 0.00424817 0)
(0.168662 0.00363813 0)
(0.162415 0.0031259 0)
(0.156294 0.00269567 0)
(0.15037 0.00233453 0)
(0.14468 0.00202966 0)
(0.139249 0.00177223 0)
(0.134079 0.00155319 0)
(0.129171 0.00136761 0)
(0.124511 0.00120797 0)
(0.120094 0.00107109 0)
(0.115898 0.000948982 0)
(0.11194 0.000841393 0)
(0.108189 0.000743491 0)
(0.104672 0.00066179 0)
(0.1013 0.000589968 0)
(0.0981384 0.000532072 0)
(0.0950581 0.000474457 0)
(0.0922422 0.00042706 0)
(0.0894512 0.000374184 0)
(0.0870509 0.000334251 0)
(0.0845417 0.00028302 0)
(0.082659 0.000251938 0)
(0.0803617 0.000199538 0)
(0.0792154 0.000181065 0)
(0.0769501 0.000126105 0)
(0.192925 0.0107978 0)
(0.195715 0.0143401 0)
(0.200253 0.0135532 0)
(0.203213 0.0111104 0)
(0.203743 0.00950633 0)
(0.202843 0.00854925 0)
(0.201258 0.00764583 0)
(0.199105 0.00674776 0)
(0.196333 0.00595969 0)
(0.192975 0.00529058 0)
(0.18912 0.00470486 0)
(0.184874 0.00418204 0)
(0.18033 0.0037142 0)
(0.175588 0.00329822 0)
(0.170723 0.00292845 0)
(0.165817 0.00260219 0)
(0.160916 0.00231365 0)
(0.156083 0.00206142 0)
(0.151332 0.00183851 0)
(0.146714 0.00164354 0)
(0.142213 0.00146662 0)
(0.137891 0.00130894 0)
(0.133704 0.00116365 0)
(0.129732 0.00104146 0)
(0.12585 0.000932495 0)
(0.122194 0.000843895 0)
(0.11856 0.000754363 0)
(0.115248 0.000680414 0)
(0.111892 0.000596949 0)
(0.109047 0.000534558 0)
(0.105978 0.000453673 0)
(0.103735 0.000405698 0)
(0.100857 0.000321844 0)
(0.0994836 0.000292771 0)
(0.0965949 0.000203376 0)
(0.193801 0.00989669 0)
(0.195876 0.0128288 0)
(0.199509 0.0128126 0)
(0.202506 0.0108888 0)
(0.20376 0.00932977 0)
(0.203887 0.00846935 0)
(0.203616 0.00776994 0)
(0.20311 0.00704452 0)
(0.202256 0.00637453 0)
(0.200987 0.00580272 0)
(0.199281 0.00530324 0)
(0.197163 0.00484923 0)
(0.194639 0.00442804 0)
(0.191756 0.00403781 0)
(0.188533 0.00367478 0)
(0.185041 0.00334011 0)
(0.181305 0.00303016 0)
(0.177414 0.00274811 0)
(0.173377 0.00248844 0)
(0.169298 0.00225429 0)
(0.165149 0.00203507 0)
(0.161058 0.00183589 0)
(0.156945 0.0016476 0)
(0.152979 0.0014875 0)
(0.14897 0.0013413 0)
(0.145168 0.00122192 0)
(0.141257 0.00109778 0)
(0.137702 0.00099508 0)
(0.13396 0.00087549 0)
(0.130854 0.000787379 0)
(0.127345 0.000670298 0)
(0.124883 0.000603651 0)
(0.121488 0.000481085 0)
(0.119965 0.000440498 0)
(0.116454 0.000307535 0)
(0.194328 0.0092182 0)
(0.195994 0.0115045 0)
(0.198845 0.0119539 0)
(0.201573 0.0105899 0)
(0.203059 0.00912349 0)
(0.203537 0.00826433 0)
(0.203665 0.00767202 0)
(0.203733 0.00706957 0)
(0.203681 0.00647949 0)
(0.20344 0.00596886 0)
(0.202951 0.00553416 0)
(0.20222 0.00514859 0)
(0.201198 0.00479171 0)
(0.199902 0.00445865 0)
(0.198277 0.00414261 0)
(0.19637 0.00384505 0)
(0.194128 0.00355985 0)
(0.191644 0.00329225 0)
(0.188857 0.00303498 0)
(0.185908 0.00279571 0)
(0.182707 0.00256187 0)
(0.179453 0.00234461 0)
(0.175983 0.00213102 0)
(0.17258 0.00194761 0)
(0.168941 0.00177411 0)
(0.165477 0.00163304 0)
(0.161693 0.00147932 0)
(0.158281 0.00135268 0)
(0.154449 0.00119617 0)
(0.151368 0.00108278 0)
(0.147636 0.000925134 0)
(0.145185 0.000840788 0)
(0.14144 0.000674827 0)
(0.13991 0.00062447 0)
(0.135882 0.000441281 0)
(0.194671 0.008643 0)
(0.196052 0.0103826 0)
(0.198288 0.0110346 0)
(0.20066 0.0101908 0)
(0.202216 0.00891179 0)
(0.202884 0.00804194 0)
(0.203139 0.00749607 0)
(0.203353 0.00698675 0)
(0.203536 0.00646016 0)
(0.203661 0.0059827 0)
(0.203657 0.00557763 0)
(0.20356 0.00523018 0)
(0.203303 0.00491598 0)
(0.202928 0.0046284 0)
(0.202332 0.00435689 0)
(0.20158 0.00410384 0)
(0.200543 0.00385851 0)
(0.199335 0.00362752 0)
(0.197796 0.00339807 0)
(0.196115 0.00318158 0)
(0.194083 0.00295987 0)
(0.191987 0.00275127 0)
(0.189521 0.00253566 0)
(0.187106 0.00235098 0)
(0.184263 0.00216783 0)
(0.181601 0.00202274 0)
(0.178379 0.0018531 0)
(0.175551 0.0017166 0)
(0.171998 0.00153019 0)
(0.169295 0.00139786 0)
(0.165635 0.00119914 0)
(0.163483 0.00110124 0)
(0.159667 0.000891607 0)
(0.15833 0.000836568 0)
(0.15404 0.000602466 0)
(0.19496 0.00811824 0)
(0.196117 0.00945499 0)
(0.197877 0.0101361 0)
(0.199876 0.00970366 0)
(0.201392 0.00868186 0)
(0.202194 0.00783411 0)
(0.202532 0.00729832 0)
(0.202784 0.00685684 0)
(0.203012 0.00639306 0)
(0.203241 0.00594523 0)
(0.203379 0.0055529 0)
(0.203502 0.00522117 0)
(0.20352 0.00492674 0)
(0.203536 0.00466392 0)
(0.203408 0.00441804 0)
(0.203264 0.00419515 0)
(0.202906 0.00397965 0)
(0.202521 0.0037821 0)
(0.201843 0.00358213 0)
(0.201149 0.00339645 0)
(0.200085 0.0031975 0)
(0.19906 0.00301265 0)
(0.197584 0.00281017 0)
(0.19625 0.00264181 0)
(0.194353 0.00246466 0)
(0.192732 0.0023338 0)
(0.190349 0.00216487 0)
(0.188438 0.00203844 0)
(0.1855 0.001837 0)
(0.183484 0.00169866 0)
(0.180206 0.00146343 0)
(0.178608 0.0013582 0)
(0.175068 0.00110974 0)
(0.174121 0.00105739 0)
(0.16997 0.000780972 0)
(0.195275 0.00762977 0)
(0.196245 0.00868441 0)
(0.197645 0.00931122 0)
(0.199295 0.00916007 0)
(0.200691 0.00841432 0)
(0.201571 0.00763951 0)
(0.201984 0.0071027 0)
(0.202262 0.00670237 0)
(0.202483 0.0062985 0)
(0.202739 0.00588833 0)
(0.202906 0.00550839 0)
(0.203094 0.0051843 0)
(0.203177 0.00489772 0)
(0.203322 0.00464733 0)
(0.203337 0.00441274 0)
(0.203436 0.00420572 0)
(0.203348 0.0040049 0)
(0.203362 0.00382821 0)
(0.20311 0.0036465 0)
(0.202989 0.00348514 0)
(0.202503 0.00330435 0)
(0.20221 0.00314357 0)
(0.201433 0.00295562 0)
(0.200955 0.00280875 0)
(0.199849 0.00264275 0)
(0.19918 0.00253537 0)
(0.197641 0.00237739 0)
(0.196713 0.00227742 0)
(0.19456 0.00207827 0)
(0.193372 0.00195023 0)
(0.190702 0.00168791 0)
(0.189771 0.00158086 0)
(0.186819 0.00130221 0)
(0.186365 0.00125868 0)
(0.182799 0.000958185 0)
(0.195645 0.00717827 0)
(0.196459 0.00803073 0)
(0.197583 0.00857972 0)
(0.198936 0.00859697 0)
(0.20017 0.00810002 0)
(0.201071 0.00744319 0)
(0.201545 0.0069179 0)
(0.201857 0.00653769 0)
(0.202063 0.00618275 0)
(0.202324 0.0058171 0)
(0.202486 0.00545652 0)
(0.202698 0.0051409 0)
(0.202782 0.00485814 0)
(0.202962 0.00461574 0)
(0.202994 0.00438615 0)
(0.203169 0.00418813 0)
(0.203145 0.00399246 0)
(0.203309 0.00382715 0)
(0.203202 0.00365273 0)
(0.203339 0.00350659 0)
(0.203103 0.00333456 0)
(0.203189 0.00319113 0)
(0.202778 0.00301122 0)
(0.202805 0.00288132 0)
(0.202191 0.00272203 0)
(0.202163 0.00263612 0)
(0.20126 0.00248894 0)
(0.201099 0.00242017 0)
(0.199697 0.00223547 0)
(0.199245 0.00213104 0)
(0.197269 0.00185394 0)
(0.196913 0.00174718 0)
(0.194717 0.0014478 0)
(0.194697 0.00141364 0)
(0.192039 0.00111197 0)
(0.196055 0.00676505 0)
(0.196742 0.00746417 0)
(0.197652 0.00793848 0)
(0.198766 0.00804539 0)
(0.199828 0.0077449 0)
(0.200704 0.00722932 0)
(0.201219 0.00674107 0)
(0.201573 0.00637313 0)
(0.201772 0.00605206 0)
(0.202032 0.00573124 0)
(0.202182 0.00539763 0)
(0.202406 0.00509561 0)
(0.202479 0.00481673 0)
(0.20267 0.00458141 0)
(0.202688 0.00435487 0)
(0.20288 0.00416397 0)
(0.202853 0.00396977 0)
(0.203058 0.0038116 0)
(0.202978 0.00363852 0)
(0.203199 0.00350176 0)
(0.203041 0.00333195 0)
(0.203271 0.00319956 0)
(0.203008 0.00302163 0)
(0.203244 0.00290182 0)
(0.202872 0.00274246 0)
(0.203143 0.00267011 0)
(0.202621 0.00252758 0)
(0.202879 0.00248321 0)
(0.202055 0.00231641 0)
(0.202085 0.00224095 0)
(0.200755 0.00196149 0)
(0.200742 0.00185368 0)
(0.199282 0.00154137 0)
(0.199503 0.00151027 0)
(0.197816 0.00122627 0)
(0.196475 0.00638734 0)
(0.197057 0.00696518 0)
(0.197801 0.00737407 0)
(0.198726 0.0075239 0)
(0.199628 0.00736378 0)
(0.200449 0.0069882 0)
(0.200982 0.00656228 0)
(0.201377 0.00621222 0)
(0.201583 0.00591284 0)
(0.201843 0.00563105 0)
(0.201983 0.00532881 0)
(0.202215 0.00504682 0)
(0.202283 0.00477457 0)
(0.202479 0.00454685 0)
(0.202486 0.00432315 0)
(0.202677 0.00413919 0)
(0.20264 0.00394587 0)
(0.202847 0.00379352 0)
(0.202767 0.00361986 0)
(0.202999 0.00348967 0)
(0.202864 0.0033197 0)
(0.203117 0.00319459 0)
(0.202914 0.00301644 0)
(0.203184 0.00290201 0)
(0.202921 0.00273891 0)
(0.20325 0.00267237 0)
(0.20293 0.00252913 0)
(0.203302 0.00249733 0)
(0.202861 0.00234531 0)
(0.203096 0.00229603 0)
(0.202288 0.0020245 0)
(0.202385 0.00191384 0)
(0.201501 0.00159437 0)
(0.201747 0.00155708 0)
(0.200834 0.00129865 0)
(0.196877 0.00604026 0)
(0.197373 0.00652037 0)
(0.197987 0.00687233 0)
(0.198761 0.00703946 0)
(0.199525 0.00697301 0)
(0.200275 0.00671917 0)
(0.200803 0.00637102 0)
(0.201229 0.0060518 0)
(0.201454 0.00576938 0)
(0.201718 0.00551829 0)
(0.201856 0.00524738 0)
(0.202091 0.00499058 0)
(0.202165 0.00472939 0)
(0.202363 0.00451084 0)
(0.202373 0.00429078 0)
(0.202557 0.0041138 0)
(0.202522 0.00392201 0)
(0.202715 0.00377513 0)
(0.202644 0.00360121 0)
(0.202856 0.00347612 0)
(0.202745 0.00330623 0)
(0.20297 0.00318633 0)
(0.202811 0.00300873 0)
(0.203041 0.00289748 0)
(0.202843 0.0027309 0)
(0.203115 0.00266505 0)
(0.202909 0.00251946 0)
(0.203223 0.00248994 0)
(0.203011 0.00234727 0)
(0.203265 0.00231668 0)
(0.202832 0.00205978 0)
(0.202904 0.00194713 0)
(0.202392 0.0016255 0)
(0.202531 0.00157581 0)
(0.202074 0.00133968 0)
(0.19725 0.00571947 0)
(0.197672 0.00612001 0)
(0.198183 0.0064224 0)
(0.198836 0.0065926 0)
(0.199484 0.00658612 0)
(0.200157 0.00642857 0)
(0.200664 0.00616106 0)
(0.201105 0.00588552 0)
(0.201353 0.00562274 0)
(0.201625 0.00539561 0)
(0.201768 0.00515263 0)
(0.202002 0.00492325 0)
(0.202088 0.00467777 0)
(0.202287 0.00447077 0)
(0.202311 0.004256 0)
(0.202487 0.00408609 0)
(0.202467 0.00389696 0)
(0.202643 0.0037553 0)
(0.202592 0.00358245 0)
(0.202778 0.00346156 0)
(0.202696 0.00329305 0)
(0.202882 0.00317704 0)
(0.202767 0.0030018 0)
(0.202943 0.00289292 0)
(0.202799 0.00272527 0)
(0.202987 0.00265739 0)
(0.202856 0.0025105 0)
(0.203067 0.00247725 0)
(0.202979 0.00233923 0)
(0.203174 0.00231888 0)
(0.202984 0.00207933 0)
(0.202999 0.0019686 0)
(0.202693 0.00164998 0)
(0.202699 0.00158796 0)
(0.202423 0.00136481 0)
(0.197592 0.00542123 0)
(0.197952 0.0057565 0)
(0.19838 0.00601604 0)
(0.198934 0.00618129 0)
(0.199486 0.0062121 0)
(0.200083 0.00612592 0)
(0.200557 0.00593203 0)
(0.200997 0.00570792 0)
(0.201264 0.00547126 0)
(0.201544 0.00526535 0)
(0.201697 0.0050459 0)
(0.201929 0.00484317 0)
(0.20203 0.00461683 0)
(0.202229 0.00442404 0)
(0.202273 0.00421683 0)
(0.202442 0.00405438 0)
(0.202442 0.00386918 0)
(0.202604 0.0037325 0)
(0.202577 0.00356218 0)
(0.20274 0.00344507 0)
(0.202689 0.00327939 0)
(0.202843 0.00316646 0)
(0.202765 0.00299514 0)
(0.2029 0.00288836 0)
(0.2028 0.00272243 0)
(0.202923 0.00265131 0)
(0.202842 0.00250487 0)
(0.202969 0.00246557 0)
(0.202942 0.00232947 0)
(0.203073 0.00231231 0)
(0.203019 0.00208964 0)
(0.203 0.00198563 0)
(0.202795 0.0016751 0)
(0.202707 0.00160587 0)
(0.202461 0.00138619 0)
(0.197907 0.00514171 0)
(0.198214 0.00542317 0)
(0.198575 0.00564593 0)
(0.199046 0.00580218 0)
(0.19952 0.0058554 0)
(0.200046 0.00582018 0)
(0.200482 0.00568769 0)
(0.200906 0.00551615 0)
(0.201184 0.00531183 0)
(0.20147 0.00512817 0)
(0.201636 0.00492911 0)
(0.201866 0.0047505 0)
(0.20198 0.00454482 0)
(0.202179 0.00436851 0)
(0.202241 0.00417137 0)
(0.202409 0.00401722 0)
(0.202427 0.00383735 0)
(0.202582 0.00370572 0)
(0.202575 0.00353908 0)
(0.202724 0.00342566 0)
(0.202696 0.00326418 0)
(0.202831 0.00315396 0)
(0.20278 0.00298762 0)
(0.202893 0.00288277 0)
(0.202823 0.00272087 0)
(0.20291 0.00264615 0)
(0.202858 0.00250161 0)
(0.202939 0.00245586 0)
(0.202936 0.00232087 0)
(0.203023 0.0023021 0)
(0.203032 0.00209425 0)
(0.203006 0.00200042 0)
(0.20285 0.00170198 0)
(0.202722 0.00163218 0)
(0.20246 0.00140937 0)
(0.198198 0.00487807 0)
(0.198459 0.00511495 0)
(0.198765 0.00530611 0)
(0.19917 0.00545181 0)
(0.199577 0.00551783 0)
(0.200042 0.00551836 0)
(0.200436 0.00543401 0)
(0.200836 0.00531077 0)
(0.201115 0.00514212 0)
(0.201404 0.00498344 0)
(0.20158 0.0048039 0)
(0.201811 0.00464666 0)
(0.201935 0.00446153 0)
(0.202135 0.00430306 0)
(0.202211 0.00411816 0)
(0.20238 0.00397345 0)
(0.202414 0.0038003 0)
(0.202567 0.00367427 0)
(0.202576 0.00351233 0)
(0.202719 0.00340256 0)
(0.202707 0.00324644 0)
(0.202833 0.00313899 0)
(0.202799 0.00297833 0)
(0.202904 0.00287521 0)
(0.202854 0.00271907 0)
(0.202925 0.00264081 0)
(0.202889 0.00249926 0)
(0.20295 0.00244734 0)
(0.202954 0.00231385 0)
(0.203017 0.00229082 0)
(0.203046 0.0020955 0)
(0.203027 0.00201328 0)
(0.202899 0.00172913 0)
(0.202768 0.00166424 0)
(0.202498 0.00143493 0)
(0.198467 0.0046284 0)
(0.19869 0.00482813 0)
(0.198952 0.00499217 0)
(0.199303 0.00512694 0)
(0.199655 0.0051997 0)
(0.200064 0.00522505 0)
(0.200417 0.00517713 0)
(0.200789 0.00509487 0)
(0.201059 0.00496152 0)
(0.201347 0.00483001 0)
(0.20153 0.00467081 0)
(0.201763 0.00453323 0)
(0.201894 0.00436765 0)
(0.202096 0.00422758 0)
(0.202183 0.00405652 0)
(0.202355 0.00392238 0)
(0.202401 0.00375718 0)
(0.202555 0.00363756 0)
(0.202576 0.00348158 0)
(0.202719 0.00337544 0)
(0.202716 0.00322539 0)
(0.202841 0.00312112 0)
(0.202818 0.00296677 0)
(0.202922 0.0028651 0)
(0.202885 0.00271593 0)
(0.202954 0.0026344 0)
(0.202924 0.00249674 0)
(0.202981 0.00243908 0)
(0.202983 0.00230796 0)
(0.203036 0.00227966 0)
(0.203066 0.00209503 0)
(0.203058 0.00202435 0)
(0.202948 0.00175486 0)
(0.202835 0.00169825 0)
(0.202576 0.00146146 0)
(0.198714 0.0043896 0)
(0.198906 0.0045587 0)
(0.199133 0.0046997 0)
(0.199441 0.00482375 0)
(0.199746 0.00489946 0)
(0.200107 0.00494201 0)
(0.200421 0.00492134 0)
(0.200764 0.00487215 0)
(0.201019 0.00477074 0)
(0.2013 0.00466679 0)
(0.201486 0.00452909 0)
(0.201721 0.00441067 0)
(0.201858 0.00426361 0)
(0.202062 0.00414203 0)
(0.202156 0.00398599 0)
(0.202332 0.00386342 0)
(0.202387 0.00370732 0)
(0.202544 0.00359479 0)
(0.202574 0.00344638 0)
(0.20272 0.00334434 0)
(0.202725 0.00320057 0)
(0.202849 0.00309978 0)
(0.202834 0.00295264 0)
(0.202941 0.00285216 0)
(0.202913 0.00271074 0)
(0.202985 0.00262634 0)
(0.20296 0.00249337 0)
(0.203019 0.00243049 0)
(0.203018 0.00230249 0)
(0.203069 0.00226901 0)
(0.20309 0.00209367 0)
(0.203095 0.0020338 0)
(0.202998 0.00177812 0)
(0.202911 0.00173123 0)
(0.202675 0.00148746 0)
(0.198942 0.00415871 0)
(0.199106 0.00430334 0)
(0.199306 0.00442528 0)
(0.19958 0.00453926 0)
(0.199847 0.00461544 0)
(0.200166 0.00466994 0)
(0.200444 0.00466971 0)
(0.200755 0.00464682 0)
(0.200992 0.00457261 0)
(0.201262 0.00449455 0)
(0.201448 0.00437855 0)
(0.201684 0.00427927 0)
(0.201826 0.0041499 0)
(0.20203 0.00404638 0)
(0.202129 0.00390638 0)
(0.202307 0.00379615 0)
(0.20237 0.00365016 0)
(0.202532 0.00354511 0)
(0.20257 0.00340568 0)
(0.202718 0.00330917 0)
(0.202729 0.00317193 0)
(0.202855 0.00307438 0)
(0.202847 0.00293547 0)
(0.202958 0.00283633 0)
(0.202938 0.00270294 0)
(0.203015 0.00261623 0)
(0.202993 0.00248858 0)
(0.203057 0.00242121 0)
(0.203053 0.00229687 0)
(0.203107 0.00225891 0)
(0.203118 0.00209175 0)
(0.203137 0.00204176 0)
(0.203049 0.00179856 0)
(0.202989 0.00176146 0)
(0.202781 0.00151199 0)
(0.19915 0.00393362 0)
(0.199292 0.00405942 0)
(0.19947 0.00416589 0)
(0.199717 0.00427066 0)
(0.199954 0.00434533 0)
(0.200236 0.0044079 0)
(0.200479 0.00442309 0)
(0.20076 0.00442137 0)
(0.200976 0.00436992 0)
(0.201232 0.004315 0)
(0.201413 0.00421986 0)
(0.201648 0.00413938 0)
(0.201794 0.00402716 0)
(0.201998 0.00394081 0)
(0.2021 0.00381757 0)
(0.202278 0.00372051 0)
(0.202348 0.00358545 0)
(0.202514 0.00348814 0)
(0.202561 0.00335813 0)
(0.20271 0.00326896 0)
(0.202728 0.00313952 0)
(0.202856 0.00304452 0)
(0.202853 0.00291435 0)
(0.202969 0.00281737 0)
(0.202956 0.00269207 0)
(0.203039 0.00260355 0)
(0.20302 0.00248172 0)
(0.203091 0.00241068 0)
(0.203085 0.00229031 0)
(0.203144 0.00224889 0)
(0.203146 0.00208908 0)
(0.203178 0.00204811 0)
(0.203099 0.0018161 0)
(0.203065 0.00178831 0)
(0.202885 0.00153475 0)
(0.199341 0.00371477 0)
(0.199464 0.00382622 0)
(0.199623 0.00392013 0)
(0.19985 0.00401634 0)
(0.200061 0.00408766 0)
(0.200313 0.0041548 0)
(0.200524 0.00418127 0)
(0.200774 0.00419667 0)
(0.200968 0.00416463 0)
(0.201207 0.00413002 0)
(0.201381 0.00405437 0)
(0.201612 0.00399184 0)
(0.201761 0.00389624 0)
(0.201964 0.00382601 0)
(0.202068 0.00371962 0)
(0.202244 0.00363692 0)
(0.202319 0.0035136 0)
(0.202488 0.00342441 0)
(0.202543 0.00330338 0)
(0.202694 0.00322219 0)
(0.202717 0.00310301 0)
(0.202846 0.00301048 0)
(0.202851 0.00288835 0)
(0.20297 0.00279458 0)
(0.202964 0.0026778 0)
(0.203052 0.00258784 0)
(0.203037 0.00247227 0)
(0.203116 0.0023985 0)
(0.203109 0.00228212 0)
(0.203175 0.00223833 0)
(0.20317 0.00208491 0)
(0.203216 0.00205228 0)
(0.203144 0.00183019 0)
(0.203135 0.00181137 0)
(0.202981 0.00155574 0)
(0.199517 0.00350465 0)
(0.199622 0.00360492 0)
(0.199765 0.00368853 0)
(0.199974 0.00377659 0)
(0.200166 0.00384295 0)
(0.200392 0.00391107 0)
(0.200575 0.00394487 0)
(0.200796 0.00397343 0)
(0.200967 0.00395799 0)
(0.201186 0.00394126 0)
(0.201351 0.00388344 0)
(0.201575 0.00383766 0)
(0.201725 0.00375764 0)
(0.201927 0.00370243 0)
(0.202031 0.00361206 0)
(0.202203 0.00354493 0)
(0.202281 0.00343487 0)
(0.202451 0.00335462 0)
(0.202516 0.00324242 0)
(0.202669 0.00316806 0)
(0.202695 0.0030613 0)
(0.202824 0.00297327 0)
(0.202836 0.00285768 0)
(0.202959 0.00276716 0)
(0.20296 0.00265965 0)
(0.203051 0.00256887 0)
(0.203041 0.00245954 0)
(0.203127 0.00238437 0)
(0.20312 0.00227184 0)
(0.203194 0.00222711 0)
(0.203186 0.00207896 0)
(0.203244 0.00205395 0)
(0.203181 0.00184045 0)
(0.203193 0.00182979 0)
(0.203063 0.00157477 0)
(0.199678 0.00330515 0)
(0.199767 0.00339635 0)
(0.199895 0.00347141 0)
(0.200087 0.00355172 0)
(0.200264 0.00361202 0)
(0.200469 0.003678 0)
(0.200629 0.00371515 0)
(0.200823 0.00375292 0)
(0.20097 0.00375104 0)
(0.201169 0.00375022 0)
(0.201322 0.00370847 0)
(0.201537 0.00367829 0)
(0.201686 0.00361218 0)
(0.201886 0.00357049 0)
(0.20199 0.00349443 0)
(0.202155 0.00344285 0)
(0.202233 0.00334817 0)
(0.202403 0.00327815 0)
(0.202476 0.00317548 0)
(0.202631 0.00310644 0)
(0.202661 0.00301177 0)
(0.202787 0.00293236 0)
(0.202807 0.00282354 0)
(0.202934 0.0027348 0)
(0.202941 0.00263693 0)
(0.203035 0.00254682 0)
(0.20303 0.00244305 0)
(0.203122 0.00236731 0)
(0.203118 0.00225835 0)
(0.203198 0.00221383 0)
(0.203188 0.00207048 0)
(0.203258 0.00205224 0)
(0.203205 0.00184695 0)
(0.203235 0.0018429 0)
(0.203129 0.00159151 0)
(0.199827 0.00311552 0)
(0.1999 0.00319944 0)
(0.200013 0.00326742 0)
(0.200189 0.00334096 0)
(0.200351 0.00339495 0)
(0.200539 0.00345711 0)
(0.200682 0.00349428 0)
(0.200852 0.00353785 0)
(0.200978 0.00354629 0)
(0.201155 0.0035597 0)
(0.201294 0.00353269 0)
(0.201497 0.00351721 0)
(0.201643 0.0034638 0)
(0.201839 0.00343355 0)
(0.201944 0.00336982 0)
(0.202102 0.00333188 0)
(0.202178 0.00325378 0)
(0.202343 0.00319574 0)
(0.202423 0.00310336 0)
(0.202581 0.00303912 0)
(0.202618 0.00295337 0)
(0.202739 0.00288479 0)
(0.202763 0.00278638 0)
(0.202894 0.00269751 0)
(0.202908 0.00260794 0)
(0.203003 0.00252102 0)
(0.203003 0.0024233 0)
(0.203101 0.00234712 0)
(0.203099 0.00224208 0)
(0.203185 0.00219804 0)
(0.203177 0.00205928 0)
(0.203256 0.00204617 0)
(0.203214 0.00184912 0)
(0.203258 0.00185007 0)
(0.203175 0.00160512 0)
(0.199964 0.0029318 0)
(0.200022 0.00300997 0)
(0.20012 0.00307207 0)
(0.200279 0.00314017 0)
(0.200427 0.00318843 0)
(0.200601 0.00324637 0)
(0.20073 0.00328156 0)
(0.200881 0.003328 0)
(0.20099 0.00334394 0)
(0.201145 0.00336933 0)
(0.201268 0.00335642 0)
(0.201456 0.00335487 0)
(0.201596 0.00331436 0)
(0.201786 0.00329418 0)
(0.201892 0.00324135 0)
(0.202044 0.00321497 0)
(0.202117 0.00315279 0)
(0.202275 0.00310906 0)
(0.202358 0.00302822 0)
(0.202518 0.00296983 0)
(0.202562 0.00289067 0)
(0.20268 0.0028306 0)
(0.202705 0.00274738 0)
(0.202839 0.00265934 0)
(0.202861 0.0025739 0)
(0.202957 0.0024912 0)
(0.202962 0.00240098 0)
(0.203063 0.00232397 0)
(0.203065 0.00222277 0)
(0.203155 0.00218038 0)
(0.20315 0.00204593 0)
(0.203237 0.00203761 0)
(0.203206 0.00184806 0)
(0.20326 0.00185357 0)
(0.203199 0.00161638 0)
(0.200092 0.00274958 0)
(0.200134 0.00282259 0)
(0.200215 0.0028796 0)
(0.200357 0.00294313 0)
(0.200492 0.00298665 0)
(0.200652 0.00304038 0)
(0.200771 0.00307275 0)
(0.200908 0.00311937 0)
(0.201003 0.00314002 0)
(0.20114 0.00317419 0)
(0.201247 0.00317371 0)
(0.201417 0.00318516 0)
(0.201547 0.0031575 0)
(0.201729 0.00314791 0)
(0.201835 0.00310488 0)
(0.201982 0.00308947 0)
(0.202053 0.00304103 0)
(0.202201 0.003013 0)
(0.202284 0.00294588 0)
(0.202442 0.00289547 0)
(0.202495 0.00282408 0)
(0.202612 0.00276947 0)
(0.202638 0.00270245 0)
(0.202768 0.00262176 0)
(0.202801 0.002538 0)
(0.202898 0.00245859 0)
(0.202906 0.00237742 0)
(0.203008 0.00230058 0)
(0.203017 0.00220123 0)
(0.203109 0.00216136 0)
(0.203109 0.00202993 0)
(0.203199 0.00202643 0)
(0.20318 0.00184369 0)
(0.203241 0.00185411 0)
(0.203201 0.00162632 0)
(0.20021 0.00257901 0)
(0.200236 0.00264606 0)
(0.200301 0.00269794 0)
(0.200424 0.00275689 0)
(0.200545 0.00279613 0)
(0.200691 0.00284563 0)
(0.200802 0.00287453 0)
(0.200929 0.00291907 0)
(0.201015 0.00294054 0)
(0.201137 0.0029789 0)
(0.201229 0.00298593 0)
(0.201379 0.0030073 0)
(0.201497 0.00298992 0)
(0.201667 0.00299065 0)
(0.201773 0.00295639 0)
(0.201916 0.00295058 0)
(0.201987 0.00291344 0)
(0.202124 0.00289862 0)
(0.202203 0.00284652 0)
(0.202355 0.00280571 0)
(0.202417 0.00274453 0)
(0.202535 0.00269492 0)
(0.202564 0.00264 0)
(0.202686 0.00257058 0)
(0.202727 0.00249269 0)
(0.202827 0.00241438 0)
(0.20284 0.00234305 0)
(0.20294 0.00226957 0)
(0.202956 0.00217323 0)
(0.203048 0.00213594 0)
(0.203054 0.00200859 0)
(0.203145 0.00200826 0)
(0.203139 0.00183322 0)
(0.203202 0.00184613 0)
(0.203182 0.00163162 0)
(0.200444 0.00224834 0)
(0.20044 0.00230266 0)
(0.20047 0.00234465 0)
(0.200551 0.00239612 0)
(0.200637 0.00242926 0)
(0.200751 0.00247352 0)
(0.200843 0.00249724 0)
(0.20095 0.00253717 0)
(0.201021 0.00255504 0)
(0.201113 0.00259278 0)
(0.201177 0.00260331 0)
(0.201283 0.00263332 0)
(0.20137 0.00262943 0)
(0.201508 0.00264572 0)
(0.201609 0.00262872 0)
(0.201741 0.00263732 0)
(0.201813 0.00261809 0)
(0.201926 0.00262043 0)
(0.201995 0.0025946 0)
(0.202129 0.00257625 0)
(0.202206 0.00254053 0)
(0.202325 0.00250577 0)
(0.202368 0.0024706 0)
(0.202468 0.00241757 0)
(0.202522 0.00236525 0)
(0.202629 0.00229242 0)
(0.202658 0.00223456 0)
(0.202747 0.00216873 0)
(0.202783 0.00208373 0)
(0.202872 0.00204898 0)
(0.202897 0.00193328 0)
(0.20298 0.00193846 0)
(0.203002 0.00178498 0)
(0.203059 0.00180073 0)
(0.203077 0.00162048 0)
(0.200558 0.00181941 0)
(0.200561 0.00185861 0)
(0.200576 0.00188801 0)
(0.20062 0.00193015 0)
(0.200669 0.00195609 0)
(0.200738 0.00199531 0)
(0.200801 0.00201456 0)
(0.200877 0.00205072 0)
(0.200935 0.00206519 0)
(0.201004 0.0021013 0)
(0.201053 0.0021138 0)
(0.201124 0.00215049 0)
(0.201184 0.00215978 0)
(0.201279 0.00219258 0)
(0.201361 0.00219563 0)
(0.201466 0.0022218 0)
(0.201537 0.0022224 0)
(0.201628 0.00224388 0)
(0.20169 0.00224526 0)
(0.201792 0.00225433 0)
(0.20187 0.00224927 0)
(0.201974 0.00223588 0)
(0.202035 0.00222472 0)
(0.202119 0.00219047 0)
(0.202179 0.00216932 0)
(0.202275 0.00211187 0)
(0.202328 0.00207158 0)
(0.202405 0.00201795 0)
(0.202457 0.00195208 0)
(0.202535 0.00192321 0)
(0.202583 0.00182424 0)
(0.202651 0.00183243 0)
(0.202703 0.00170675 0)
(0.202749 0.00172161 0)
(0.202806 0.00158705 0)
(0.200553 0.00152367 0)
(0.200573 0.00155292 0)
(0.200592 0.00157254 0)
(0.20062 0.00160558 0)
(0.200649 0.00162446 0)
(0.200689 0.00165794 0)
(0.200729 0.00167347 0)
(0.200779 0.00170621 0)
(0.200825 0.00171851 0)
(0.200876 0.00175187 0)
(0.20092 0.00176343 0)
(0.200971 0.00179953 0)
(0.20102 0.00181207 0)
(0.201083 0.00184943 0)
(0.201146 0.00186118 0)
(0.201219 0.00189549 0)
(0.201284 0.00190671 0)
(0.201354 0.00193709 0)
(0.201416 0.00195151 0)
(0.201489 0.00197335 0)
(0.201561 0.00198617 0)
(0.20164 0.0019868 0)
(0.20171 0.00199264 0)
(0.20178 0.0019702 0)
(0.201848 0.00196726 0)
(0.201922 0.00192374 0)
(0.201993 0.00189951 0)
(0.202058 0.00185504 0)
(0.202126 0.00180581 0)
(0.202189 0.00178452 0)
(0.202259 0.00170256 0)
(0.20231 0.00171435 0)
(0.202386 0.00161206 0)
(0.202419 0.00162679 0)
(0.202502 0.00152298 0)
(0.200501 0.00129628 0)
(0.200525 0.00131888 0)
(0.200547 0.00133155 0)
(0.200567 0.00135671 0)
(0.200589 0.00136912 0)
(0.200612 0.00139603 0)
(0.20064 0.00140719 0)
(0.200671 0.0014352 0)
(0.200706 0.00144492 0)
(0.200741 0.00147445 0)
(0.20078 0.0014841 0)
(0.200818 0.0015165 0)
(0.200861 0.00152805 0)
(0.200903 0.00156331 0)
(0.200953 0.00157719 0)
(0.201001 0.00161276 0)
(0.201058 0.00162927 0)
(0.201109 0.0016625 0)
(0.20117 0.00168332 0)
(0.201223 0.00170936 0)
(0.201289 0.00173178 0)
(0.201346 0.00174034 0)
(0.201418 0.00175834 0)
(0.201473 0.00174423 0)
(0.201547 0.00175334 0)
(0.201602 0.0017199 0)
(0.20168 0.00171041 0)
(0.201732 0.00167393 0)
(0.201811 0.00163946 0)
(0.201859 0.00162396 0)
(0.201942 0.00155876 0)
(0.201981 0.00157144 0)
(0.202072 0.00148943 0)
(0.202095 0.00150237 0)
(0.202196 0.0014231 0)
(0.20043 0.00109488 0)
(0.20045 0.00111316 0)
(0.20047 0.0011217 0)
(0.200485 0.00114157 0)
(0.200504 0.00114968 0)
(0.200519 0.00117149 0)
(0.200542 0.00117926 0)
(0.200562 0.00120311 0)
(0.20059 0.00121069 0)
(0.200615 0.00123683 0)
(0.200649 0.00124499 0)
(0.200676 0.001274 0)
(0.200713 0.00128426 0)
(0.200741 0.00131651 0)
(0.200784 0.00133044 0)
(0.200816 0.0013649 0)
(0.200867 0.00138355 0)
(0.200902 0.00141725 0)
(0.200958 0.00144097 0)
(0.200995 0.00146855 0)