# vtk DataFile Version 2.0
outlet
ASCII
DATASET POLYDATA
POINTS 182 float
0.1 0.02 0 0.1 0.0207299 0 0.1 0.0207299 0.001 0.1 0.02
0.001 0.1 0.021488 0 0.1 0.021488 0.001 0.1 0.0222754 0
0.1 0.0222754 0.001 0.1 0.0230932 0 0.1 0.0230932 0.001 0.1
0.0239425 0 0.1 0.0239425 0.001 0.1 0.0248247 0 0.1 0.0248247
0.001 0.1 0.0257409 0 0.1 0.0257409 0.001 0.1 0.0266925 0
0.1 0.0266925 0.001 0.1 0.0276808 0 0.1 0.0276808 0.001 0.1
0.0287073 0 0.1 0.0287073 0.001 0.1 0.0297734 0 0.1 0.0297734
0.001 0.1 0.0308807 0 0.1 0.0308807 0.001 0.1 0.0320307 0
0.1 0.0320307 0.001 0.1 0.0332251 0 0.1 0.0332251 0.001 0.1
0.0344656 0 0.1 0.0344656 0.001 0.1 0.0357541 0 0.1 0.0357541
0.001 0.1 0.0370923 0 0.1 0.0370923 0.001 0.1 0.0384821 0
0.1 0.0384821 0.001 0.1 0.0399257 0 0.1 0.0399257 0.001 0.1
0.0414249 0 0.1 0.0414249 0.001 0.1 0.042982 0 0.1 0.042982
0.001 0.1 0.0445993 0 0.1 0.0445993 0.001 0.1 0.046279 0
0.1 0.046279 0.001 0.1 0.0480236 0 0.1 0.0480236 0.001 0.1
0.0498355 0 0.1 0.0498355 0.001 0.1 0.0517173 0 0.1 0.0517173
0.001 0.1 0.0536719 0 0.1 0.0536719 0.001 0.1 0.0557019 0
0.1 0.0557019 0.001 0.1 0.0578102 0 0.1 0.0578102 0.001 0.1
0.06 0 0.1 0.06 0.001 0.1 0 0 0.1 8.46956e-05
0 0.1 8.46956e-05 0.001 0.1 0 0.001 0.1 0.000172762 0
0.1 0.000172762 0.001 0.1 0.000264333 0 0.1 0.000264333 0.001 0.1
0.000359549 0 0.1 0.000359549 0.001 0.1 0.000458554 0 0.1 0.000458554
0.001 0.1 0.0005615 0 0.1 0.0005615 0.001 0.1 0.000668542 0
0.1 0.000668542 0.001 0.1 0.000779845 0 0.1 0.000779845 0.001 0.1
0.000895577 0 0.1 0.000895577 0.001 0.1 0.00101591 0 0.1 0.00101591
0.001 0.1 0.00114104 0 0.1 0.00114104 0.001 0.1 0.00127115 0
0.1 0.00127115 0.001 0.1 0.00140644 0 0.1 0.00140644 0.001 0.1
0.0015471 0 0.1 0.0015471 0.001 0.1 0.00169337 0 0.1 0.00169337
0.001 0.1 0.00184546 0 0.1 0.00184546 0.001 0.1 0.0020036 0
0.1 0.0020036 0.001 0.1 0.00216804 0 0.1 0.00216804 0.001 0.1
0.00233902 0 0.1 0.00233902 0.001 0.1 0.00251681 0 0.1 0.00251681
0.001 0.1 0.00270167 0 0.1 0.00270167 0.001 0.1 0.00289388 0
0.1 0.00289388 0.001 0.1 0.00309375 0 0.1 0.00309375 0.001 0.1
0.00330157 0 0.1 0.00330157 0.001 0.1 0.00351767 0 0.1 0.00351767
0.001 0.1 0.00374236 0 0.1 0.00374236 0.001 0.1 0.00397599 0
0.1 0.00397599 0.001 0.1 0.00421893 0 0.1 0.00421893 0.001 0.1
0.00447153 0 0.1 0.00447153 0.001 0.1 0.00473419 0 0.1 0.00473419
0.001 0.1 0.0050073 0 0.1 0.0050073 0.001 0.1 0.00529127 0
0.1 0.00529127 0.001 0.1 0.00558655 0 0.1 0.00558655 0.001 0.1
0.00589359 0 0.1 0.00589359 0.001 0.1 0.00621284 0 0.1 0.00621284
0.001 0.1 0.00654479 0 0.1 0.00654479 0.001 0.1 0.00688996 0
0.1 0.00688996 0.001 0.1 0.00724887 0 0.1 0.00724887 0.001 0.1
0.00762206 0 0.1 0.00762206 0.001 0.1 0.0080101 0 0.1 0.0080101
0.001 0.1 0.00841358 0 0.1 0.00841358 0.001 0.1 0.00883312 0
0.1 0.00883312 0.001 0.1 0.00926936 0 0.1 0.00926936 0.001 0.1
0.00972297 0 0.1 0.00972297 0.001 0.1 0.0101946 0 0.1 0.0101946
0.001 0.1 0.010685 0 0.1 0.010685 0.001 0.1 0.011195 0
0.1 0.011195 0.001 0.1 0.0117252 0 0.1 0.0117252 0.001 0.1
0.0122766 0 0.1 0.0122766 0.001 0.1 0.0128499 0 0.1 0.0128499
0.001 0.1 0.013446 0 0.1 0.013446 0.001 0.1 0.0140658 0
0.1 0.0140658 0.001 0.1 0.0147103 0 0.1 0.0147103 0.001 0.1
0.0153804 0 0.1 0.0153804 0.001 0.1 0.0160772 0 0.1 0.0160772
0.001 0.1 0.0168018 0 0.1 0.0168018 0.001 0.1 0.0175551 0
0.1 0.0175551 0.001 0.1 0.0183385 0 0.1 0.0183385 0.001 0.1
0.019153 0 0.1 0.019153 0.001 
POLYGONS 90 450
4 0 1 2 3 4 1 4 5 2 4
4 6 7 5 4 6 8 9 7 4
8 10 11 9 4 10 12 13 11 4
12 14 15 13 4 14 16 17 15 4
16 18 19 17 4 18 20 21 19 4
20 22 23 21 4 22 24 25 23 4
24 26 27 25 4 26 28 29 27 4
28 30 31 29 4 30 32 33 31 4
32 34 35 33 4 34 36 37 35 4
36 38 39 37 4 38 40 41 39 4
40 42 43 41 4 42 44 45 43 4
44 46 47 45 4 46 48 49 47 4
48 50 51 49 4 50 52 53 51 4
52 54 55 53 4 54 56 57 55 4
56 58 59 57 4 58 60 61 59 4
62 63 64 65 4 63 66 67 64 4
66 68 69 67 4 68 70 71 69 4
70 72 73 71 4 72 74 75 73 4
74 76 77 75 4 76 78 79 77 4
78 80 81 79 4 80 82 83 81 4
82 84 85 83 4 84 86 87 85 4
86 88 89 87 4 88 90 91 89 4
90 92 93 91 4 92 94 95 93 4
94 96 97 95 4 96 98 99 97 4
98 100 101 99 4 100 102 103 101 4
102 104 105 103 4 104 106 107 105 4
106 108 109 107 4 108 110 111 109 4
110 112 113 111 4 112 114 115 113 4
114 116 117 115 4 116 118 119 117 4
118 120 121 119 4 120 122 123 121 4
122 124 125 123 4 124 126 127 125 4
126 128 129 127 4 128 130 131 129 4
130 132 133 131 4 132 134 135 133 4
134 136 137 135 4 136 138 139 137 4
138 140 141 139 4 140 142 143 141 4
142 144 145 143 4 144 146 147 145 4
146 148 149 147 4 148 150 151 149 4
150 152 153 151 4 152 154 155 153 4
154 156 157 155 4 156 158 159 157 4
158 160 161 159 4 160 162 163 161 4
162 164 165 163 4 164 166 167 165 4
166 168 169 167 4 168 170 171 169 4
170 172 173 171 4 172 174 175 173 4
174 176 177 175 4 176 178 179 177 4
178 180 181 179 4 180 0 3 181 
CELL_DATA 90
FIELD attributes 3
patchID 1 90 float
2 2 2 2 2 2 2 2 2 2 2
2 2 2 2 2 2 2 2 2 2
2 2 2 2 2 2 2 2 2 2
2 2 2 2 2 2 2 2 2 2
2 2 2 2 2 2 2 2 2 2
2 2 2 2 2 2 2 2 2 2
2 2 2 2 2 2 2 2 2 2
2 2 2 2 2 2 2 2 2 2
2 2 2 2 2 2 2 2 2 
p 1 90 float
0 0 0 0 0 0 0 0 0 0 0
0 0 0 0 0 0 0 0 0 0
0 0 0 0 0 0 0 0 0 0
0 0 0 0 0 0 0 0 0 0
0 0 0 0 0 0 0 0 0 0
0 0 0 0 0 0 0 0 0 0
0 0 0 0 0 0 0 0 0 0
0 0 0 0 0 0 0 0 0 0
0 0 0 0 0 0 0 0 0 
U 3 90 float
0.506982 0.00143902 0 0.5069 0.00141554 0 0.506816 0.00139092 0 0.506732 0.00136511
0 0.506647 0.00133805 0 0.506561 0.00130967 0 0.506474 0.00127991 0
0.506388 0.00124871 0 0.506301 0.001216 0 0.506215 0.00118171 0 0.50613
0.00114576 0 0.506045 0.00110807 0 0.505962 0.00106857 0 0.50588 0.00102718
0 0.5058 0.000983808 0 0.505721 0.000938372 0 0.505645 0.000890781 0
0.505572 0.000840946 0 0.505501 0.000788773 0 0.505434 0.00073417 0 0.50537
0.000677043 0 0.505311 0.000617297 0 0.505255 0.000554838 0 0.505205 0.00048957
0 0.50516 0.000421398 0 0.50512 0.000350223 0 0.505087 0.000276024 0
0.505061 0.000199214 0 0.50504 0.00011682 0 0.50481 3.6673e-05 0 0.0164138
2.51687e-06 0 0.0498438 1.71546e-05 0 0.0844992 5.02742e-05 0 0.120316 0.000100524
0 0.157152 0.000169057 0 0.194765 0.000257141 0 0.232791 0.000365318 0
0.270733 0.000493162 0 0.30795 0.000638944 0 0.343679 0.000799288 0 0.37708
0.000968986 0 0.407317 0.00114112 0 0.433663 0.00130765 0 0.455621 0.0014604
0 0.473013 0.00159242 0 0.486025 0.00169919 0 0.495163 0.00177938 0
0.501154 0.00183479 0 0.504799 0.00186953 0 0.506847 0.0018888 0 0.507906
0.00189762 0 0.508405 0.00190007 0 0.508619 0.00189899 0 0.508701 0.00189609
0 0.508726 0.00189227 0 0.508729 0.00188794 0 0.508723 0.00188329 0
0.508714 0.00187835 0 0.508702 0.00187313 0 0.508688 0.00186763 0 0.508672
0.00186184 0 0.508655 0.00185574 0 0.508636 0.00184931 0 0.508614 0.00184254
0 0.508591 0.00183541 0 0.508566 0.00182791 0 0.508538 0.00182 0
0.508507 0.00181168 0 0.508475 0.00180292 0 0.508439 0.00179369 0 0.508401
0.00178398 0 0.508359 0.00177375 0 0.508315 0.00176299 0 0.508268 0.00175165
0 0.508217 0.00173972 0 0.508163 0.00172716 0 0.508106 0.00171394 0
0.508046 0.00170002 0 0.507982 0.00168537 0 0.507914 0.00166995 0 0.507843
0.00165372 0 0.507769 0.00163664 0 0.507692 0.00161867 0 0.507611 0.00159975
0 0.507528 0.00157985 0 0.507441 0.0015589 0 0.507352 0.00153687 0
0.507261 0.00151369 0 0.507167 0.0014893 0 0.507071 0.00146362 0 
POINT_DATA  182
FIELD attributes 2
p 1 182 float
0 0 0 0 0 0 0 0 0 0 0
0 0 0 0 0 0 0 0 0 0
0 0 0 0 0 0 0 0 0 0
0 0 0 0 0 0 0 0 0 0
0 0 0 0 0 0 0 0 0 0
0 0 0 0 0 0 0 0 0 0
0 0 0 0 0 0 0 0 0 0
0 0 0 0 0 0 0 0 0 0
0 0 0 0 0 0 0 0 0 0
0 0 0 0 0 0 0 0 0 0
0 0 0 0 0 0 0 0 0 0
0 0 0 0 0 0 0 0 0 0
0 0 0 0 0 0 0 0 0 0
0 0 0 0 0 0 0 0 0 0
0 0 0 0 0 0 0 0 0 0
0 0 0 0 0 0 0 0 0 0
0 0 0 0 0 0 0 0 0 0
0 0 0 0 0 0 0 0 0 0
0 
U 3 182 float
0.507025 0.00145097 0 0.506941 0.00142736 0 0.506941 0.00142736 0 0.507025 0.00145097
0 0.506858 0.00140331 0 0.506858 0.00140331 0 0.506774 0.00137811 0
0.506774 0.00137811 0 0.50669 0.00135169 0 0.50669 0.00135169 0 0.506604
0.00132398 0 0.506604 0.00132398 0 0.506518 0.00129492 0 0.506518 0.00129492
0 0.506431 0.00126445 0 0.506431 0.00126445 0 0.506345 0.00123251 0
0.506345 0.00123251 0 0.506259 0.00119902 0 0.506259 0.00119902 0 0.506173
0.00116391 0 0.506173 0.00116391 0 0.506088 0.00112711 0 0.506088 0.00112711
0 0.506004 0.00108853 0 0.506004 0.00108853 0 0.505921 0.0010481 0
0.505921 0.0010481 0 0.50584 0.00100574 0 0.50584 0.00100574 0 0.505761
0.000961355 0 0.505761 0.000961355 0 0.505684 0.000914862 0 0.505684 0.000914862
0 0.505609 0.00086617 0 0.505609 0.00086617 0 0.505537 0.000815189 0
0.505537 0.000815189 0 0.505468 0.000761825 0 0.505468 0.000761825 0 0.505403
0.000705985 0 0.505403 0.000705985 0 0.505341 0.000647575 0 0.505341 0.000647575
0 0.505283 0.000586499 0 0.505283 0.000586499 0 0.50523 0.000522665 0
0.50523 0.000522665 0 0.505183 0.000455975 0 0.505183 0.000455975 0 0.50514
0.000386332 0 0.50514 0.000386332 0 0.505104 0.000313676 0 0.505104 0.000313676
0 0.505074 0.0002382 0 0.505074 0.0002382 0 0.505051 0.00015865 0
0.505051 0.00015865 0 0.504927 7.73705e-05 0 0.504927 7.73705e-05 0 0.50481
3.6673e-05 0 0.50481 3.6673e-05 0 0.0164138 2.51687e-06 0 0.0331264 9.83466e-06
0 0.0331264 9.83466e-06 0 0.0164138 2.51687e-06 0 0.0671688 3.37118e-05 0
0.0671688 3.37118e-05 0 0.102405 7.53947e-05 0 0.102405 7.53947e-05 0 0.138731
0.000134784 0 0.138731 0.000134784 0 0.175955 0.00021309 0 0.175955 0.00021309
0 0.213774 0.000311218 0 0.213774 0.000311218 0 0.251758 0.000429226 0
0.251758 0.000429226 0 0.289337 0.000566035 0 0.289337 0.000566035 0 0.325809
0.000719094 0 0.325809 0.000719094 0 0.360374 0.000884112 0 0.360374 0.000884112
0 0.392194 0.00105503 0 0.392194 0.00105503 0 0.420486 0.00122436 0
0.420486 0.00122436 0 0.444638 0.001384 0 0.444638 0.001384 0 0.464314
0.00152638 0 0.464314 0.00152638 0 0.479517 0.00164578 0 0.479517 0.00164578
0 0.490592 0.00173926 0 0.490592 0.00173926 0 0.498157 0.00180707 0
0.498157 0.00180707 0 0.502975 0.00185215 0 0.502975 0.00185215 0 0.505823
0.00187916 0 0.505823 0.00187916 0 0.507376 0.00189321 0 0.507376 0.00189321
0 0.508155 0.00189885 0 0.508155 0.00189885 0 0.508512 0.00189953 0
0.508512 0.00189953 0 0.50866 0.00189754 0 0.50866 0.00189754 0 0.508713
0.00189418 0 0.508713 0.00189418 0 0.508727 0.00189011 0 0.508727 0.00189011
0 0.508726 0.00188562 0 0.508726 0.00188562 0 0.508718 0.00188082 0
0.508718 0.00188082 0 0.508708 0.00187574 0 0.508708 0.00187574 0 0.508695
0.00187038 0 0.508695 0.00187038 0 0.50868 0.00186474 0 0.50868 0.00186474
0 0.508664 0.00185879 0 0.508664 0.00185879 0 0.508645 0.00185253 0
0.508645 0.00185253 0 0.508625 0.00184593 0 0.508625 0.00184593 0 0.508603
0.00183898 0 0.508603 0.00183898 0 0.508578 0.00183167 0 0.508578 0.00183167
0 0.508552 0.00182396 0 0.508552 0.00182396 0 0.508523 0.00181585 0
0.508523 0.00181585 0 0.508491 0.00180731 0 0.508491 0.00180731 0 0.508457
0.00179832 0 0.508457 0.00179832 0 0.50842 0.00178885 0 0.50842 0.00178885
0 0.50838 0.00177888 0 0.50838 0.00177888 0 0.508337 0.00176839 0
0.508337 0.00176839 0 0.508292 0.00175734 0 0.508292 0.00175734 0 0.508243
0.00174571 0 0.508243 0.00174571 0 0.508191 0.00173346 0 0.508191 0.00173346
0 0.508135 0.00172057 0 0.508135 0.00172057 0 0.508076 0.001707 0
0.508076 0.001707 0 0.508014 0.00169272 0 0.508014 0.00169272 0 0.507948
0.00167769 0 0.507948 0.00167769 0 0.507879 0.00166187 0 0.507879 0.00166187
0 0.507807 0.00164522 0 0.507807 0.00164522 0 0.507731 0.0016277 0
0.507731 0.0016277 0 0.507652 0.00160926 0 0.507652 0.00160926 0 0.50757
0.00158986 0 0.50757 0.00158986 0 0.507485 0.00156944 0 0.507485 0.00156944
0 0.507397 0.00154796 0 0.507397 0.00154796 0 0.507307 0.00152536 0
0.507307 0.00152536 0 0.507214 0.00150159 0 0.507214 0.00150159 0 0.507119
0.00147656 0 0.507119 0.00147656 0 
