# vtk DataFile Version 2.0
outlet
ASCII
DATASET POLYDATA
POINTS 182 float
0.1 0.02 0 0.1 0.0207299 0 0.1 0.0207299 0.001 0.1 0.02
0.001 0.1 0.021488 0 0.1 0.021488 0.001 0.1 0.0222754 0
0.1 0.0222754 0.001 0.1 0.0230932 0 0.1 0.0230932 0.001 0.1
0.0239425 0 0.1 0.0239425 0.001 0.1 0.0248247 0 0.1 0.0248247
0.001 0.1 0.0257409 0 0.1 0.0257409 0.001 0.1 0.0266925 0
0.1 0.0266925 0.001 0.1 0.0276808 0 0.1 0.0276808 0.001 0.1
0.0287073 0 0.1 0.0287073 0.001 0.1 0.0297734 0 0.1 0.0297734
0.001 0.1 0.0308807 0 0.1 0.0308807 0.001 0.1 0.0320307 0
0.1 0.0320307 0.001 0.1 0.0332251 0 0.1 0.0332251 0.001 0.1
0.0344656 0 0.1 0.0344656 0.001 0.1 0.0357541 0 0.1 0.0357541
0.001 0.1 0.0370923 0 0.1 0.0370923 0.001 0.1 0.0384821 0
0.1 0.0384821 0.001 0.1 0.0399257 0 0.1 0.0399257 0.001 0.1
0.0414249 0 0.1 0.0414249 0.001 0.1 0.042982 0 0.1 0.042982
0.001 0.1 0.0445993 0 0.1 0.0445993 0.001 0.1 0.046279 0
0.1 0.046279 0.001 0.1 0.0480236 0 0.1 0.0480236 0.001 0.1
0.0498355 0 0.1 0.0498355 0.001 0.1 0.0517173 0 0.1 0.0517173
0.001 0.1 0.0536719 0 0.1 0.0536719 0.001 0.1 0.0557019 0
0.1 0.0557019 0.001 0.1 0.0578102 0 0.1 0.0578102 0.001 0.1
0.06 0 0.1 0.06 0.001 0.1 0 0 0.1 8.46956e-05
0 0.1 8.46956e-05 0.001 0.1 0 0.001 0.1 0.000172762 0
0.1 0.000172762 0.001 0.1 0.000264333 0 0.1 0.000264333 0.001 0.1
0.000359549 0 0.1 0.000359549 0.001 0.1 0.000458554 0 0.1 0.000458554
0.001 0.1 0.0005615 0 0.1 0.0005615 0.001 0.1 0.000668542 0
0.1 0.000668542 0.001 0.1 0.000779845 0 0.1 0.000779845 0.001 0.1
0.000895577 0 0.1 0.000895577 0.001 0.1 0.00101591 0 0.1 0.00101591
0.001 0.1 0.00114104 0 0.1 0.00114104 0.001 0.1 0.00127115 0
0.1 0.00127115 0.001 0.1 0.00140644 0 0.1 0.00140644 0.001 0.1
0.0015471 0 0.1 0.0015471 0.001 0.1 0.00169337 0 0.1 0.00169337
0.001 0.1 0.00184546 0 0.1 0.00184546 0.001 0.1 0.0020036 0
0.1 0.0020036 0.001 0.1 0.00216804 0 0.1 0.00216804 0.001 0.1
0.00233902 0 0.1 0.00233902 0.001 0.1 0.00251681 0 0.1 0.00251681
0.001 0.1 0.00270167 0 0.1 0.00270167 0.001 0.1 0.00289388 0
0.1 0.00289388 0.001 0.1 0.00309375 0 0.1 0.00309375 0.001 0.1
0.00330157 0 0.1 0.00330157 0.001 0.1 0.00351767 0 0.1 0.00351767
0.001 0.1 0.00374236 0 0.1 0.00374236 0.001 0.1 0.00397599 0
0.1 0.00397599 0.001 0.1 0.00421893 0 0.1 0.00421893 0.001 0.1
0.00447153 0 0.1 0.00447153 0.001 0.1 0.00473419 0 0.1 0.00473419
0.001 0.1 0.0050073 0 0.1 0.0050073 0.001 0.1 0.00529127 0
0.1 0.00529127 0.001 0.1 0.00558655 0 0.1 0.00558655 0.001 0.1
0.00589359 0 0.1 0.00589359 0.001 0.1 0.00621284 0 0.1 0.00621284
0.001 0.1 0.00654479 0 0.1 0.00654479 0.001 0.1 0.00688996 0
0.1 0.00688996 0.001 0.1 0.00724887 0 0.1 0.00724887 0.001 0.1
0.00762206 0 0.1 0.00762206 0.001 0.1 0.0080101 0 0.1 0.0080101
0.001 0.1 0.00841358 0 0.1 0.00841358 0.001 0.1 0.00883312 0
0.1 0.00883312 0.001 0.1 0.00926936 0 0.1 0.00926936 0.001 0.1
0.00972297 0 0.1 0.00972297 0.001 0.1 0.0101946 0 0.1 0.0101946
0.001 0.1 0.010685 0 0.1 0.010685 0.001 0.1 0.011195 0
0.1 0.011195 0.001 0.1 0.0117252 0 0.1 0.0117252 0.001 0.1
0.0122766 0 0.1 0.0122766 0.001 0.1 0.0128499 0 0.1 0.0128499
0.001 0.1 0.013446 0 0.1 0.013446 0.001 0.1 0.0140658 0
0.1 0.0140658 0.001 0.1 0.0147103 0 0.1 0.0147103 0.001 0.1
0.0153804 0 0.1 0.0153804 0.001 0.1 0.0160772 0 0.1 0.0160772
0.001 0.1 0.0168018 0 0.1 0.0168018 0.001 0.1 0.0175551 0
0.1 0.0175551 0.001 0.1 0.0183385 0 0.1 0.0183385 0.001 0.1
0.019153 0 0.1 0.019153 0.001 
POLYGONS 90 450
4 0 1 2 3 4 1 4 5 2 4
4 6 7 5 4 6 8 9 7 4
8 10 11 9 4 10 12 13 11 4
12 14 15 13 4 14 16 17 15 4
16 18 19 17 4 18 20 21 19 4
20 22 23 21 4 22 24 25 23 4
24 26 27 25 4 26 28 29 27 4
28 30 31 29 4 30 32 33 31 4
32 34 35 33 4 34 36 37 35 4
36 38 39 37 4 38 40 41 39 4
40 42 43 41 4 42 44 45 43 4
44 46 47 45 4 46 48 49 47 4
48 50 51 49 4 50 52 53 51 4
52 54 55 53 4 54 56 57 55 4
56 58 59 57 4 58 60 61 59 4
62 63 64 65 4 63 66 67 64 4
66 68 69 67 4 68 70 71 69 4
70 72 73 71 4 72 74 75 73 4
74 76 77 75 4 76 78 79 77 4
78 80 81 79 4 80 82 83 81 4
82 84 85 83 4 84 86 87 85 4
86 88 89 87 4 88 90 91 89 4
90 92 93 91 4 92 94 95 93 4
94 96 97 95 4 96 98 99 97 4
98 100 101 99 4 100 102 103 101 4
102 104 105 103 4 104 106 107 105 4
106 108 109 107 4 108 110 111 109 4
110 112 113 111 4 112 114 115 113 4
114 116 117 115 4 116 118 119 117 4
118 120 121 119 4 120 122 123 121 4
122 124 125 123 4 124 126 127 125 4
126 128 129 127 4 128 130 131 129 4
130 132 133 131 4 132 134 135 133 4
134 136 137 135 4 136 138 139 137 4
138 140 141 139 4 140 142 143 141 4
142 144 145 143 4 144 146 147 145 4
146 148 149 147 4 148 150 151 149 4
150 152 153 151 4 152 154 155 153 4
154 156 157 155 4 156 158 159 157 4
158 160 161 159 4 160 162 163 161 4
162 164 165 163 4 164 166 167 165 4
166 168 169 167 4 168 170 171 169 4
170 172 173 171 4 172 174 175 173 4
174 176 177 175 4 176 178 179 177 4
178 180 181 179 4 180 0 3 181 
CELL_DATA 90
FIELD attributes 3
patchID 1 90 float
2 2 2 2 2 2 2 2 2 2 2
2 2 2 2 2 2 2 2 2 2
2 2 2 2 2 2 2 2 2 2
2 2 2 2 2 2 2 2 2 2
2 2 2 2 2 2 2 2 2 2
2 2 2 2 2 2 2 2 2 2
2 2 2 2 2 2 2 2 2 2
2 2 2 2 2 2 2 2 2 2
2 2 2 2 2 2 2 2 2 
p 1 90 float
0 0 0 0 0 0 0 0 0 0 0
0 0 0 0 0 0 0 0 0 0
0 0 0 0 0 0 0 0 0 0
0 0 0 0 0 0 0 0 0 0
0 0 0 0 0 0 0 0 0 0
0 0 0 0 0 0 0 0 0 0
0 0 0 0 0 0 0 0 0 0
0 0 0 0 0 0 0 0 0 0
0 0 0 0 0 0 0 0 0 
U 3 90 float
0.505658 0.000479002 0 0.505583 0.000479854 0 0.505506 0.000480167 0 0.50543 0.000479857
0 0.505352 0.000478844 0 0.505275 0.000477086 0 0.505197 0.000474516 0
0.50512 0.000471044 0 0.505043 0.000466601 0 0.504966 0.000461119 0 0.504891
0.00045451 0 0.504816 0.000446691 0 0.504743 0.000437585 0 0.504671 0.000427106
0 0.504601 0.000415168 0 0.504533 0.000401688 0 0.504468 0.000386582 0
0.504405 0.000369774 0 0.504344 0.000351176 0 0.504287 0.000330723 0 0.504232
0.000308354 0 0.504182 0.00028398 0 0.504135 0.000257587 0 0.504092 0.000229136
0 0.504054 0.000198544 0 0.504021 0.000165852 0 0.503993 0.000131052 0
0.503972 9.47181e-05 0 0.503954 5.46309e-05 0 0.503765 1.6451e-05 0 0.0221303
1.49298e-07 0 0.0669961 8.56885e-07 0 0.112771 2.36036e-06 0 0.15881 4.6509e-06
0 0.204388 8.04281e-06 0 0.248726 1.30761e-05 0 0.291029 2.04712e-05 0
0.33053 3.10588e-05 0 0.366538 4.56313e-05 0 0.398483 6.47118e-05 0 0.425964
8.82843e-05 0 0.448784 0.000115577 0 0.466984 0.000145026 0 0.480846 0.000174513
0 0.490866 0.000201842 0 0.497697 0.000225281 0 0.502063 0.00024395 0
0.504662 0.000257897 0 0.506096 0.000267875 0 0.506823 0.000274971 0 0.507161
0.00028026 0 0.507301 0.000284593 0 0.507352 0.000288542 0 0.507365 0.000292441
0 0.507363 0.000296464 0 0.507355 0.000300694 0 0.507345 0.000305158 0
0.507333 0.000309854 0 0.507319 0.000314762 0 0.507304 0.000319845 0 0.507287
0.000325063 0 0.507269 0.000330379 0 0.507248 0.000335766 0 0.507226 0.00034121
0 0.507201 0.000346708 0 0.507175 0.000352265 0 0.507146 0.000357889 0
0.507115 0.000363582 0 0.507081 0.000369346 0 0.507045 0.000375176 0 0.507007
0.000381064 0 0.506966 0.000387002 0 0.506922 0.000392977 0 0.506875 0.000398978
0 0.506825 0.00040499 0 0.506772 0.000410995 0 0.506717 0.000416973 0
0.506658 0.000422903 0 0.506596 0.000428759 0 0.506531 0.00043451 0 0.506463
0.000440128 0 0.506393 0.000445579 0 0.506319 0.000450815 0 0.506243 0.000455798
0 0.506164 0.000460491 0 0.506083 0.000464827 0 0.506 0.000468744 0
0.505915 0.000472216 0 0.505828 0.000475163 0 0.505739 0.00047747 0 
POINT_DATA  182
FIELD attributes 2
p 1 182 float
0 0 0 0 0 0 0 0 0 0 0
0 0 0 0 0 0 0 0 0 0
0 0 0 0 0 0 0 0 0 0
0 0 0 0 0 0 0 0 0 0
0 0 0 0 0 0 0 0 0 0
0 0 0 0 0 0 0 0 0 0
0 0 0 0 0 0 0 0 0 0
0 0 0 0 0 0 0 0 0 0
0 0 0 0 0 0 0 0 0 0
0 0 0 0 0 0 0 0 0 0
0 0 0 0 0 0 0 0 0 0
0 0 0 0 0 0 0 0 0 0
0 0 0 0 0 0 0 0 0 0
0 0 0 0 0 0 0 0 0 0
0 0 0 0 0 0 0 0 0 0
0 0 0 0 0 0 0 0 0 0
0 0 0 0 0 0 0 0 0 0
0 0 0 0 0 0 0 0 0 0
0 
U 3 182 float
0.505697 0.000478257 0 0.50562 0.000479425 0 0.50562 0.000479425 0 0.505697 0.000478257
0 0.505545 0.000480009 0 0.505545 0.000480009 0 0.505468 0.000480013 0
0.505468 0.000480013 0 0.505391 0.000479355 0 0.505391 0.000479355 0 0.505314
0.000477973 0 0.505314 0.000477973 0 0.505236 0.000475812 0 0.505236 0.000475812
0 0.505159 0.000472796 0 0.505159 0.000472796 0 0.505082 0.000468843 0
0.505082 0.000468843 0 0.505005 0.000463886 0 0.505005 0.000463886 0 0.504929
0.000457847 0 0.504929 0.000457847 0 0.504854 0.000450641 0 0.504854 0.000450641
0 0.50478 0.000442186 0 0.50478 0.000442186 0 0.504708 0.000432403 0
0.504708 0.000432403 0 0.504637 0.000421205 0 0.504637 0.000421205 0 0.504568
0.000408506 0 0.504568 0.000408506 0 0.504501 0.000394226 0 0.504501 0.000394226
0 0.504437 0.000378282 0 0.504437 0.000378282 0 0.504375 0.000360593 0
0.504375 0.000360593 0 0.504316 0.000341082 0 0.504316 0.000341082 0 0.50426
0.000319687 0 0.50426 0.000319687 0 0.504207 0.000296332 0 0.504207 0.000296332
0 0.504159 0.000270966 0 0.504159 0.000270966 0 0.504114 0.000243563 0
0.504114 0.000243563 0 0.504073 0.00021406 0 0.504073 0.00021406 0 0.504038
0.000182437 0 0.504038 0.000182437 0 0.504007 0.000148711 0 0.504007 0.000148711
0 0.503983 0.00011316 0 0.503983 0.00011316 0 0.503963 7.49822e-05 0
0.503963 7.49822e-05 0 0.503861 3.58381e-05 0 0.503861 3.58381e-05 0 0.503765
1.6451e-05 0 0.503765 1.6451e-05 0 0.0221303 1.49298e-07 0 0.04456 5.0304e-07
0 0.04456 5.0304e-07 0 0.0221303 1.49298e-07 0 0.08988 1.6085e-06 0
0.08988 1.6085e-06 0 0.135787 3.50543e-06 0 0.135787 3.50543e-06 0 0.181595
6.34655e-06 0 0.181595 6.34655e-06 0 0.226553 1.0559e-05 0 0.226553 1.0559e-05
0 0.269873 1.67729e-05 0 0.269873 1.67729e-05 0 0.310775 2.57638e-05 0
0.310775 2.57638e-05 0 0.348529 3.83432e-05 0 0.348529 3.83432e-05 0 0.382506
5.5169e-05 0 0.382506 5.5169e-05 0 0.412219 7.64946e-05 0 0.412219 7.64946e-05
0 0.43737 0.000101926 0 0.43737 0.000101926 0 0.457881 0.000130297 0
0.457881 0.000130297 0 0.473913 0.000159764 0 0.473913 0.000159764 0 0.485854
0.000188172 0 0.485854 0.000188172 0 0.49428 0.000213556 0 0.49428 0.000213556
0 0.499879 0.000234611 0 0.499879 0.000234611 0 0.503362 0.00025092 0
0.503362 0.00025092 0 0.505379 0.000262883 0 0.505379 0.000262883 0 0.506459
0.000271421 0 0.506459 0.000271421 0 0.506992 0.000277614 0 0.506992 0.000277614
0 0.507231 0.000282425 0 0.507231 0.000282425 0 0.507327 0.000286566 0
0.507327 0.000286566 0 0.507359 0.00029049 0 0.507359 0.00029049 0 0.507364
0.000294451 0 0.507364 0.000294451 0 0.507359 0.000298577 0 0.507359 0.000298577
0 0.50735 0.000302923 0 0.50735 0.000302923 0 0.507339 0.000307504 0
0.507339 0.000307504 0 0.507326 0.000312305 0 0.507326 0.000312305 0 0.507311
0.0003173 0 0.507311 0.0003173 0 0.507295 0.000322451 0 0.507295 0.000322451
0 0.507278 0.000327718 0 0.507278 0.000327718 0 0.507258 0.000333069 0
0.507258 0.000333069 0 0.507237 0.000338484 0 0.507237 0.000338484 0 0.507213
0.000343954 0 0.507213 0.000343954 0 0.507188 0.000349482 0 0.507188 0.000349482
0 0.50716 0.000355071 0 0.50716 0.000355071 0 0.50713 0.000360729 0
0.50713 0.000360729 0 0.507098 0.000366458 0 0.507098 0.000366458 0 0.507063
0.000372254 0 0.507063 0.000372254 0 0.507026 0.000378112 0 0.507026 0.000378112
0 0.506986 0.000384024 0 0.506986 0.000384024 0 0.506944 0.00038998 0
0.506944 0.00038998 0 0.506898 0.000395968 0 0.506898 0.000395968 0 0.50685
0.000401974 0 0.50685 0.000401974 0 0.506799 0.000407981 0 0.506799 0.000407981
0 0.506745 0.000413972 0 0.506745 0.000413972 0 0.506687 0.000419926 0
0.506687 0.000419926 0 0.506627 0.000425818 0 0.506627 0.000425818 0 0.506564
0.000431621 0 0.506564 0.000431621 0 0.506497 0.000437305 0 0.506497 0.000437305
0 0.506428 0.000442839 0 0.506428 0.000442839 0 0.506356 0.000448182 0
0.506356 0.000448182 0 0.506281 0.000453292 0 0.506281 0.000453292 0 0.506204
0.00045813 0 0.506204 0.00045813 0 0.506124 0.000462645 0 0.506124 0.000462645
0 0.506042 0.000466772 0 0.506042 0.000466772 0 0.505958 0.000470467 0
0.505958 0.000470467 0 0.505872 0.000473678 0 0.505872 0.000473678 0 0.505784
0.000476307 0 0.505784 0.000476307 0 
