# vtk DataFile Version 2.0
outlet
ASCII
DATASET POLYDATA
POINTS 182 float
0.1 0.02 0 0.1 0.0207299 0 0.1 0.0207299 0.001 0.1 0.02
0.001 0.1 0.021488 0 0.1 0.021488 0.001 0.1 0.0222754 0
0.1 0.0222754 0.001 0.1 0.0230932 0 0.1 0.0230932 0.001 0.1
0.0239425 0 0.1 0.0239425 0.001 0.1 0.0248247 0 0.1 0.0248247
0.001 0.1 0.0257409 0 0.1 0.0257409 0.001 0.1 0.0266925 0
0.1 0.0266925 0.001 0.1 0.0276808 0 0.1 0.0276808 0.001 0.1
0.0287073 0 0.1 0.0287073 0.001 0.1 0.0297734 0 0.1 0.0297734
0.001 0.1 0.0308807 0 0.1 0.0308807 0.001 0.1 0.0320307 0
0.1 0.0320307 0.001 0.1 0.0332251 0 0.1 0.0332251 0.001 0.1
0.0344656 0 0.1 0.0344656 0.001 0.1 0.0357541 0 0.1 0.0357541
0.001 0.1 0.0370923 0 0.1 0.0370923 0.001 0.1 0.0384821 0
0.1 0.0384821 0.001 0.1 0.0399257 0 0.1 0.0399257 0.001 0.1
0.0414249 0 0.1 0.0414249 0.001 0.1 0.042982 0 0.1 0.042982
0.001 0.1 0.0445993 0 0.1 0.0445993 0.001 0.1 0.046279 0
0.1 0.046279 0.001 0.1 0.0480236 0 0.1 0.0480236 0.001 0.1
0.0498355 0 0.1 0.0498355 0.001 0.1 0.0517173 0 0.1 0.0517173
0.001 0.1 0.0536719 0 0.1 0.0536719 0.001 0.1 0.0557019 0
0.1 0.0557019 0.001 0.1 0.0578102 0 0.1 0.0578102 0.001 0.1
0.06 0 0.1 0.06 0.001 0.1 0 0 0.1 8.46956e-05
0 0.1 8.46956e-05 0.001 0.1 0 0.001 0.1 0.000172762 0
0.1 0.000172762 0.001 0.1 0.000264333 0 0.1 0.000264333 0.001 0.1
0.000359549 0 0.1 0.000359549 0.001 0.1 0.000458554 0 0.1 0.000458554
0.001 0.1 0.0005615 0 0.1 0.0005615 0.001 0.1 0.000668542 0
0.1 0.000668542 0.001 0.1 0.000779845 0 0.1 0.000779845 0.001 0.1
0.000895577 0 0.1 0.000895577 0.001 0.1 0.00101591 0 0.1 0.00101591
0.001 0.1 0.00114104 0 0.1 0.00114104 0.001 0.1 0.00127115 0
0.1 0.00127115 0.001 0.1 0.00140644 0 0.1 0.00140644 0.001 0.1
0.0015471 0 0.1 0.0015471 0.001 0.1 0.00169337 0 0.1 0.00169337
0.001 0.1 0.00184546 0 0.1 0.00184546 0.001 0.1 0.0020036 0
0.1 0.0020036 0.001 0.1 0.00216804 0 0.1 0.00216804 0.001 0.1
0.00233902 0 0.1 0.00233902 0.001 0.1 0.00251681 0 0.1 0.00251681
0.001 0.1 0.00270167 0 0.1 0.00270167 0.001 0.1 0.00289388 0
0.1 0.00289388 0.001 0.1 0.00309375 0 0.1 0.00309375 0.001 0.1
0.00330157 0 0.1 0.00330157 0.001 0.1 0.00351767 0 0.1 0.00351767
0.001 0.1 0.00374236 0 0.1 0.00374236 0.001 0.1 0.00397599 0
0.1 0.00397599 0.001 0.1 0.00421893 0 0.1 0.00421893 0.001 0.1
0.00447153 0 0.1 0.00447153 0.001 0.1 0.00473419 0 0.1 0.00473419
0.001 0.1 0.0050073 0 0.1 0.0050073 0.001 0.1 0.00529127 0
0.1 0.00529127 0.001 0.1 0.00558655 0 0.1 0.00558655 0.001 0.1
0.00589359 0 0.1 0.00589359 0.001 0.1 0.00621284 0 0.1 0.00621284
0.001 0.1 0.00654479 0 0.1 0.00654479 0.001 0.1 0.00688996 0
0.1 0.00688996 0.001 0.1 0.00724887 0 0.1 0.00724887 0.001 0.1
0.00762206 0 0.1 0.00762206 0.001 0.1 0.0080101 0 0.1 0.0080101
0.001 0.1 0.00841358 0 0.1 0.00841358 0.001 0.1 0.00883312 0
0.1 0.00883312 0.001 0.1 0.00926936 0 0.1 0.00926936 0.001 0.1
0.00972297 0 0.1 0.00972297 0.001 0.1 0.0101946 0 0.1 0.0101946
0.001 0.1 0.010685 0 0.1 0.010685 0.001 0.1 0.011195 0
0.1 0.011195 0.001 0.1 0.0117252 0 0.1 0.0117252 0.001 0.1
0.0122766 0 0.1 0.0122766 0.001 0.1 0.0128499 0 0.1 0.0128499
0.001 0.1 0.013446 0 0.1 0.013446 0.001 0.1 0.0140658 0
0.1 0.0140658 0.001 0.1 0.0147103 0 0.1 0.0147103 0.001 0.1
0.0153804 0 0.1 0.0153804 0.001 0.1 0.0160772 0 0.1 0.0160772
0.001 0.1 0.0168018 0 0.1 0.0168018 0.001 0.1 0.0175551 0
0.1 0.0175551 0.001 0.1 0.0183385 0 0.1 0.0183385 0.001 0.1
0.019153 0 0.1 0.019153 0.001 
POLYGONS 90 450
4 0 1 2 3 4 1 4 5 2 4
4 6 7 5 4 6 8 9 7 4
8 10 11 9 4 10 12 13 11 4
12 14 15 13 4 14 16 17 15 4
16 18 19 17 4 18 20 21 19 4
20 22 23 21 4 22 24 25 23 4
24 26 27 25 4 26 28 29 27 4
28 30 31 29 4 30 32 33 31 4
32 34 35 33 4 34 36 37 35 4
36 38 39 37 4 38 40 41 39 4
40 42 43 41 4 42 44 45 43 4
44 46 47 45 4 46 48 49 47 4
48 50 51 49 4 50 52 53 51 4
52 54 55 53 4 54 56 57 55 4
56 58 59 57 4 58 60 61 59 4
62 63 64 65 4 63 66 67 64 4
66 68 69 67 4 68 70 71 69 4
70 72 73 71 4 72 74 75 73 4
74 76 77 75 4 76 78 79 77 4
78 80 81 79 4 80 82 83 81 4
82 84 85 83 4 84 86 87 85 4
86 88 89 87 4 88 90 91 89 4
90 92 93 91 4 92 94 95 93 4
94 96 97 95 4 96 98 99 97 4
98 100 101 99 4 100 102 103 101 4
102 104 105 103 4 104 106 107 105 4
106 108 109 107 4 108 110 111 109 4
110 112 113 111 4 112 114 115 113 4
114 116 117 115 4 116 118 119 117 4
118 120 121 119 4 120 122 123 121 4
122 124 125 123 4 124 126 127 125 4
126 128 129 127 4 128 130 131 129 4
130 132 133 131 4 132 134 135 133 4
134 136 137 135 4 136 138 139 137 4
138 140 141 139 4 140 142 143 141 4
142 144 145 143 4 144 146 147 145 4
146 148 149 147 4 148 150 151 149 4
150 152 153 151 4 152 154 155 153 4
154 156 157 155 4 156 158 159 157 4
158 160 161 159 4 160 162 163 161 4
162 164 165 163 4 164 166 167 165 4
166 168 169 167 4 168 170 171 169 4
170 172 173 171 4 172 174 175 173 4
174 176 177 175 4 176 178 179 177 4
178 180 181 179 4 180 0 3 181 
CELL_DATA 90
FIELD attributes 3
patchID 1 90 float
2 2 2 2 2 2 2 2 2 2 2
2 2 2 2 2 2 2 2 2 2
2 2 2 2 2 2 2 2 2 2
2 2 2 2 2 2 2 2 2 2
2 2 2 2 2 2 2 2 2 2
2 2 2 2 2 2 2 2 2 2
2 2 2 2 2 2 2 2 2 2
2 2 2 2 2 2 2 2 2 2
2 2 2 2 2 2 2 2 2 
p 1 90 float
0 0 0 0 0 0 0 0 0 0 0
0 0 0 0 0 0 0 0 0 0
0 0 0 0 0 0 0 0 0 0
0 0 0 0 0 0 0 0 0 0
0 0 0 0 0 0 0 0 0 0
0 0 0 0 0 0 0 0 0 0
0 0 0 0 0 0 0 0 0 0
0 0 0 0 0 0 0 0 0 0
0 0 0 0 0 0 0 0 0 
U 3 90 float
0.506949 0.00137319 0 0.506866 0.00135111 0 0.506782 0.00132791 0 0.506697 0.00130357
0 0.50661 0.00127801 0 0.506524 0.00125118 0 0.506436 0.00122302 0
0.506349 0.00119346 0 0.506262 0.00116243 0 0.506175 0.00112988 0 0.506089
0.00109571 0 0.506003 0.00105988 0 0.505919 0.00102228 0 0.505836 0.000982859
0 0.505755 0.000941519 0 0.505676 0.000898181 0 0.505599 0.00085276 0
0.505525 0.000805169 0 0.505454 0.000755318 0 0.505386 0.000703119 0 0.505322
0.00064848 0 0.505261 0.000591312 0 0.505205 0.000531526 0 0.505154 0.000469029
0 0.505109 0.000403727 0 0.505069 0.000335528 0 0.505036 0.000264417 0
0.505009 0.000190824 0 0.504988 0.000111785 0 0.504759 3.50118e-05 0 0.016571
2.35846e-06 0 0.0503295 1.59347e-05 0 0.0853118 4.65245e-05 0 0.121431 9.28316e-05
0 0.158524 0.000155949 0 0.196332 0.00023716 0 0.234483 0.000337155 0
0.272472 0.000455767 0 0.309662 0.000591612 0 0.345297 0.000741708 0 0.378547
0.000901258 0 0.408591 0.00106375 0 0.43472 0.0012215 0 0.456454 0.00136665
0 0.473635 0.00149242 0 0.486461 0.00159441 0 0.49545 0.00167122 0
0.501328 0.00172451 0 0.504897 0.00175817 0 0.506898 0.00177712 0 0.507928
0.00178614 0 0.508413 0.00178912 0 0.50862 0.00178874 0 0.508698 0.00178665
0 0.508721 0.00178369 0 0.508723 0.00178025 0 0.508717 0.0017765 0
0.508707 0.00177248 0 0.508695 0.00176819 0 0.50868 0.00176363 0 0.508664
0.0017588 0 0.508646 0.00175366 0 0.508626 0.00174822 0 0.508604 0.00174245
0 0.50858 0.00173634 0 0.508554 0.00172986 0 0.508526 0.001723 0
0.508495 0.00171574 0 0.508461 0.00170805 0 0.508425 0.00169992 0 0.508386
0.00169132 0 0.508344 0.00168222 0 0.508299 0.0016726 0 0.508251 0.00166243
0 0.508199 0.00165168 0 0.508144 0.00164033 0 0.508086 0.00162833 0
0.508025 0.00161566 0 0.50796 0.00160228 0 0.507892 0.00158816 0 0.50782
0.00157324 0 0.507745 0.00155751 0 0.507667 0.0015409 0 0.507585 0.00152339
0 0.507501 0.00150491 0 0.507413 0.00148542 0 0.507323 0.00146487 0
0.507231 0.00144322 0 0.507136 0.00142038 0 0.507039 0.0013963 0 
POINT_DATA  182
FIELD attributes 2
p 1 182 float
0 0 0 0 0 0 0 0 0 0 0
0 0 0 0 0 0 0 0 0 0
0 0 0 0 0 0 0 0 0 0
0 0 0 0 0 0 0 0 0 0
0 0 0 0 0 0 0 0 0 0
0 0 0 0 0 0 0 0 0 0
0 0 0 0 0 0 0 0 0 0
0 0 0 0 0 0 0 0 0 0
0 0 0 0 0 0 0 0 0 0
0 0 0 0 0 0 0 0 0 0
0 0 0 0 0 0 0 0 0 0
0 0 0 0 0 0 0 0 0 0
0 0 0 0 0 0 0 0 0 0
0 0 0 0 0 0 0 0 0 0
0 0 0 0 0 0 0 0 0 0
0 0 0 0 0 0 0 0 0 0
0 0 0 0 0 0 0 0 0 0
0 0 0 0 0 0 0 0 0 0
0 
U 3 182 float
0.506993 0.00138442 0 0.506908 0.00136223 0 0.506908 0.00136223 0 0.506993 0.00138442
0 0.506824 0.00133959 0 0.506824 0.00133959 0 0.50674 0.00131583 0
0.50674 0.00131583 0 0.506654 0.00129089 0 0.506654 0.00129089 0 0.506567
0.00126471 0 0.506567 0.00126471 0 0.50648 0.00123722 0 0.50648 0.00123722
0 0.506393 0.00120837 0 0.506393 0.00120837 0 0.506306 0.00117809 0
0.506306 0.00117809 0 0.506219 0.00114631 0 0.506219 0.00114631 0 0.506132
0.00111296 0 0.506132 0.00111296 0 0.506046 0.00107798 0 0.506046 0.00107798
0 0.505962 0.00104128 0 0.505962 0.00104128 0 0.505878 0.00100279 0
0.505878 0.00100279 0 0.505796 0.000962422 0 0.505796 0.000962422 0 0.505716
0.000920102 0 0.505716 0.000920102 0 0.505638 0.000875743 0 0.505638 0.000875743
0 0.505563 0.000829257 0 0.505563 0.000829257 0 0.50549 0.000780559 0
0.50549 0.000780559 0 0.50542 0.000729557 0 0.50542 0.000729557 0 0.505354
0.000676162 0 0.505354 0.000676162 0 0.505292 0.000620284 0 0.505292 0.000620284
0 0.505234 0.000561833 0 0.505234 0.000561833 0 0.50518 0.000500718 0
0.50518 0.000500718 0 0.505132 0.000436848 0 0.505132 0.000436848 0 0.505089
0.000370127 0 0.505089 0.000370127 0 0.505052 0.000300502 0 0.505052 0.000300502
0 0.505023 0.000228177 0 0.505023 0.000228177 0 0.504999 0.000151911 0
0.504999 0.000151911 0 0.504875 7.39959e-05 0 0.504875 7.39959e-05 0 0.504759
3.50118e-05 0 0.504759 3.50118e-05 0 0.016571 2.35846e-06 0 0.0334478 9.1456e-06
0 0.0334478 9.1456e-06 0 0.016571 2.35846e-06 0 0.0678179 3.12272e-05 0
0.0678179 3.12272e-05 0 0.103368 6.96742e-05 0 0.103368 6.96742e-05 0 0.139974
0.000124385 0 0.139974 0.000124385 0 0.177425 0.000196546 0 0.177425 0.000196546
0 0.215404 0.000287146 0 0.215404 0.000287146 0 0.253473 0.000396447 0
0.253473 0.000396447 0 0.291063 0.000523673 0 0.291063 0.000523673 0 0.327475
0.00066664 0 0.327475 0.00066664 0 0.361917 0.00082146 0 0.361917 0.00082146
0 0.393565 0.000982479 0 0.393565 0.000982479 0 0.421651 0.0011426 0
0.421651 0.0011426 0 0.445583 0.00129405 0 0.445583 0.00129405 0 0.465041
0.00142951 0 0.465041 0.00142951 0 0.480045 0.00154339 0 0.480045 0.00154339
0 0.490953 0.00163279 0 0.490953 0.00163279 0 0.498388 0.00169785 0
0.498388 0.00169785 0 0.503112 0.00174133 0 0.503112 0.00174133 0 0.505897
0.00176764 0 0.505897 0.00176764 0 0.507412 0.00178162 0 0.507412 0.00178162
0 0.50817 0.00178763 0 0.50817 0.00178763 0 0.508516 0.00178893 0
0.508516 0.00178893 0 0.508659 0.0017877 0 0.508659 0.0017877 0 0.508709
0.00178517 0 0.508709 0.00178517 0 0.508722 0.00178197 0 0.508722 0.00178197
0 0.50872 0.00177838 0 0.50872 0.00177838 0 0.508712 0.00177449 0
0.508712 0.00177449 0 0.508701 0.00177034 0 0.508701 0.00177034 0 0.508687
0.00176591 0 0.508687 0.00176591 0 0.508672 0.00176122 0 0.508672 0.00176122
0 0.508655 0.00175623 0 0.508655 0.00175623 0 0.508636 0.00175095 0
0.508636 0.00175095 0 0.508615 0.00174534 0 0.508615 0.00174534 0 0.508592
0.0017394 0 0.508592 0.0017394 0 0.508567 0.00173311 0 0.508567 0.00173311
0 0.50854 0.00172644 0 0.50854 0.00172644 0 0.50851 0.00171938 0
0.50851 0.00171938 0 0.508478 0.00171191 0 0.508478 0.00171191 0 0.508443
0.001704 0 0.508443 0.001704 0 0.508405 0.00169563 0 0.508405 0.00169563
0 0.508365 0.00168678 0 0.508365 0.00168678 0 0.508321 0.00167742 0
0.508321 0.00167742 0 0.508275 0.00166753 0 0.508275 0.00166753 0 0.508225
0.00165708 0 0.508225 0.00165708 0 0.508172 0.00164603 0 0.508172 0.00164603
0 0.508116 0.00163435 0 0.508116 0.00163435 0 0.508056 0.00162202 0
0.508056 0.00162202 0 0.507993 0.001609 0 0.507993 0.001609 0 0.507926
0.00159525 0 0.507926 0.00159525 0 0.507856 0.00158074 0 0.507856 0.00158074
0 0.507783 0.00156542 0 0.507783 0.00156542 0 0.507706 0.00154925 0
0.507706 0.00154925 0 0.507626 0.0015322 0 0.507626 0.0015322 0 0.507543
0.00151421 0 0.507543 0.00151421 0 0.507457 0.00149523 0 0.507457 0.00149523
0 0.507369 0.00147522 0 0.507369 0.00147522 0 0.507277 0.00145412 0
0.507277 0.00145412 0 0.507184 0.00143188 0 0.507184 0.00143188 0 0.507088
0.00140843 0 0.507088 0.00140843 0 
