# vtk DataFile Version 2.0
outlet
ASCII
DATASET POLYDATA
POINTS 182 float
0.1 0.02 0 0.1 0.0207299 0 0.1 0.0207299 0.001 0.1 0.02
0.001 0.1 0.021488 0 0.1 0.021488 0.001 0.1 0.0222754 0
0.1 0.0222754 0.001 0.1 0.0230932 0 0.1 0.0230932 0.001 0.1
0.0239425 0 0.1 0.0239425 0.001 0.1 0.0248247 0 0.1 0.0248247
0.001 0.1 0.0257409 0 0.1 0.0257409 0.001 0.1 0.0266925 0
0.1 0.0266925 0.001 0.1 0.0276808 0 0.1 0.0276808 0.001 0.1
0.0287073 0 0.1 0.0287073 0.001 0.1 0.0297734 0 0.1 0.0297734
0.001 0.1 0.0308807 0 0.1 0.0308807 0.001 0.1 0.0320307 0
0.1 0.0320307 0.001 0.1 0.0332251 0 0.1 0.0332251 0.001 0.1
0.0344656 0 0.1 0.0344656 0.001 0.1 0.0357541 0 0.1 0.0357541
0.001 0.1 0.0370923 0 0.1 0.0370923 0.001 0.1 0.0384821 0
0.1 0.0384821 0.001 0.1 0.0399257 0 0.1 0.0399257 0.001 0.1
0.0414249 0 0.1 0.0414249 0.001 0.1 0.042982 0 0.1 0.042982
0.001 0.1 0.0445993 0 0.1 0.0445993 0.001 0.1 0.046279 0
0.1 0.046279 0.001 0.1 0.0480236 0 0.1 0.0480236 0.001 0.1
0.0498355 0 0.1 0.0498355 0.001 0.1 0.0517173 0 0.1 0.0517173
0.001 0.1 0.0536719 0 0.1 0.0536719 0.001 0.1 0.0557019 0
0.1 0.0557019 0.001 0.1 0.0578102 0 0.1 0.0578102 0.001 0.1
0.06 0 0.1 0.06 0.001 0.1 0 0 0.1 8.46956e-05
0 0.1 8.46956e-05 0.001 0.1 0 0.001 0.1 0.000172762 0
0.1 0.000172762 0.001 0.1 0.000264333 0 0.1 0.000264333 0.001 0.1
0.000359549 0 0.1 0.000359549 0.001 0.1 0.000458554 0 0.1 0.000458554
0.001 0.1 0.0005615 0 0.1 0.0005615 0.001 0.1 0.000668542 0
0.1 0.000668542 0.001 0.1 0.000779845 0 0.1 0.000779845 0.001 0.1
0.000895577 0 0.1 0.000895577 0.001 0.1 0.00101591 0 0.1 0.00101591
0.001 0.1 0.00114104 0 0.1 0.00114104 0.001 0.1 0.00127115 0
0.1 0.00127115 0.001 0.1 0.00140644 0 0.1 0.00140644 0.001 0.1
0.0015471 0 0.1 0.0015471 0.001 0.1 0.00169337 0 0.1 0.00169337
0.001 0.1 0.00184546 0 0.1 0.00184546 0.001 0.1 0.0020036 0
0.1 0.0020036 0.001 0.1 0.00216804 0 0.1 0.00216804 0.001 0.1
0.00233902 0 0.1 0.00233902 0.001 0.1 0.00251681 0 0.1 0.00251681
0.001 0.1 0.00270167 0 0.1 0.00270167 0.001 0.1 0.00289388 0
0.1 0.00289388 0.001 0.1 0.00309375 0 0.1 0.00309375 0.001 0.1
0.00330157 0 0.1 0.00330157 0.001 0.1 0.00351767 0 0.1 0.00351767
0.001 0.1 0.00374236 0 0.1 0.00374236 0.001 0.1 0.00397599 0
0.1 0.00397599 0.001 0.1 0.00421893 0 0.1 0.00421893 0.001 0.1
0.00447153 0 0.1 0.00447153 0.001 0.1 0.00473419 0 0.1 0.00473419
0.001 0.1 0.0050073 0 0.1 0.0050073 0.001 0.1 0.00529127 0
0.1 0.00529127 0.001 0.1 0.00558655 0 0.1 0.00558655 0.001 0.1
0.00589359 0 0.1 0.00589359 0.001 0.1 0.00621284 0 0.1 0.00621284
0.001 0.1 0.00654479 0 0.1 0.00654479 0.001 0.1 0.00688996 0
0.1 0.00688996 0.001 0.1 0.00724887 0 0.1 0.00724887 0.001 0.1
0.00762206 0 0.1 0.00762206 0.001 0.1 0.0080101 0 0.1 0.0080101
0.001 0.1 0.00841358 0 0.1 0.00841358 0.001 0.1 0.00883312 0
0.1 0.00883312 0.001 0.1 0.00926936 0 0.1 0.00926936 0.001 0.1
0.00972297 0 0.1 0.00972297 0.001 0.1 0.0101946 0 0.1 0.0101946
0.001 0.1 0.010685 0 0.1 0.010685 0.001 0.1 0.011195 0
0.1 0.011195 0.001 0.1 0.0117252 0 0.1 0.0117252 0.001 0.1
0.0122766 0 0.1 0.0122766 0.001 0.1 0.0128499 0 0.1 0.0128499
0.001 0.1 0.013446 0 0.1 0.013446 0.001 0.1 0.0140658 0
0.1 0.0140658 0.001 0.1 0.0147103 0 0.1 0.0147103 0.001 0.1
0.0153804 0 0.1 0.0153804 0.001 0.1 0.0160772 0 0.1 0.0160772
0.001 0.1 0.0168018 0 0.1 0.0168018 0.001 0.1 0.0175551 0
0.1 0.0175551 0.001 0.1 0.0183385 0 0.1 0.0183385 0.001 0.1
0.019153 0 0.1 0.019153 0.001 
POLYGONS 90 450
4 0 1 2 3 4 1 4 5 2 4
4 6 7 5 4 6 8 9 7 4
8 10 11 9 4 10 12 13 11 4
12 14 15 13 4 14 16 17 15 4
16 18 19 17 4 18 20 21 19 4
20 22 23 21 4 22 24 25 23 4
24 26 27 25 4 26 28 29 27 4
28 30 31 29 4 30 32 33 31 4
32 34 35 33 4 34 36 37 35 4
36 38 39 37 4 38 40 41 39 4
40 42 43 41 4 42 44 45 43 4
44 46 47 45 4 46 48 49 47 4
48 50 51 49 4 50 52 53 51 4
52 54 55 53 4 54 56 57 55 4
56 58 59 57 4 58 60 61 59 4
62 63 64 65 4 63 66 67 64 4
66 68 69 67 4 68 70 71 69 4
70 72 73 71 4 72 74 75 73 4
74 76 77 75 4 76 78 79 77 4
78 80 81 79 4 80 82 83 81 4
82 84 85 83 4 84 86 87 85 4
86 88 89 87 4 88 90 91 89 4
90 92 93 91 4 92 94 95 93 4
94 96 97 95 4 96 98 99 97 4
98 100 101 99 4 100 102 103 101 4
102 104 105 103 4 104 106 107 105 4
106 108 109 107 4 108 110 111 109 4
110 112 113 111 4 112 114 115 113 4
114 116 117 115 4 116 118 119 117 4
118 120 121 119 4 120 122 123 121 4
122 124 125 123 4 124 126 127 125 4
126 128 129 127 4 128 130 131 129 4
130 132 133 131 4 132 134 135 133 4
134 136 137 135 4 136 138 139 137 4
138 140 141 139 4 140 142 143 141 4
142 144 145 143 4 144 146 147 145 4
146 148 149 147 4 148 150 151 149 4
150 152 153 151 4 152 154 155 153 4
154 156 157 155 4 156 158 159 157 4
158 160 161 159 4 160 162 163 161 4
162 164 165 163 4 164 166 167 165 4
166 168 169 167 4 168 170 171 169 4
170 172 173 171 4 172 174 175 173 4
174 176 177 175 4 176 178 179 177 4
178 180 181 179 4 180 0 3 181 
CELL_DATA 90
FIELD attributes 3
patchID 1 90 float
2 2 2 2 2 2 2 2 2 2 2
2 2 2 2 2 2 2 2 2 2
2 2 2 2 2 2 2 2 2 2
2 2 2 2 2 2 2 2 2 2
2 2 2 2 2 2 2 2 2 2
2 2 2 2 2 2 2 2 2 2
2 2 2 2 2 2 2 2 2 2
2 2 2 2 2 2 2 2 2 2
2 2 2 2 2 2 2 2 2 
p 1 90 float
0 0 0 0 0 0 0 0 0 0 0
0 0 0 0 0 0 0 0 0 0
0 0 0 0 0 0 0 0 0 0
0 0 0 0 0 0 0 0 0 0
0 0 0 0 0 0 0 0 0 0
0 0 0 0 0 0 0 0 0 0
0 0 0 0 0 0 0 0 0 0
0 0 0 0 0 0 0 0 0 0
0 0 0 0 0 0 0 0 0 
U 3 90 float
0.506979 0.0014334 0 0.506897 0.00141003 0 0.506813 0.00138553 0 0.506729 0.00135985
0 0.506643 0.00133291 0 0.506557 0.00130466 0 0.506471 0.00127504 0
0.506384 0.00124398 0 0.506298 0.00121141 0 0.506212 0.00117726 0 0.506126
0.00114146 0 0.506042 0.00110393 0 0.505958 0.00106459 0 0.505876 0.00102337
0 0.505796 0.00098017 0 0.505717 0.000934912 0 0.505641 0.000887507 0
0.505568 0.000837863 0 0.505497 0.000785889 0 0.50543 0.000731491 0 0.505366
0.000674577 0 0.505306 0.000615053 0 0.505251 0.000552824 0 0.505201 0.000487795
0 0.505155 0.00041987 0 0.505116 0.000348952 0 0.505083 0.00027502 0
0.505057 0.000198489 0 0.505035 0.000116385 0 0.504806 3.65293e-05 0 0.016427
2.50384e-06 0 0.0498846 1.70538e-05 0 0.0845674 4.9964e-05 0 0.12041 9.98859e-05
0 0.157267 0.000167968 0 0.194897 0.000255478 0 0.232934 0.000362971 0
0.27088 0.00049004 0 0.308095 0.000634986 0 0.343816 0.000794467 0 0.377204
0.000963308 0 0.407425 0.00113463 0 0.433753 0.00130041 0 0.455692 0.00145252
0 0.473066 0.001584 0 0.486062 0.00169036 0 0.495188 0.00177026 0
0.501169 0.00182549 0 0.504807 0.00186014 0 0.506852 0.00187938 0 0.507908
0.00188821 0 0.508406 0.00189071 0 0.508619 0.00188968 0 0.5087 0.00188685
0 0.508725 0.0018831 0 0.508728 0.00187885 0 0.508723 0.00187427 0
0.508713 0.00186941 0 0.508701 0.00186427 0 0.508687 0.00185885 0 0.508672
0.00185313 0 0.508654 0.00184711 0 0.508635 0.00184076 0 0.508614 0.00183408
0 0.50859 0.00182704 0 0.508565 0.00181961 0 0.508537 0.0018118 0
0.508506 0.00180356 0 0.508473 0.00179489 0 0.508438 0.00178576 0 0.5084
0.00177613 0 0.508358 0.001766 0 0.508314 0.00175533 0 0.508267 0.00174409
0 0.508216 0.00173226 0 0.508162 0.00171979 0 0.508105 0.00170667 0
0.508044 0.00169286 0 0.50798 0.00167831 0 0.507912 0.001663 0 0.507842
0.00164688 0 0.507767 0.00162991 0 0.50769 0.00161205 0 0.507609 0.00159325
0 0.507526 0.00157347 0 0.507439 0.00155264 0 0.50735 0.00153073 0
0.507258 0.00150768 0 0.507164 0.00148342 0 0.507068 0.00145787 0 
POINT_DATA  182
FIELD attributes 2
p 1 182 float
0 0 0 0 0 0 0 0 0 0 0
0 0 0 0 0 0 0 0 0 0
0 0 0 0 0 0 0 0 0 0
0 0 0 0 0 0 0 0 0 0
0 0 0 0 0 0 0 0 0 0
0 0 0 0 0 0 0 0 0 0
0 0 0 0 0 0 0 0 0 0
0 0 0 0 0 0 0 0 0 0
0 0 0 0 0 0 0 0 0 0
0 0 0 0 0 0 0 0 0 0
0 0 0 0 0 0 0 0 0 0
0 0 0 0 0 0 0 0 0 0
0 0 0 0 0 0 0 0 0 0
0 0 0 0 0 0 0 0 0 0
0 0 0 0 0 0 0 0 0 0
0 0 0 0 0 0 0 0 0 0
0 0 0 0 0 0 0 0 0 0
0 0 0 0 0 0 0 0 0 0
0 
U 3 182 float
0.507023 0.00144529 0 0.506938 0.00142179 0 0.506938 0.00142179 0 0.507023 0.00144529
0 0.506856 0.00139787 0 0.506856 0.00139787 0 0.506772 0.00137279 0
0.506772 0.00137279 0 0.506687 0.00134649 0 0.506687 0.00134649 0 0.506601
0.0013189 0 0.506601 0.0013189 0 0.506515 0.00128998 0 0.506515 0.00128998
0 0.506428 0.00125965 0 0.506428 0.00125965 0 0.506342 0.00122784 0
0.506342 0.00122784 0 0.506255 0.0011945 0 0.506255 0.0011945 0 0.50617
0.00115954 0 0.50617 0.00115954 0 0.506085 0.00112289 0 0.506085 0.00112289
0 0.506 0.00108447 0 0.506 0.00108447 0 0.505918 0.00104421 0
0.505918 0.00104421 0 0.505836 0.00100201 0 0.505836 0.00100201 0 0.505757
0.000957805 0 0.505757 0.000957805 0 0.50568 0.000911494 0 0.50568 0.000911494
0 0.505605 0.00086299 0 0.505605 0.00086299 0 0.505533 0.000812204 0
0.505533 0.000812204 0 0.505464 0.000759042 0 0.505464 0.000759042 0 0.505399
0.000703412 0 0.505399 0.000703412 0 0.505337 0.000645219 0 0.505337 0.000645219
0 0.505279 0.000584369 0 0.505279 0.000584369 0 0.505226 0.000520769 0
0.505226 0.000520769 0 0.505178 0.000454321 0 0.505178 0.000454321 0 0.505136
0.00038493 0 0.505136 0.00038493 0 0.5051 0.000312537 0 0.5051 0.000312537
0 0.50507 0.000237333 0 0.50507 0.000237333 0 0.505046 0.000158067 0
0.505046 0.000158067 0 0.504922 7.70786e-05 0 0.504922 7.70786e-05 0 0.504806
3.65293e-05 0 0.504806 3.65293e-05 0 0.016427 2.50384e-06 0 0.0331534 9.77779e-06
0 0.0331534 9.77779e-06 0 0.016427 2.50384e-06 0 0.0672233 3.35063e-05 0
0.0672233 3.35063e-05 0 0.102486 7.49207e-05 0 0.102486 7.49207e-05 0 0.138835
0.000133921 0 0.138835 0.000133921 0 0.176078 0.000211714 0 0.176078 0.000211714
0 0.213911 0.000309213 0 0.213911 0.000309213 0 0.251903 0.000426491 0
0.251903 0.000426491 0 0.289483 0.000562495 0 0.289483 0.000562495 0 0.32595
0.000714705 0 0.32595 0.000714705 0 0.360505 0.000878863 0 0.360505 0.000878863
0 0.39231 0.00104894 0 0.39231 0.00104894 0 0.420585 0.00121749 0
0.420585 0.00121749 0 0.444718 0.00137644 0 0.444718 0.00137644 0 0.464376
0.00151823 0 0.464376 0.00151823 0 0.479562 0.00163716 0 0.479562 0.00163716
0 0.490623 0.00173029 0 0.490623 0.00173029 0 0.498177 0.00179786 0
0.498177 0.00179786 0 0.502987 0.0018428 0 0.502987 0.0018428 0 0.505829
0.00186975 0 0.505829 0.00186975 0 0.507379 0.00188379 0 0.507379 0.00188379
0 0.508157 0.00188946 0 0.508157 0.00188946 0 0.508512 0.00189019 0
0.508512 0.00189019 0 0.50866 0.00188827 0 0.50866 0.00188827 0 0.508713
0.00188497 0 0.508713 0.00188497 0 0.508727 0.00188098 0 0.508727 0.00188098
0 0.508726 0.00187656 0 0.508726 0.00187656 0 0.508718 0.00187184 0
0.508718 0.00187184 0 0.508707 0.00186684 0 0.508707 0.00186684 0 0.508694
0.00186156 0 0.508694 0.00186156 0 0.50868 0.00185599 0 0.50868 0.00185599
0 0.508663 0.00185013 0 0.508663 0.00185013 0 0.508645 0.00184394 0
0.508645 0.00184394 0 0.508624 0.00183743 0 0.508624 0.00183743 0 0.508602
0.00183056 0 0.508602 0.00183056 0 0.508577 0.00182333 0 0.508577 0.00182333
0 0.508551 0.00181571 0 0.508551 0.00181571 0 0.508522 0.00180769 0
0.508522 0.00180769 0 0.50849 0.00179924 0 0.50849 0.00179924 0 0.508456
0.00179033 0 0.508456 0.00179033 0 0.508419 0.00178096 0 0.508419 0.00178096
0 0.508379 0.00177108 0 0.508379 0.00177108 0 0.508336 0.00176068 0
0.508336 0.00176068 0 0.50829 0.00174973 0 0.50829 0.00174973 0 0.508241
0.00173819 0 0.508241 0.00173819 0 0.508189 0.00172605 0 0.508189 0.00172605
0 0.508133 0.00171326 0 0.508133 0.00171326 0 0.508074 0.00169979 0
0.508074 0.00169979 0 0.508012 0.00168562 0 0.508012 0.00168562 0 0.507946
0.00167069 0 0.507946 0.00167069 0 0.507877 0.00165498 0 0.507877 0.00165498
0 0.507805 0.00163844 0 0.507805 0.00163844 0 0.507729 0.00162103 0
0.507729 0.00162103 0 0.50765 0.00160271 0 0.50765 0.00160271 0 0.507568
0.00158342 0 0.507568 0.00158342 0 0.507482 0.00156313 0 0.507482 0.00156313
0 0.507395 0.00154176 0 0.507395 0.00154176 0 0.507304 0.00151929 0
0.507304 0.00151929 0 0.507211 0.00149564 0 0.507211 0.00149564 0 0.507117
0.00147075 0 0.507117 0.00147075 0 
