# vtk DataFile Version 2.0
outlet
ASCII
DATASET POLYDATA
POINTS 182 float
0.1 0.02 0 0.1 0.0207299 0 0.1 0.0207299 0.001 0.1 0.02
0.001 0.1 0.021488 0 0.1 0.021488 0.001 0.1 0.0222754 0
0.1 0.0222754 0.001 0.1 0.0230932 0 0.1 0.0230932 0.001 0.1
0.0239425 0 0.1 0.0239425 0.001 0.1 0.0248247 0 0.1 0.0248247
0.001 0.1 0.0257409 0 0.1 0.0257409 0.001 0.1 0.0266925 0
0.1 0.0266925 0.001 0.1 0.0276808 0 0.1 0.0276808 0.001 0.1
0.0287073 0 0.1 0.0287073 0.001 0.1 0.0297734 0 0.1 0.0297734
0.001 0.1 0.0308807 0 0.1 0.0308807 0.001 0.1 0.0320307 0
0.1 0.0320307 0.001 0.1 0.0332251 0 0.1 0.0332251 0.001 0.1
0.0344656 0 0.1 0.0344656 0.001 0.1 0.0357541 0 0.1 0.0357541
0.001 0.1 0.0370923 0 0.1 0.0370923 0.001 0.1 0.0384821 0
0.1 0.0384821 0.001 0.1 0.0399257 0 0.1 0.0399257 0.001 0.1
0.0414249 0 0.1 0.0414249 0.001 0.1 0.042982 0 0.1 0.042982
0.001 0.1 0.0445993 0 0.1 0.0445993 0.001 0.1 0.046279 0
0.1 0.046279 0.001 0.1 0.0480236 0 0.1 0.0480236 0.001 0.1
0.0498355 0 0.1 0.0498355 0.001 0.1 0.0517173 0 0.1 0.0517173
0.001 0.1 0.0536719 0 0.1 0.0536719 0.001 0.1 0.0557019 0
0.1 0.0557019 0.001 0.1 0.0578102 0 0.1 0.0578102 0.001 0.1
0.06 0 0.1 0.06 0.001 0.1 0 0 0.1 8.46956e-05
0 0.1 8.46956e-05 0.001 0.1 0 0.001 0.1 0.000172762 0
0.1 0.000172762 0.001 0.1 0.000264333 0 0.1 0.000264333 0.001 0.1
0.000359549 0 0.1 0.000359549 0.001 0.1 0.000458554 0 0.1 0.000458554
0.001 0.1 0.0005615 0 0.1 0.0005615 0.001 0.1 0.000668542 0
0.1 0.000668542 0.001 0.1 0.000779845 0 0.1 0.000779845 0.001 0.1
0.000895577 0 0.1 0.000895577 0.001 0.1 0.00101591 0 0.1 0.00101591
0.001 0.1 0.00114104 0 0.1 0.00114104 0.001 0.1 0.00127115 0
0.1 0.00127115 0.001 0.1 0.00140644 0 0.1 0.00140644 0.001 0.1
0.0015471 0 0.1 0.0015471 0.001 0.1 0.00169337 0 0.1 0.00169337
0.001 0.1 0.00184546 0 0.1 0.00184546 0.001 0.1 0.0020036 0
0.1 0.0020036 0.001 0.1 0.00216804 0 0.1 0.00216804 0.001 0.1
0.00233902 0 0.1 0.00233902 0.001 0.1 0.00251681 0 0.1 0.00251681
0.001 0.1 0.00270167 0 0.1 0.00270167 0.001 0.1 0.00289388 0
0.1 0.00289388 0.001 0.1 0.00309375 0 0.1 0.00309375 0.001 0.1
0.00330157 0 0.1 0.00330157 0.001 0.1 0.00351767 0 0.1 0.00351767
0.001 0.1 0.00374236 0 0.1 0.00374236 0.001 0.1 0.00397599 0
0.1 0.00397599 0.001 0.1 0.00421893 0 0.1 0.00421893 0.001 0.1
0.00447153 0 0.1 0.00447153 0.001 0.1 0.00473419 0 0.1 0.00473419
0.001 0.1 0.0050073 0 0.1 0.0050073 0.001 0.1 0.00529127 0
0.1 0.00529127 0.001 0.1 0.00558655 0 0.1 0.00558655 0.001 0.1
0.00589359 0 0.1 0.00589359 0.001 0.1 0.00621284 0 0.1 0.00621284
0.001 0.1 0.00654479 0 0.1 0.00654479 0.001 0.1 0.00688996 0
0.1 0.00688996 0.001 0.1 0.00724887 0 0.1 0.00724887 0.001 0.1
0.00762206 0 0.1 0.00762206 0.001 0.1 0.0080101 0 0.1 0.0080101
0.001 0.1 0.00841358 0 0.1 0.00841358 0.001 0.1 0.00883312 0
0.1 0.00883312 0.001 0.1 0.00926936 0 0.1 0.00926936 0.001 0.1
0.00972297 0 0.1 0.00972297 0.001 0.1 0.0101946 0 0.1 0.0101946
0.001 0.1 0.010685 0 0.1 0.010685 0.001 0.1 0.011195 0
0.1 0.011195 0.001 0.1 0.0117252 0 0.1 0.0117252 0.001 0.1
0.0122766 0 0.1 0.0122766 0.001 0.1 0.0128499 0 0.1 0.0128499
0.001 0.1 0.013446 0 0.1 0.013446 0.001 0.1 0.0140658 0
0.1 0.0140658 0.001 0.1 0.0147103 0 0.1 0.0147103 0.001 0.1
0.0153804 0 0.1 0.0153804 0.001 0.1 0.0160772 0 0.1 0.0160772
0.001 0.1 0.0168018 0 0.1 0.0168018 0.001 0.1 0.0175551 0
0.1 0.0175551 0.001 0.1 0.0183385 0 0.1 0.0183385 0.001 0.1
0.019153 0 0.1 0.019153 0.001 
POLYGONS 90 450
4 0 1 2 3 4 1 4 5 2 4
4 6 7 5 4 6 8 9 7 4
8 10 11 9 4 10 12 13 11 4
12 14 15 13 4 14 16 17 15 4
16 18 19 17 4 18 20 21 19 4
20 22 23 21 4 22 24 25 23 4
24 26 27 25 4 26 28 29 27 4
28 30 31 29 4 30 32 33 31 4
32 34 35 33 4 34 36 37 35 4
36 38 39 37 4 38 40 41 39 4
40 42 43 41 4 42 44 45 43 4
44 46 47 45 4 46 48 49 47 4
48 50 51 49 4 50 52 53 51 4
52 54 55 53 4 54 56 57 55 4
56 58 59 57 4 58 60 61 59 4
62 63 64 65 4 63 66 67 64 4
66 68 69 67 4 68 70 71 69 4
70 72 73 71 4 72 74 75 73 4
74 76 77 75 4 76 78 79 77 4
78 80 81 79 4 80 82 83 81 4
82 84 85 83 4 84 86 87 85 4
86 88 89 87 4 88 90 91 89 4
90 92 93 91 4 92 94 95 93 4
94 96 97 95 4 96 98 99 97 4
98 100 101 99 4 100 102 103 101 4
102 104 105 103 4 104 106 107 105 4
106 108 109 107 4 108 110 111 109 4
110 112 113 111 4 112 114 115 113 4
114 116 117 115 4 116 118 119 117 4
118 120 121 119 4 120 122 123 121 4
122 124 125 123 4 124 126 127 125 4
126 128 129 127 4 128 130 131 129 4
130 132 133 131 4 132 134 135 133 4
134 136 137 135 4 136 138 139 137 4
138 140 141 139 4 140 142 143 141 4
142 144 145 143 4 144 146 147 145 4
146 148 149 147 4 148 150 151 149 4
150 152 153 151 4 152 154 155 153 4
154 156 157 155 4 156 158 159 157 4
158 160 161 159 4 160 162 163 161 4
162 164 165 163 4 164 166 167 165 4
166 168 169 167 4 168 170 171 169 4
170 172 173 171 4 172 174 175 173 4
174 176 177 175 4 176 178 179 177 4
178 180 181 179 4 180 0 3 181 
CELL_DATA 90
FIELD attributes 3
patchID 1 90 float
2 2 2 2 2 2 2 2 2 2 2
2 2 2 2 2 2 2 2 2 2
2 2 2 2 2 2 2 2 2 2
2 2 2 2 2 2 2 2 2 2
2 2 2 2 2 2 2 2 2 2
2 2 2 2 2 2 2 2 2 2
2 2 2 2 2 2 2 2 2 2
2 2 2 2 2 2 2 2 2 2
2 2 2 2 2 2 2 2 2 
p 1 90 float
0 0 0 0 0 0 0 0 0 0 0
0 0 0 0 0 0 0 0 0 0
0 0 0 0 0 0 0 0 0 0
0 0 0 0 0 0 0 0 0 0
0 0 0 0 0 0 0 0 0 0
0 0 0 0 0 0 0 0 0 0
0 0 0 0 0 0 0 0 0 0
0 0 0 0 0 0 0 0 0 0
0 0 0 0 0 0 0 0 0 
U 3 90 float
0.506884 0.00125948 0 0.5068 0.00124002 0 0.506715 0.00121951 0 0.506628 0.00119791
0 0.506541 0.00117517 0 0.506453 0.00115122 0 0.506364 0.001126 0
0.506276 0.00109945 0 0.506187 0.00107151 0 0.506099 0.00104211 0 0.506012
0.00101119 0 0.505925 0.000978674 0 0.50584 0.000944485 0 0.505756 0.000908549
0 0.505674 0.000870791 0 0.505594 0.00083113 0 0.505516 0.000789485 0
0.505441 0.000745771 0 0.505369 0.000699905 0 0.5053 0.000651804 0 0.505235
0.000601383 0 0.505174 0.000548557 0 0.505117 0.000493242 0 0.505066 0.000435356
0 0.505019 0.00037481 0 0.504979 0.000311516 0 0.504945 0.000245472 0
0.504919 0.000177137 0 0.504897 0.000103574 0 0.504671 3.23034e-05 0 0.0168746
2.04836e-06 0 0.051263 1.36109e-05 0 0.0868677 3.94657e-05 0 0.12356 7.84751e-05
0 0.161138 0.000131658 0 0.199314 0.000200344 0 0.237695 0.000285494 0
0.275769 0.000387402 0 0.312902 0.000505295 0 0.34835 0.000636896 0 0.381307
0.000778157 0 0.41098 0.000923297 0 0.436692 0.00106529 0 0.458 0.0011968
0 0.474781 0.00131143 0 0.487258 0.00140489 0 0.495966 0.00147572 0
0.501637 0.00152528 0 0.505064 0.00155706 0 0.506975 0.00157549 0 0.507955
0.00158493 0 0.508413 0.0015889 0 0.508607 0.00158985 0 0.508679 0.00158926
0 0.5087 0.00158789 0 0.508701 0.0015861 0 0.508693 0.00158403 0
0.508682 0.00158173 0 0.508669 0.00157919 0 0.508654 0.00157641 0 0.508637
0.00157338 0 0.508618 0.00157008 0 0.508597 0.00156651 0 0.508574 0.00156264
0 0.508549 0.00155846 0 0.508522 0.00155395 0 0.508492 0.00154909 0
0.50846 0.00154387 0 0.508425 0.00153826 0 0.508388 0.00153223 0 0.508348
0.00152578 0 0.508304 0.00151886 0 0.508258 0.00151146 0 0.508209 0.00150356
0 0.508156 0.00149511 0 0.5081 0.0014861 0 0.508041 0.00147649 0
0.507978 0.00146624 0 0.507912 0.00145533 0 0.507842 0.00144372 0 0.507769
0.00143138 0 0.507693 0.00141825 0 0.507613 0.0014043 0 0.50753 0.00138949
0 0.507444 0.00137377 0 0.507355 0.00135709 0 0.507264 0.00133941 0
0.50717 0.00132067 0 0.507074 0.0013008 0 0.506976 0.00127975 0 
POINT_DATA  182
FIELD attributes 2
p 1 182 float
0 0 0 0 0 0 0 0 0 0 0
0 0 0 0 0 0 0 0 0 0
0 0 0 0 0 0 0 0 0 0
0 0 0 0 0 0 0 0 0 0
0 0 0 0 0 0 0 0 0 0
0 0 0 0 0 0 0 0 0 0
0 0 0 0 0 0 0 0 0 0
0 0 0 0 0 0 0 0 0 0
0 0 0 0 0 0 0 0 0 0
0 0 0 0 0 0 0 0 0 0
0 0 0 0 0 0 0 0 0 0
0 0 0 0 0 0 0 0 0 0
0 0 0 0 0 0 0 0 0 0
0 0 0 0 0 0 0 0 0 0
0 0 0 0 0 0 0 0 0 0
0 0 0 0 0 0 0 0 0 0
0 0 0 0 0 0 0 0 0 0
0 0 0 0 0 0 0 0 0 0
0 
U 3 182 float
0.506929 0.00126933 0 0.506843 0.00124982 0 0.506843 0.00124982 0 0.506929 0.00126933
0 0.506758 0.00122984 0 0.506758 0.00122984 0 0.506672 0.00120879 0
0.506672 0.00120879 0 0.506585 0.00118663 0 0.506585 0.00118663 0 0.506497
0.00116329 0 0.506497 0.00116329 0 0.506409 0.00113871 0 0.506409 0.00113871
0 0.506321 0.00111284 0 0.506321 0.00111284 0 0.506232 0.00108561 0
0.506232 0.00108561 0 0.506144 0.00105695 0 0.506144 0.00105695 0 0.506056
0.00102681 0 0.506056 0.00102681 0 0.505969 0.0009951 0 0.505969 0.0009951
0 0.505883 0.000961761 0 0.505883 0.000961761 0 0.505799 0.000926714 0
0.505799 0.000926714 0 0.505716 0.000889884 0 0.505716 0.000889884 0 0.505634
0.000851192 0 0.505634 0.000851192 0 0.505556 0.000810557 0 0.505556 0.000810557
0 0.505479 0.000767897 0 0.505479 0.000767897 0 0.505405 0.000723128 0
0.505405 0.000723128 0 0.505335 0.000676166 0 0.505335 0.000676166 0 0.505268
0.000626928 0 0.505268 0.000626928 0 0.505205 0.000575328 0 0.505205 0.000575328
0 0.505146 0.000521283 0 0.505146 0.000521283 0 0.505092 0.000464708 0
0.505092 0.000464708 0 0.505043 0.000405518 0 0.505043 0.000405518 0 0.505
0.000343626 0 0.505 0.000343626 0 0.504963 0.000278986 0 0.504963 0.000278986
0 0.504932 0.000211821 0 0.504932 0.000211821 0 0.504908 0.00014092 0
0.504908 0.00014092 0 0.504786 6.84935e-05 0 0.504786 6.84935e-05 0 0.504671
3.23034e-05 0 0.504671 3.23034e-05 0 0.0168746 2.04836e-06 0 0.0340663 7.82881e-06
0 0.0340663 7.82881e-06 0 0.0168746 2.04836e-06 0 0.0690626 2.65363e-05 0
0.0690626 2.65363e-05 0 0.105211 5.89671e-05 0 0.105211 5.89671e-05 0 0.142346
0.000105062 0 0.142346 0.000105062 0 0.180223 0.000165994 0 0.180223 0.000165994
0 0.218501 0.00024291 0 0.218501 0.00024291 0 0.256728 0.000336436 0
0.256728 0.000336436 0 0.294331 0.000446334 0 0.294331 0.000446334 0 0.330621
0.000571078 0 0.330621 0.000571078 0 0.364824 0.000707506 0 0.364824 0.000707506
0 0.396139 0.000850704 0 0.396139 0.000850704 0 0.423831 0.000994268 0
0.423831 0.000994268 0 0.447342 0.00113102 0 0.447342 0.00113102 0 0.466387
0.00125409 0 0.466387 0.00125409 0 0.481017 0.00135814 0 0.481017 0.00135814
0 0.49161 0.00144028 0 0.49161 0.00144028 0 0.4988 0.00150049 0
0.4988 0.00150049 0 0.503349 0.00154116 0 0.503349 0.00154116 0 0.506019
0.00156627 0 0.506019 0.00156627 0 0.507465 0.0015802 0 0.507465 0.0015802
0 0.508184 0.00158691 0 0.508184 0.00158691 0 0.50851 0.00158937 0
0.50851 0.00158937 0 0.508643 0.00158955 0 0.508643 0.00158955 0 0.50869
0.00158858 0 0.50869 0.00158858 0 0.5087 0.001587 0 0.5087 0.001587
0 0.508697 0.00158507 0 0.508697 0.00158507 0 0.508688 0.00158288 0
0.508688 0.00158288 0 0.508676 0.00158046 0 0.508676 0.00158046 0 0.508661
0.0015778 0 0.508661 0.0015778 0 0.508645 0.00157489 0 0.508645 0.00157489
0 0.508627 0.00157173 0 0.508627 0.00157173 0 0.508607 0.0015683 0
0.508607 0.0015683 0 0.508585 0.00156458 0 0.508585 0.00156458 0 0.508561
0.00156055 0 0.508561 0.00156055 0 0.508535 0.00155621 0 0.508535 0.00155621
0 0.508507 0.00155153 0 0.508507 0.00155153 0 0.508476 0.00154649 0
0.508476 0.00154649 0 0.508443 0.00154107 0 0.508443 0.00154107 0 0.508407
0.00153525 0 0.508407 0.00153525 0 0.508368 0.00152901 0 0.508368 0.00152901
0 0.508326 0.00152233 0 0.508326 0.00152233 0 0.508281 0.00151517 0
0.508281 0.00151517 0 0.508234 0.00150752 0 0.508234 0.00150752 0 0.508183
0.00149935 0 0.508183 0.00149935 0 0.508128 0.00149062 0 0.508128 0.00149062
0 0.508071 0.00148131 0 0.508071 0.00148131 0 0.50801 0.00147139 0
0.50801 0.00147139 0 0.507945 0.00146081 0 0.507945 0.00146081 0 0.507877
0.00144956 0 0.507877 0.00144956 0 0.507806 0.00143758 0 0.507806 0.00143758
0 0.507731 0.00142485 0 0.507731 0.00142485 0 0.507653 0.00141131 0
0.507653 0.00141131 0 0.507572 0.00139694 0 0.507572 0.00139694 0 0.507488
0.00138168 0 0.507488 0.00138168 0 0.5074 0.00136548 0 0.5074 0.00136548
0 0.50731 0.00134831 0 0.50731 0.00134831 0 0.507217 0.0013301 0
0.507217 0.0013301 0 0.507122 0.00131081 0 0.507122 0.00131081 0 0.507025
0.00129036 0 0.507025 0.00129036 0 
