# vtk DataFile Version 2.0
outlet
ASCII
DATASET POLYDATA
POINTS 182 float
0.1 0.02 0 0.1 0.0207299 0 0.1 0.0207299 0.001 0.1 0.02
0.001 0.1 0.021488 0 0.1 0.021488 0.001 0.1 0.0222754 0
0.1 0.0222754 0.001 0.1 0.0230932 0 0.1 0.0230932 0.001 0.1
0.0239425 0 0.1 0.0239425 0.001 0.1 0.0248247 0 0.1 0.0248247
0.001 0.1 0.0257409 0 0.1 0.0257409 0.001 0.1 0.0266925 0
0.1 0.0266925 0.001 0.1 0.0276808 0 0.1 0.0276808 0.001 0.1
0.0287073 0 0.1 0.0287073 0.001 0.1 0.0297734 0 0.1 0.0297734
0.001 0.1 0.0308807 0 0.1 0.0308807 0.001 0.1 0.0320307 0
0.1 0.0320307 0.001 0.1 0.0332251 0 0.1 0.0332251 0.001 0.1
0.0344656 0 0.1 0.0344656 0.001 0.1 0.0357541 0 0.1 0.0357541
0.001 0.1 0.0370923 0 0.1 0.0370923 0.001 0.1 0.0384821 0
0.1 0.0384821 0.001 0.1 0.0399257 0 0.1 0.0399257 0.001 0.1
0.0414249 0 0.1 0.0414249 0.001 0.1 0.042982 0 0.1 0.042982
0.001 0.1 0.0445993 0 0.1 0.0445993 0.001 0.1 0.046279 0
0.1 0.046279 0.001 0.1 0.0480236 0 0.1 0.0480236 0.001 0.1
0.0498355 0 0.1 0.0498355 0.001 0.1 0.0517173 0 0.1 0.0517173
0.001 0.1 0.0536719 0 0.1 0.0536719 0.001 0.1 0.0557019 0
0.1 0.0557019 0.001 0.1 0.0578102 0 0.1 0.0578102 0.001 0.1
0.06 0 0.1 0.06 0.001 0.1 0 0 0.1 8.46956e-05
0 0.1 8.46956e-05 0.001 0.1 0 0.001 0.1 0.000172762 0
0.1 0.000172762 0.001 0.1 0.000264333 0 0.1 0.000264333 0.001 0.1
0.000359549 0 0.1 0.000359549 0.001 0.1 0.000458554 0 0.1 0.000458554
0.001 0.1 0.0005615 0 0.1 0.0005615 0.001 0.1 0.000668542 0
0.1 0.000668542 0.001 0.1 0.000779845 0 0.1 0.000779845 0.001 0.1
0.000895577 0 0.1 0.000895577 0.001 0.1 0.00101591 0 0.1 0.00101591
0.001 0.1 0.00114104 0 0.1 0.00114104 0.001 0.1 0.00127115 0
0.1 0.00127115 0.001 0.1 0.00140644 0 0.1 0.00140644 0.001 0.1
0.0015471 0 0.1 0.0015471 0.001 0.1 0.00169337 0 0.1 0.00169337
0.001 0.1 0.00184546 0 0.1 0.00184546 0.001 0.1 0.0020036 0
0.1 0.0020036 0.001 0.1 0.00216804 0 0.1 0.00216804 0.001 0.1
0.00233902 0 0.1 0.00233902 0.001 0.1 0.00251681 0 0.1 0.00251681
0.001 0.1 0.00270167 0 0.1 0.00270167 0.001 0.1 0.00289388 0
0.1 0.00289388 0.001 0.1 0.00309375 0 0.1 0.00309375 0.001 0.1
0.00330157 0 0.1 0.00330157 0.001 0.1 0.00351767 0 0.1 0.00351767
0.001 0.1 0.00374236 0 0.1 0.00374236 0.001 0.1 0.00397599 0
0.1 0.00397599 0.001 0.1 0.00421893 0 0.1 0.00421893 0.001 0.1
0.00447153 0 0.1 0.00447153 0.001 0.1 0.00473419 0 0.1 0.00473419
0.001 0.1 0.0050073 0 0.1 0.0050073 0.001 0.1 0.00529127 0
0.1 0.00529127 0.001 0.1 0.00558655 0 0.1 0.00558655 0.001 0.1
0.00589359 0 0.1 0.00589359 0.001 0.1 0.00621284 0 0.1 0.00621284
0.001 0.1 0.00654479 0 0.1 0.00654479 0.001 0.1 0.00688996 0
0.1 0.00688996 0.001 0.1 0.00724887 0 0.1 0.00724887 0.001 0.1
0.00762206 0 0.1 0.00762206 0.001 0.1 0.0080101 0 0.1 0.0080101
0.001 0.1 0.00841358 0 0.1 0.00841358 0.001 0.1 0.00883312 0
0.1 0.00883312 0.001 0.1 0.00926936 0 0.1 0.00926936 0.001 0.1
0.00972297 0 0.1 0.00972297 0.001 0.1 0.0101946 0 0.1 0.0101946
0.001 0.1 0.010685 0 0.1 0.010685 0.001 0.1 0.011195 0
0.1 0.011195 0.001 0.1 0.0117252 0 0.1 0.0117252 0.001 0.1
0.0122766 0 0.1 0.0122766 0.001 0.1 0.0128499 0 0.1 0.0128499
0.001 0.1 0.013446 0 0.1 0.013446 0.001 0.1 0.0140658 0
0.1 0.0140658 0.001 0.1 0.0147103 0 0.1 0.0147103 0.001 0.1
0.0153804 0 0.1 0.0153804 0.001 0.1 0.0160772 0 0.1 0.0160772
0.001 0.1 0.0168018 0 0.1 0.0168018 0.001 0.1 0.0175551 0
0.1 0.0175551 0.001 0.1 0.0183385 0 0.1 0.0183385 0.001 0.1
0.019153 0 0.1 0.019153 0.001 
POLYGONS 90 450
4 0 1 2 3 4 1 4 5 2 4
4 6 7 5 4 6 8 9 7 4
8 10 11 9 4 10 12 13 11 4
12 14 15 13 4 14 16 17 15 4
16 18 19 17 4 18 20 21 19 4
20 22 23 21 4 22 24 25 23 4
24 26 27 25 4 26 28 29 27 4
28 30 31 29 4 30 32 33 31 4
32 34 35 33 4 34 36 37 35 4
36 38 39 37 4 38 40 41 39 4
40 42 43 41 4 42 44 45 43 4
44 46 47 45 4 46 48 49 47 4
48 50 51 49 4 50 52 53 51 4
52 54 55 53 4 54 56 57 55 4
56 58 59 57 4 58 60 61 59 4
62 63 64 65 4 63 66 67 64 4
66 68 69 67 4 68 70 71 69 4
70 72 73 71 4 72 74 75 73 4
74 76 77 75 4 76 78 79 77 4
78 80 81 79 4 80 82 83 81 4
82 84 85 83 4 84 86 87 85 4
86 88 89 87 4 88 90 91 89 4
90 92 93 91 4 92 94 95 93 4
94 96 97 95 4 96 98 99 97 4
98 100 101 99 4 100 102 103 101 4
102 104 105 103 4 104 106 107 105 4
106 108 109 107 4 108 110 111 109 4
110 112 113 111 4 112 114 115 113 4
114 116 117 115 4 116 118 119 117 4
118 120 121 119 4 120 122 123 121 4
122 124 125 123 4 124 126 127 125 4
126 128 129 127 4 128 130 131 129 4
130 132 133 131 4 132 134 135 133 4
134 136 137 135 4 136 138 139 137 4
138 140 141 139 4 140 142 143 141 4
142 144 145 143 4 144 146 147 145 4
146 148 149 147 4 148 150 151 149 4
150 152 153 151 4 152 154 155 153 4
154 156 157 155 4 156 158 159 157 4
158 160 161 159 4 160 162 163 161 4
162 164 165 163 4 164 166 167 165 4
166 168 169 167 4 168 170 171 169 4
170 172 173 171 4 172 174 175 173 4
174 176 177 175 4 176 178 179 177 4
178 180 181 179 4 180 0 3 181 
CELL_DATA 90
FIELD attributes 3
patchID 1 90 float
2 2 2 2 2 2 2 2 2 2 2
2 2 2 2 2 2 2 2 2 2
2 2 2 2 2 2 2 2 2 2
2 2 2 2 2 2 2 2 2 2
2 2 2 2 2 2 2 2 2 2
2 2 2 2 2 2 2 2 2 2
2 2 2 2 2 2 2 2 2 2
2 2 2 2 2 2 2 2 2 2
2 2 2 2 2 2 2 2 2 
p 1 90 float
0 0 0 0 0 0 0 0 0 0 0
0 0 0 0 0 0 0 0 0 0
0 0 0 0 0 0 0 0 0 0
0 0 0 0 0 0 0 0 0 0
0 0 0 0 0 0 0 0 0 0
0 0 0 0 0 0 0 0 0 0
0 0 0 0 0 0 0 0 0 0
0 0 0 0 0 0 0 0 0 0
0 0 0 0 0 0 0 0 0 
U 3 90 float
0.503039 4.72553e-05 0 0.503038 4.82656e-05 0 0.503036 4.92345e-05 0 0.503035 5.01511e-05
0 0.503033 5.10052e-05 0 0.503031 5.17851e-05 0 0.50303 5.24779e-05 0
0.503028 5.30697e-05 0 0.503026 5.35454e-05 0 0.503024 5.38886e-05 0 0.503021
5.40818e-05 0 0.503019 5.41063e-05 0 0.503017 5.39421e-05 0 0.503014 5.35684e-05
0 0.503012 5.29633e-05 0 0.503009 5.21043e-05 0 0.503007 5.09683e-05 0
0.503004 4.95321e-05 0 0.503001 4.77726e-05 0 0.502999 4.56677e-05 0 0.502996
4.31963e-05 0 0.502993 4.03394e-05 0 0.502991 3.7081e-05 0 0.502989 3.34089e-05
0 0.502986 2.93158e-05 0 0.502985 2.48011e-05 0 0.502983 1.98692e-05 0
0.502982 1.45525e-05 0 0.50298 8.80349e-06 0 0.502901 2.90012e-06 0 0.0383083
1.82843e-09 0 0.11494 1.37268e-08 0 0.190068 4.26089e-08 0 0.260543 9.05023e-08
0 0.32348 1.62861e-07 0 0.376701 2.6625e-07 0 0.419073 4.06851e-07 0
0.450649 5.89313e-07 0 0.472543 8.15707e-07 0 0.486582 1.08502e-06 0 0.494858
1.39352e-06 0 0.499318 1.73585e-06 0 0.501503 2.10642e-06 0 0.502472 2.50057e-06
0 0.502859 2.91511e-06 0 0.502997 3.34829e-06 0 0.503042 3.79949e-06 0
0.503054 4.26875e-06 0 0.503058 4.75648e-06 0 0.503058 5.26327e-06 0 0.503059
5.78975e-06 0 0.503058 6.3366e-06 0 0.503058 6.90453e-06 0 0.503058 7.49424e-06
0 0.503058 8.10645e-06 0 0.503058 8.7419e-06 0 0.503058 9.40131e-06 0
0.503058 1.00854e-05 0 0.503058 1.0795e-05 0 0.503058 1.15307e-05 0 0.503058
1.22933e-05 0 0.503058 1.30835e-05 0 0.503058 1.3902e-05 0 0.503057 1.47493e-05
0 0.503057 1.56263e-05 0 0.503057 1.65333e-05 0 0.503057 1.74709e-05 0
0.503057 1.84395e-05 0 0.503056 1.94396e-05 0 0.503056 2.04713e-05 0 0.503056
2.15347e-05 0 0.503055 2.26299e-05 0 0.503055 2.37568e-05 0 0.503055 2.49149e-05
0 0.503054 2.61036e-05 0 0.503054 2.73223e-05 0 0.503053 2.85697e-05 0
0.503053 2.98445e-05 0 0.503052 3.11448e-05 0 0.503051 3.24686e-05 0 0.50305
3.38132e-05 0 0.50305 3.51753e-05 0 0.503049 3.65513e-05 0 0.503048 3.79369e-05
0 0.503047 3.93268e-05 0 0.503046 4.07153e-05 0 0.503045 4.20956e-05 0
0.503043 4.34599e-05 0 0.503042 4.48001e-05 0 0.50304 4.61046e-05 0 
POINT_DATA  182
FIELD attributes 2
p 1 182 float
0 0 0 0 0 0 0 0 0 0 0
0 0 0 0 0 0 0 0 0 0
0 0 0 0 0 0 0 0 0 0
0 0 0 0 0 0 0 0 0 0
0 0 0 0 0 0 0 0 0 0
0 0 0 0 0 0 0 0 0 0
0 0 0 0 0 0 0 0 0 0
0 0 0 0 0 0 0 0 0 0
0 0 0 0 0 0 0 0 0 0
0 0 0 0 0 0 0 0 0 0
0 0 0 0 0 0 0 0 0 0
0 0 0 0 0 0 0 0 0 0
0 0 0 0 0 0 0 0 0 0
0 0 0 0 0 0 0 0 0 0
0 0 0 0 0 0 0 0 0 0
0 0 0 0 0 0 0 0 0 0
0 0 0 0 0 0 0 0 0 0
0 0 0 0 0 0 0 0 0 0
0 
U 3 182 float
0.50304 4.66963e-05 0 0.503038 4.7757e-05 0 0.503038 4.7757e-05 0 0.50304 4.66963e-05
0 0.503037 4.87466e-05 0 0.503037 4.87466e-05 0 0.503035 4.96894e-05 0
0.503035 4.96894e-05 0 0.503034 5.05748e-05 0 0.503034 5.05748e-05 0 0.503032
5.1392e-05 0 0.503032 5.1392e-05 0 0.50303 5.21285e-05 0 0.50303 5.21285e-05
0 0.503029 5.27712e-05 0 0.503029 5.27712e-05 0 0.503027 5.33054e-05 0
0.503027 5.33054e-05 0 0.503025 5.37154e-05 0 0.503025 5.37154e-05 0 0.503022
5.39843e-05 0 0.503022 5.39843e-05 0 0.50302 5.40939e-05 0 0.50302 5.40939e-05
0 0.503018 5.40251e-05 0 0.503018 5.40251e-05 0 0.503015 5.37573e-05 0
0.503015 5.37573e-05 0 0.503013 5.32693e-05 0 0.503013 5.32693e-05 0 0.50301
5.25388e-05 0 0.50301 5.25388e-05 0 0.503008 5.15431e-05 0 0.503008 5.15431e-05
0 0.503005 5.0259e-05 0 0.503005 5.0259e-05 0 0.503003 4.86635e-05 0
0.503003 4.86635e-05 0 0.503 4.67338e-05 0 0.503 4.67338e-05 0 0.502997
4.44484e-05 0 0.502997 4.44484e-05 0 0.502995 4.17872e-05 0 0.502995 4.17872e-05
0 0.502992 3.87328e-05 0 0.502992 3.87328e-05 0 0.50299 3.52709e-05 0
0.50299 3.52709e-05 0 0.502988 3.13918e-05 0 0.502988 3.13918e-05 0 0.502986
2.70915e-05 0 0.502986 2.70915e-05 0 0.502984 2.23719e-05 0 0.502984 2.23719e-05
0 0.502982 1.7251e-05 0 0.502982 1.7251e-05 0 0.502981 1.17221e-05 0
0.502981 1.17221e-05 0 0.502941 5.89776e-06 0 0.502941 5.89776e-06 0 0.502901
2.90012e-06 0 0.502901 2.90012e-06 0 0.0383083 1.82843e-09 0 0.0766187 7.77675e-09
0 0.0766187 7.77675e-09 0 0.0383083 1.82843e-09 0 0.152498 2.81656e-08 0
0.152498 2.81656e-08 0 0.225299 6.65516e-08 0 0.225299 6.65516e-08 0 0.292006
1.26675e-07 0 0.292006 1.26675e-07 0 0.350085 2.14545e-07 0 0.350085 2.14545e-07
0 0.397882 3.36535e-07 0 0.397882 3.36535e-07 0 0.434857 4.98061e-07 0
0.434857 4.98061e-07 0 0.461593 7.02482e-07 0 0.461593 7.02482e-07 0 0.479561
9.50328e-07 0 0.479561 9.50328e-07 0 0.490719 1.23923e-06 0 0.490719 1.23923e-06
0 0.497087 1.56463e-06 0 0.497087 1.56463e-06 0 0.50041 1.92107e-06 0
0.50041 1.92107e-06 0 0.501988 2.30342e-06 0 0.501988 2.30342e-06 0 0.502665
2.70776e-06 0 0.502665 2.70776e-06 0 0.502928 3.13161e-06 0 0.502928 3.13161e-06
0 0.50302 3.57379e-06 0 0.50302 3.57379e-06 0 0.503048 4.03401e-06 0
0.503048 4.03401e-06 0 0.503056 4.51249e-06 0 0.503056 4.51249e-06 0 0.503058
5.00973e-06 0 0.503058 5.00973e-06 0 0.503058 5.52634e-06 0 0.503058 5.52634e-06
0 0.503059 6.06299e-06 0 0.503059 6.06299e-06 0 0.503058 6.62036e-06 0
0.503058 6.62036e-06 0 0.503058 7.19915e-06 0 0.503058 7.19915e-06 0 0.503058
7.80009e-06 0 0.503058 7.80009e-06 0 0.503058 8.42389e-06 0 0.503058 8.42389e-06
0 0.503058 9.07129e-06 0 0.503058 9.07129e-06 0 0.503058 9.74301e-06 0
0.503058 9.74301e-06 0 0.503058 1.04398e-05 0 0.503058 1.04398e-05 0 0.503058
1.11624e-05 0 0.503058 1.11624e-05 0 0.503058 1.19115e-05 0 0.503058 1.19115e-05
0 0.503058 1.26879e-05 0 0.503058 1.26879e-05 0 0.503058 1.34921e-05 0
0.503058 1.34921e-05 0 0.503057 1.4325e-05 0 0.503057 1.4325e-05 0 0.503057
1.5187e-05 0 0.503057 1.5187e-05 0 0.503057 1.60789e-05 0 0.503057 1.60789e-05
0 0.503057 1.70011e-05 0 0.503057 1.70011e-05 0 0.503057 1.79542e-05 0
0.503057 1.79542e-05 0 0.503056 1.89384e-05 0 0.503056 1.89384e-05 0 0.503056
1.99541e-05 0 0.503056 1.99541e-05 0 0.503056 2.10016e-05 0 0.503056 2.10016e-05
0 0.503056 2.20808e-05 0 0.503056 2.20808e-05 0 0.503055 2.31916e-05 0
0.503055 2.31916e-05 0 0.503055 2.43339e-05 0 0.503055 2.43339e-05 0 0.503054
2.55072e-05 0 0.503054 2.55072e-05 0 0.503054 2.67107e-05 0 0.503054 2.67107e-05
0 0.503053 2.79435e-05 0 0.503053 2.79435e-05 0 0.503053 2.92044e-05 0
0.503053 2.92044e-05 0 0.503052 3.04918e-05 0 0.503052 3.04918e-05 0 0.503052
3.18036e-05 0 0.503052 3.18036e-05 0 0.503051 3.31376e-05 0 0.503051 3.31376e-05
0 0.50305 3.44906e-05 0 0.50305 3.44906e-05 0 0.503049 3.58595e-05 0
0.503049 3.58595e-05 0 0.503048 3.724e-05 0 0.503048 3.724e-05 0 0.503047
3.86275e-05 0 0.503047 3.86275e-05 0 0.503046 4.00165e-05 0 0.503046 4.00165e-05
0 0.503045 4.14007e-05 0 0.503045 4.14007e-05 0 0.503044 4.27728e-05 0
0.503044 4.27728e-05 0 0.503043 4.41249e-05 0 0.503043 4.41249e-05 0 0.503041
4.54472e-05 0 0.503041 4.54472e-05 0 
