# vtk DataFile Version 2.0
outlet
ASCII
DATASET POLYDATA
POINTS 182 float
0.1 0.02 0 0.1 0.0207299 0 0.1 0.0207299 0.001 0.1 0.02
0.001 0.1 0.021488 0 0.1 0.021488 0.001 0.1 0.0222754 0
0.1 0.0222754 0.001 0.1 0.0230932 0 0.1 0.0230932 0.001 0.1
0.0239425 0 0.1 0.0239425 0.001 0.1 0.0248247 0 0.1 0.0248247
0.001 0.1 0.0257409 0 0.1 0.0257409 0.001 0.1 0.0266925 0
0.1 0.0266925 0.001 0.1 0.0276808 0 0.1 0.0276808 0.001 0.1
0.0287073 0 0.1 0.0287073 0.001 0.1 0.0297734 0 0.1 0.0297734
0.001 0.1 0.0308807 0 0.1 0.0308807 0.001 0.1 0.0320307 0
0.1 0.0320307 0.001 0.1 0.0332251 0 0.1 0.0332251 0.001 0.1
0.0344656 0 0.1 0.0344656 0.001 0.1 0.0357541 0 0.1 0.0357541
0.001 0.1 0.0370923 0 0.1 0.0370923 0.001 0.1 0.0384821 0
0.1 0.0384821 0.001 0.1 0.0399257 0 0.1 0.0399257 0.001 0.1
0.0414249 0 0.1 0.0414249 0.001 0.1 0.042982 0 0.1 0.042982
0.001 0.1 0.0445993 0 0.1 0.0445993 0.001 0.1 0.046279 0
0.1 0.046279 0.001 0.1 0.0480236 0 0.1 0.0480236 0.001 0.1
0.0498355 0 0.1 0.0498355 0.001 0.1 0.0517173 0 0.1 0.0517173
0.001 0.1 0.0536719 0 0.1 0.0536719 0.001 0.1 0.0557019 0
0.1 0.0557019 0.001 0.1 0.0578102 0 0.1 0.0578102 0.001 0.1
0.06 0 0.1 0.06 0.001 0.1 0 0 0.1 8.46956e-05
0 0.1 8.46956e-05 0.001 0.1 0 0.001 0.1 0.000172762 0
0.1 0.000172762 0.001 0.1 0.000264333 0 0.1 0.000264333 0.001 0.1
0.000359549 0 0.1 0.000359549 0.001 0.1 0.000458554 0 0.1 0.000458554
0.001 0.1 0.0005615 0 0.1 0.0005615 0.001 0.1 0.000668542 0
0.1 0.000668542 0.001 0.1 0.000779845 0 0.1 0.000779845 0.001 0.1
0.000895577 0 0.1 0.000895577 0.001 0.1 0.00101591 0 0.1 0.00101591
0.001 0.1 0.00114104 0 0.1 0.00114104 0.001 0.1 0.00127115 0
0.1 0.00127115 0.001 0.1 0.00140644 0 0.1 0.00140644 0.001 0.1
0.0015471 0 0.1 0.0015471 0.001 0.1 0.00169337 0 0.1 0.00169337
0.001 0.1 0.00184546 0 0.1 0.00184546 0.001 0.1 0.0020036 0
0.1 0.0020036 0.001 0.1 0.00216804 0 0.1 0.00216804 0.001 0.1
0.00233902 0 0.1 0.00233902 0.001 0.1 0.00251681 0 0.1 0.00251681
0.001 0.1 0.00270167 0 0.1 0.00270167 0.001 0.1 0.00289388 0
0.1 0.00289388 0.001 0.1 0.00309375 0 0.1 0.00309375 0.001 0.1
0.00330157 0 0.1 0.00330157 0.001 0.1 0.00351767 0 0.1 0.00351767
0.001 0.1 0.00374236 0 0.1 0.00374236 0.001 0.1 0.00397599 0
0.1 0.00397599 0.001 0.1 0.00421893 0 0.1 0.00421893 0.001 0.1
0.00447153 0 0.1 0.00447153 0.001 0.1 0.00473419 0 0.1 0.00473419
0.001 0.1 0.0050073 0 0.1 0.0050073 0.001 0.1 0.00529127 0
0.1 0.00529127 0.001 0.1 0.00558655 0 0.1 0.00558655 0.001 0.1
0.00589359 0 0.1 0.00589359 0.001 0.1 0.00621284 0 0.1 0.00621284
0.001 0.1 0.00654479 0 0.1 0.00654479 0.001 0.1 0.00688996 0
0.1 0.00688996 0.001 0.1 0.00724887 0 0.1 0.00724887 0.001 0.1
0.00762206 0 0.1 0.00762206 0.001 0.1 0.0080101 0 0.1 0.0080101
0.001 0.1 0.00841358 0 0.1 0.00841358 0.001 0.1 0.00883312 0
0.1 0.00883312 0.001 0.1 0.00926936 0 0.1 0.00926936 0.001 0.1
0.00972297 0 0.1 0.00972297 0.001 0.1 0.0101946 0 0.1 0.0101946
0.001 0.1 0.010685 0 0.1 0.010685 0.001 0.1 0.011195 0
0.1 0.011195 0.001 0.1 0.0117252 0 0.1 0.0117252 0.001 0.1
0.0122766 0 0.1 0.0122766 0.001 0.1 0.0128499 0 0.1 0.0128499
0.001 0.1 0.013446 0 0.1 0.013446 0.001 0.1 0.0140658 0
0.1 0.0140658 0.001 0.1 0.0147103 0 0.1 0.0147103 0.001 0.1
0.0153804 0 0.1 0.0153804 0.001 0.1 0.0160772 0 0.1 0.0160772
0.001 0.1 0.0168018 0 0.1 0.0168018 0.001 0.1 0.0175551 0
0.1 0.0175551 0.001 0.1 0.0183385 0 0.1 0.0183385 0.001 0.1
0.019153 0 0.1 0.019153 0.001 
POLYGONS 90 450
4 0 1 2 3 4 1 4 5 2 4
4 6 7 5 4 6 8 9 7 4
8 10 11 9 4 10 12 13 11 4
12 14 15 13 4 14 16 17 15 4
16 18 19 17 4 18 20 21 19 4
20 22 23 21 4 22 24 25 23 4
24 26 27 25 4 26 28 29 27 4
28 30 31 29 4 30 32 33 31 4
32 34 35 33 4 34 36 37 35 4
36 38 39 37 4 38 40 41 39 4
40 42 43 41 4 42 44 45 43 4
44 46 47 45 4 46 48 49 47 4
48 50 51 49 4 50 52 53 51 4
52 54 55 53 4 54 56 57 55 4
56 58 59 57 4 58 60 61 59 4
62 63 64 65 4 63 66 67 64 4
66 68 69 67 4 68 70 71 69 4
70 72 73 71 4 72 74 75 73 4
74 76 77 75 4 76 78 79 77 4
78 80 81 79 4 80 82 83 81 4
82 84 85 83 4 84 86 87 85 4
86 88 89 87 4 88 90 91 89 4
90 92 93 91 4 92 94 95 93 4
94 96 97 95 4 96 98 99 97 4
98 100 101 99 4 100 102 103 101 4
102 104 105 103 4 104 106 107 105 4
106 108 109 107 4 108 110 111 109 4
110 112 113 111 4 112 114 115 113 4
114 116 117 115 4 116 118 119 117 4
118 120 121 119 4 120 122 123 121 4
122 124 125 123 4 124 126 127 125 4
126 128 129 127 4 128 130 131 129 4
130 132 133 131 4 132 134 135 133 4
134 136 137 135 4 136 138 139 137 4
138 140 141 139 4 140 142 143 141 4
142 144 145 143 4 144 146 147 145 4
146 148 149 147 4 148 150 151 149 4
150 152 153 151 4 152 154 155 153 4
154 156 157 155 4 156 158 159 157 4
158 160 161 159 4 160 162 163 161 4
162 164 165 163 4 164 166 167 165 4
166 168 169 167 4 168 170 171 169 4
170 172 173 171 4 172 174 175 173 4
174 176 177 175 4 176 178 179 177 4
178 180 181 179 4 180 0 3 181 
CELL_DATA 90
FIELD attributes 3
patchID 1 90 float
2 2 2 2 2 2 2 2 2 2 2
2 2 2 2 2 2 2 2 2 2
2 2 2 2 2 2 2 2 2 2
2 2 2 2 2 2 2 2 2 2
2 2 2 2 2 2 2 2 2 2
2 2 2 2 2 2 2 2 2 2
2 2 2 2 2 2 2 2 2 2
2 2 2 2 2 2 2 2 2 2
2 2 2 2 2 2 2 2 2 
p 1 90 float
0 0 0 0 0 0 0 0 0 0 0
0 0 0 0 0 0 0 0 0 0
0 0 0 0 0 0 0 0 0 0
0 0 0 0 0 0 0 0 0 0
0 0 0 0 0 0 0 0 0 0
0 0 0 0 0 0 0 0 0 0
0 0 0 0 0 0 0 0 0 0
0 0 0 0 0 0 0 0 0 0
0 0 0 0 0 0 0 0 0 
U 3 90 float
0.506972 0.0014175 0 0.506889 0.00139447 0 0.506805 0.00137031 0 0.506721 0.00134497
0 0.506635 0.00131839 0 0.506549 0.00129051 0 0.506462 0.00126127 0
0.506375 0.00123059 0 0.506289 0.00119843 0 0.506202 0.00116469 0 0.506117
0.00112932 0 0.506032 0.00109224 0 0.505948 0.00105336 0 0.505866 0.0010126
0 0.505785 0.000969893 0 0.505707 0.00092514 0 0.50563 0.000878258 0
0.505557 0.000829155 0 0.505486 0.000777743 0 0.505418 0.000723927 0 0.505354
0.000667617 0 0.505295 0.000608718 0 0.505239 0.000547138 0 0.505188 0.000482783
0 0.505143 0.000415557 0 0.505103 0.000345365 0 0.50507 0.000272186 0
0.505044 0.00019644 0 0.505023 0.000115155 0 0.504793 3.61237e-05 0 0.0164643
2.46663e-06 0 0.05 1.67659e-05 0 0.0847607 4.90772e-05 0 0.120675 9.80641e-05
0 0.157594 0.000164859 0 0.19527 0.000250733 0 0.233338 0.000356276 0
0.271295 0.000481142 0 0.308503 0.000623715 0 0.344202 0.000780745 0 0.377555
0.000947157 0 0.40773 0.00111617 0 0.434006 0.00127984 0 0.455892 0.00143012
0 0.473216 0.00156011 0 0.486167 0.00166531 0 0.495257 0.0017444 0
0.501211 0.00179911 0 0.504831 0.0018335 0 0.506864 0.00185266 0 0.507913
0.00186154 0 0.508408 0.00186416 0 0.50862 0.0018633 0 0.5087 0.00186065
0 0.508725 0.00185711 0 0.508727 0.00185307 0 0.508722 0.00184871 0
0.508712 0.00184406 0 0.5087 0.00183914 0 0.508686 0.00183394 0 0.50867
0.00182845 0 0.508652 0.00182266 0 0.508633 0.00181655 0 0.508611 0.0018101
0 0.508588 0.00180329 0 0.508562 0.00179612 0 0.508534 0.00178855 0
0.508503 0.00178056 0 0.50847 0.00177214 0 0.508435 0.00176326 0 0.508396
0.00175391 0 0.508355 0.00174404 0 0.50831 0.00173364 0 0.508263 0.00172267
0 0.508212 0.00171112 0 0.508158 0.00169894 0 0.5081 0.00168611 0
0.508039 0.00167259 0 0.507975 0.00165834 0 0.507907 0.00164333 0 0.507836
0.00162752 0 0.507762 0.00161087 0 0.507684 0.00159333 0 0.507603 0.00157487
0 0.507519 0.00155542 0 0.507432 0.00153494 0 0.507343 0.00151337 0
0.507251 0.00149068 0 0.507157 0.00146679 0 0.507061 0.00144162 0 
POINT_DATA  182
FIELD attributes 2
p 1 182 float
0 0 0 0 0 0 0 0 0 0 0
0 0 0 0 0 0 0 0 0 0
0 0 0 0 0 0 0 0 0 0
0 0 0 0 0 0 0 0 0 0
0 0 0 0 0 0 0 0 0 0
0 0 0 0 0 0 0 0 0 0
0 0 0 0 0 0 0 0 0 0
0 0 0 0 0 0 0 0 0 0
0 0 0 0 0 0 0 0 0 0
0 0 0 0 0 0 0 0 0 0
0 0 0 0 0 0 0 0 0 0
0 0 0 0 0 0 0 0 0 0
0 0 0 0 0 0 0 0 0 0
0 0 0 0 0 0 0 0 0 0
0 0 0 0 0 0 0 0 0 0
0 0 0 0 0 0 0 0 0 0
0 0 0 0 0 0 0 0 0 0
0 0 0 0 0 0 0 0 0 0
0 
U 3 182 float
0.507015 0.00142922 0 0.506931 0.00140606 0 0.506931 0.00140606 0 0.507015 0.00142922
0 0.506847 0.00138247 0 0.506847 0.00138247 0 0.506763 0.00135773 0
0.506763 0.00135773 0 0.506678 0.00133178 0 0.506678 0.00133178 0 0.506592
0.00130456 0 0.506592 0.00130456 0 0.506506 0.00127601 0 0.506506 0.00127601
0 0.506419 0.00124607 0 0.506419 0.00124607 0 0.506332 0.00121466 0
0.506332 0.00121466 0 0.506246 0.00118172 0 0.506246 0.00118172 0 0.50616
0.00114718 0 0.50616 0.00114718 0 0.506075 0.00111097 0 0.506075 0.00111097
0 0.50599 0.001073 0 0.50599 0.001073 0 0.505907 0.0010332 0
0.505907 0.0010332 0 0.505826 0.00099149 0 0.505826 0.00099149 0 0.505746
0.000947777 0 0.505746 0.000947777 0 0.505669 0.00090198 0 0.505669 0.00090198
0 0.505594 0.000854009 0 0.505594 0.000854009 0 0.505522 0.000803774 0
0.505522 0.000803774 0 0.505453 0.000751184 0 0.505453 0.000751184 0 0.505387
0.000696146 0 0.505387 0.000696146 0 0.505325 0.000638567 0 0.505325 0.000638567
0 0.505267 0.000578354 0 0.505267 0.000578354 0 0.505214 0.000515415 0
0.505214 0.000515415 0 0.505166 0.000449654 0 0.505166 0.000449654 0 0.505124
0.000380975 0 0.505124 0.000380975 0 0.505087 0.00030932 0 0.505087 0.00030932
0 0.505057 0.000234886 0 0.505057 0.000234886 0 0.505034 0.000156422 0
0.505034 0.000156422 0 0.50491 7.62546e-05 0 0.50491 7.62546e-05 0 0.504793
3.61237e-05 0 0.504793 3.61237e-05 0 0.0164643 2.46663e-06 0 0.0332297 9.61526e-06
0 0.0332297 9.61526e-06 0 0.0164643 2.46663e-06 0 0.0673776 3.29191e-05 0
0.0673776 3.29191e-05 0 0.102715 7.35666e-05 0 0.102715 7.35666e-05 0 0.139131
0.000131456 0 0.139131 0.000131456 0 0.176429 0.000207788 0 0.176429 0.000207788
0 0.2143 0.000303493 0 0.2143 0.000303493 0 0.252312 0.000418695 0
0.252312 0.000418695 0 0.289895 0.000552411 0 0.289895 0.000552411 0 0.326348
0.000702209 0 0.326348 0.000702209 0 0.360874 0.000863927 0 0.360874 0.000863927
0 0.392638 0.00103164 0 0.392638 0.00103164 0 0.420864 0.00119798 0
0.420864 0.00119798 0 0.444945 0.00135496 0 0.444945 0.00135496 0 0.46455
0.00149509 0 0.46455 0.00149509 0 0.479689 0.00161269 0 0.479689 0.00161269
0 0.49071 0.00170484 0 0.49071 0.00170484 0 0.498232 0.00177174 0
0.498232 0.00177174 0 0.50302 0.0018163 0 0.50302 0.0018163 0 0.505847
0.00184307 0 0.505847 0.00184307 0 0.507388 0.00185709 0 0.507388 0.00185709
0 0.50816 0.00186285 0 0.50816 0.00186285 0 0.508514 0.00186373 0
0.508514 0.00186373 0 0.50866 0.00186198 0 0.50866 0.00186198 0 0.508712
0.00185888 0 0.508712 0.00185888 0 0.508726 0.00185509 0 0.508726 0.00185509
0 0.508724 0.00185089 0 0.508724 0.00185089 0 0.508717 0.00184638 0
0.508717 0.00184638 0 0.508706 0.0018416 0 0.508706 0.0018416 0 0.508693
0.00183654 0 0.508693 0.00183654 0 0.508678 0.0018312 0 0.508678 0.0018312
0 0.508661 0.00182556 0 0.508661 0.00182556 0 0.508643 0.00181961 0
0.508643 0.00181961 0 0.508622 0.00181333 0 0.508622 0.00181333 0 0.5086
0.0018067 0 0.5086 0.0018067 0 0.508575 0.00179971 0 0.508575 0.00179971
0 0.508548 0.00179234 0 0.508548 0.00179234 0 0.508519 0.00178456 0
0.508519 0.00178456 0 0.508487 0.00177636 0 0.508487 0.00177636 0 0.508453
0.00176771 0 0.508453 0.00176771 0 0.508415 0.0017586 0 0.508415 0.0017586
0 0.508375 0.00174899 0 0.508375 0.00174899 0 0.508332 0.00173885 0
0.508332 0.00173885 0 0.508286 0.00172817 0 0.508286 0.00172817 0 0.508237
0.00171691 0 0.508237 0.00171691 0 0.508185 0.00170505 0 0.508185 0.00170505
0 0.508129 0.00169255 0 0.508129 0.00169255 0 0.50807 0.00167937 0
0.50807 0.00167937 0 0.508007 0.00166549 0 0.508007 0.00166549 0 0.507941
0.00165087 0 0.507941 0.00165087 0 0.507872 0.00163547 0 0.507872 0.00163547
0 0.507799 0.00161924 0 0.507799 0.00161924 0 0.507723 0.00160215 0
0.507723 0.00160215 0 0.507644 0.00158416 0 0.507644 0.00158416 0 0.507561
0.0015652 0 0.507561 0.0015652 0 0.507476 0.00154524 0 0.507476 0.00154524
0 0.507388 0.00152423 0 0.507388 0.00152423 0 0.507297 0.00150211 0
0.507297 0.00150211 0 0.507204 0.00147883 0 0.507204 0.00147883 0 0.507109
0.0014543 0 0.507109 0.0014543 0 
