# vtk DataFile Version 2.0
outlet
ASCII
DATASET POLYDATA
POINTS 182 float
0.1 0.02 0 0.1 0.0207299 0 0.1 0.0207299 0.001 0.1 0.02
0.001 0.1 0.021488 0 0.1 0.021488 0.001 0.1 0.0222754 0
0.1 0.0222754 0.001 0.1 0.0230932 0 0.1 0.0230932 0.001 0.1
0.0239425 0 0.1 0.0239425 0.001 0.1 0.0248247 0 0.1 0.0248247
0.001 0.1 0.0257409 0 0.1 0.0257409 0.001 0.1 0.0266925 0
0.1 0.0266925 0.001 0.1 0.0276808 0 0.1 0.0276808 0.001 0.1
0.0287073 0 0.1 0.0287073 0.001 0.1 0.0297734 0 0.1 0.0297734
0.001 0.1 0.0308807 0 0.1 0.0308807 0.001 0.1 0.0320307 0
0.1 0.0320307 0.001 0.1 0.0332251 0 0.1 0.0332251 0.001 0.1
0.0344656 0 0.1 0.0344656 0.001 0.1 0.0357541 0 0.1 0.0357541
0.001 0.1 0.0370923 0 0.1 0.0370923 0.001 0.1 0.0384821 0
0.1 0.0384821 0.001 0.1 0.0399257 0 0.1 0.0399257 0.001 0.1
0.0414249 0 0.1 0.0414249 0.001 0.1 0.042982 0 0.1 0.042982
0.001 0.1 0.0445993 0 0.1 0.0445993 0.001 0.1 0.046279 0
0.1 0.046279 0.001 0.1 0.0480236 0 0.1 0.0480236 0.001 0.1
0.0498355 0 0.1 0.0498355 0.001 0.1 0.0517173 0 0.1 0.0517173
0.001 0.1 0.0536719 0 0.1 0.0536719 0.001 0.1 0.0557019 0
0.1 0.0557019 0.001 0.1 0.0578102 0 0.1 0.0578102 0.001 0.1
0.06 0 0.1 0.06 0.001 0.1 0 0 0.1 8.46956e-05
0 0.1 8.46956e-05 0.001 0.1 0 0.001 0.1 0.000172762 0
0.1 0.000172762 0.001 0.1 0.000264333 0 0.1 0.000264333 0.001 0.1
0.000359549 0 0.1 0.000359549 0.001 0.1 0.000458554 0 0.1 0.000458554
0.001 0.1 0.0005615 0 0.1 0.0005615 0.001 0.1 0.000668542 0
0.1 0.000668542 0.001 0.1 0.000779845 0 0.1 0.000779845 0.001 0.1
0.000895577 0 0.1 0.000895577 0.001 0.1 0.00101591 0 0.1 0.00101591
0.001 0.1 0.00114104 0 0.1 0.00114104 0.001 0.1 0.00127115 0
0.1 0.00127115 0.001 0.1 0.00140644 0 0.1 0.00140644 0.001 0.1
0.0015471 0 0.1 0.0015471 0.001 0.1 0.00169337 0 0.1 0.00169337
0.001 0.1 0.00184546 0 0.1 0.00184546 0.001 0.1 0.0020036 0
0.1 0.0020036 0.001 0.1 0.00216804 0 0.1 0.00216804 0.001 0.1
0.00233902 0 0.1 0.00233902 0.001 0.1 0.00251681 0 0.1 0.00251681
0.001 0.1 0.00270167 0 0.1 0.00270167 0.001 0.1 0.00289388 0
0.1 0.00289388 0.001 0.1 0.00309375 0 0.1 0.00309375 0.001 0.1
0.00330157 0 0.1 0.00330157 0.001 0.1 0.00351767 0 0.1 0.00351767
0.001 0.1 0.00374236 0 0.1 0.00374236 0.001 0.1 0.00397599 0
0.1 0.00397599 0.001 0.1 0.00421893 0 0.1 0.00421893 0.001 0.1
0.00447153 0 0.1 0.00447153 0.001 0.1 0.00473419 0 0.1 0.00473419
0.001 0.1 0.0050073 0 0.1 0.0050073 0.001 0.1 0.00529127 0
0.1 0.00529127 0.001 0.1 0.00558655 0 0.1 0.00558655 0.001 0.1
0.00589359 0 0.1 0.00589359 0.001 0.1 0.00621284 0 0.1 0.00621284
0.001 0.1 0.00654479 0 0.1 0.00654479 0.001 0.1 0.00688996 0
0.1 0.00688996 0.001 0.1 0.00724887 0 0.1 0.00724887 0.001 0.1
0.00762206 0 0.1 0.00762206 0.001 0.1 0.0080101 0 0.1 0.0080101
0.001 0.1 0.00841358 0 0.1 0.00841358 0.001 0.1 0.00883312 0
0.1 0.00883312 0.001 0.1 0.00926936 0 0.1 0.00926936 0.001 0.1
0.00972297 0 0.1 0.00972297 0.001 0.1 0.0101946 0 0.1 0.0101946
0.001 0.1 0.010685 0 0.1 0.010685 0.001 0.1 0.011195 0
0.1 0.011195 0.001 0.1 0.0117252 0 0.1 0.0117252 0.001 0.1
0.0122766 0 0.1 0.0122766 0.001 0.1 0.0128499 0 0.1 0.0128499
0.001 0.1 0.013446 0 0.1 0.013446 0.001 0.1 0.0140658 0
0.1 0.0140658 0.001 0.1 0.0147103 0 0.1 0.0147103 0.001 0.1
0.0153804 0 0.1 0.0153804 0.001 0.1 0.0160772 0 0.1 0.0160772
0.001 0.1 0.0168018 0 0.1 0.0168018 0.001 0.1 0.0175551 0
0.1 0.0175551 0.001 0.1 0.0183385 0 0.1 0.0183385 0.001 0.1
0.019153 0 0.1 0.019153 0.001 
POLYGONS 90 450
4 0 1 2 3 4 1 4 5 2 4
4 6 7 5 4 6 8 9 7 4
8 10 11 9 4 10 12 13 11 4
12 14 15 13 4 14 16 17 15 4
16 18 19 17 4 18 20 21 19 4
20 22 23 21 4 22 24 25 23 4
24 26 27 25 4 26 28 29 27 4
28 30 31 29 4 30 32 33 31 4
32 34 35 33 4 34 36 37 35 4
36 38 39 37 4 38 40 41 39 4
40 42 43 41 4 42 44 45 43 4
44 46 47 45 4 46 48 49 47 4
48 50 51 49 4 50 52 53 51 4
52 54 55 53 4 54 56 57 55 4
56 58 59 57 4 58 60 61 59 4
62 63 64 65 4 63 66 67 64 4
66 68 69 67 4 68 70 71 69 4
70 72 73 71 4 72 74 75 73 4
74 76 77 75 4 76 78 79 77 4
78 80 81 79 4 80 82 83 81 4
82 84 85 83 4 84 86 87 85 4
86 88 89 87 4 88 90 91 89 4
90 92 93 91 4 92 94 95 93 4
94 96 97 95 4 96 98 99 97 4
98 100 101 99 4 100 102 103 101 4
102 104 105 103 4 104 106 107 105 4
106 108 109 107 4 108 110 111 109 4
110 112 113 111 4 112 114 115 113 4
114 116 117 115 4 116 118 119 117 4
118 120 121 119 4 120 122 123 121 4
122 124 125 123 4 124 126 127 125 4
126 128 129 127 4 128 130 131 129 4
130 132 133 131 4 132 134 135 133 4
134 136 137 135 4 136 138 139 137 4
138 140 141 139 4 140 142 143 141 4
142 144 145 143 4 144 146 147 145 4
146 148 149 147 4 148 150 151 149 4
150 152 153 151 4 152 154 155 153 4
154 156 157 155 4 156 158 159 157 4
158 160 161 159 4 160 162 163 161 4
162 164 165 163 4 164 166 167 165 4
166 168 169 167 4 168 170 171 169 4
170 172 173 171 4 172 174 175 173 4
174 176 177 175 4 176 178 179 177 4
178 180 181 179 4 180 0 3 181 
CELL_DATA 90
FIELD attributes 3
patchID 1 90 float
2 2 2 2 2 2 2 2 2 2 2
2 2 2 2 2 2 2 2 2 2
2 2 2 2 2 2 2 2 2 2
2 2 2 2 2 2 2 2 2 2
2 2 2 2 2 2 2 2 2 2
2 2 2 2 2 2 2 2 2 2
2 2 2 2 2 2 2 2 2 2
2 2 2 2 2 2 2 2 2 2
2 2 2 2 2 2 2 2 2 
p 1 90 float
0 0 0 0 0 0 0 0 0 0 0
0 0 0 0 0 0 0 0 0 0
0 0 0 0 0 0 0 0 0 0
0 0 0 0 0 0 0 0 0 0
0 0 0 0 0 0 0 0 0 0
0 0 0 0 0 0 0 0 0 0
0 0 0 0 0 0 0 0 0 0
0 0 0 0 0 0 0 0 0 0
0 0 0 0 0 0 0 0 0 
U 3 90 float
0.506337 0.000724783 0 0.506253 0.000718312 0 0.506167 0.000711141 0 0.506081 0.000703221
0 0.505994 0.000694471 0 0.505906 0.000684834 0 0.505819 0.000674268 0
0.505731 0.000662716 0 0.505643 0.000650103 0 0.505556 0.000636361 0 0.505469
0.000621429 0 0.505384 0.00060524 0 0.5053 0.000587719 0 0.505217 0.000568789
0 0.505136 0.000548378 0 0.505057 0.000526415 0 0.504981 0.000502822 0
0.504907 0.000477523 0 0.504836 0.000450444 0 0.504769 0.000421514 0 0.504706
0.000390666 0 0.504646 0.000357835 0 0.504591 0.00032296 0 0.504541 0.000285992
0 0.504496 0.000246879 0 0.504456 0.000205561 0 0.504424 0.000162054 0
0.504398 0.000116964 0 0.504377 6.76411e-05 0 0.504169 2.05389e-05 0 0.0192999
6.29162e-07 0 0.0585424 4.02175e-06 0 0.0988631 1.15244e-05 0 0.139887 2.29412e-05
0 0.181169 3.8954e-05 0 0.222201 6.06123e-05 0 0.262417 8.91131e-05 0
0.301199 0.000125611 0 0.337893 0.000170902 0 0.371835 0.00022502 0 0.402389
0.000286866 0 0.429014 0.000354012 0 0.45134 0.000422832 0 0.469239 0.000489043
0 0.482868 0.000548548 0 0.49266 0.000598325 0 0.499257 0.000637006 0
0.503401 0.000664957 0 0.505814 0.000683859 0 0.507109 0.000696023 0 0.507747
0.000703732 0 0.508032 0.00070882 0 0.508146 0.000712534 0 0.508184 0.000715605
0 0.508192 0.000718406 0 0.508187 0.000721102 0 0.508177 0.000723755 0
0.508164 0.000726384 0 0.50815 0.000728994 0 0.508133 0.00073158 0 0.508115
0.000734137 0 0.508095 0.000736659 0 0.508073 0.000739139 0 0.508049 0.000741569
0 0.508023 0.000743939 0 0.507994 0.000746238 0 0.507964 0.000748457 0
0.50793 0.000750583 0 0.507895 0.000752605 0 0.507856 0.000754506 0 0.507815
0.000756272 0 0.50777 0.000757886 0 0.507723 0.000759329 0 0.507672 0.000760582
0 0.507619 0.000761625 0 0.507562 0.000762433 0 0.507501 0.000762979 0
0.507437 0.000763238 0 0.50737 0.000763181 0 0.5073 0.000762779 0 0.507226
0.000761997 0 0.507148 0.0007608 0 0.507068 0.000759152 0 0.506984 0.000757012
0 0.506898 0.000754329 0 0.506809 0.000751053 0 0.506717 0.00074715 0
0.506622 0.000742584 0 0.506526 0.000737261 0 0.506428 0.000731109 0 
POINT_DATA  182
FIELD attributes 2
p 1 182 float
0 0 0 0 0 0 0 0 0 0 0
0 0 0 0 0 0 0 0 0 0
0 0 0 0 0 0 0 0 0 0
0 0 0 0 0 0 0 0 0 0
0 0 0 0 0 0 0 0 0 0
0 0 0 0 0 0 0 0 0 0
0 0 0 0 0 0 0 0 0 0
0 0 0 0 0 0 0 0 0 0
0 0 0 0 0 0 0 0 0 0
0 0 0 0 0 0 0 0 0 0
0 0 0 0 0 0 0 0 0 0
0 0 0 0 0 0 0 0 0 0
0 0 0 0 0 0 0 0 0 0
0 0 0 0 0 0 0 0 0 0
0 0 0 0 0 0 0 0 0 0
0 0 0 0 0 0 0 0 0 0
0 0 0 0 0 0 0 0 0 0
0 0 0 0 0 0 0 0 0 0
0 
U 3 182 float
0.506381 0.000727856 0 0.506295 0.000721569 0 0.506295 0.000721569 0 0.506381 0.000727856
0 0.50621 0.000714752 0 0.50621 0.000714752 0 0.506124 0.000707211 0
0.506124 0.000707211 0 0.506038 0.00069888 0 0.506038 0.00069888 0 0.505951
0.000689692 0 0.505951 0.000689692 0 0.505863 0.000679596 0 0.505863 0.000679596
0 0.505775 0.000668543 0 0.505775 0.000668543 0 0.505687 0.000656467 0
0.505687 0.000656467 0 0.5056 0.000643298 0 0.5056 0.000643298 0 0.505513
0.000628969 0 0.505513 0.000628969 0 0.505427 0.000613418 0 0.505427 0.000613418
0 0.505342 0.000596573 0 0.505342 0.000596573 0 0.505259 0.000578358 0
0.505259 0.000578358 0 0.505177 0.000558699 0 0.505177 0.000558699 0 0.505097
0.000537525 0 0.505097 0.000537525 0 0.505019 0.00051476 0 0.505019 0.00051476
0 0.504944 0.000490329 0 0.504944 0.000490329 0 0.504872 0.000464155 0
0.504872 0.000464155 0 0.504803 0.000436166 0 0.504803 0.000436166 0 0.504738
0.000406295 0 0.504738 0.000406295 0 0.504676 0.000374473 0 0.504676 0.000374473
0 0.504619 0.000340639 0 0.504619 0.000340639 0 0.504566 0.000304737 0
0.504566 0.000304737 0 0.504518 0.000266717 0 0.504518 0.000266717 0 0.504476
0.000226522 0 0.504476 0.000226522 0 0.50444 0.000184131 0 0.50444 0.000184131
0 0.504411 0.00013985 0 0.504411 0.00013985 0 0.504387 9.26811e-05 0
0.504387 9.26811e-05 0 0.504275 4.44566e-05 0 0.504275 4.44566e-05 0 0.504169
2.05389e-05 0 0.504169 2.05389e-05 0 0.0192999 6.29162e-07 0 0.0389183 2.32521e-06
0 0.0389183 2.32521e-06 0 0.0192999 6.29162e-07 0 0.0786996 7.77248e-06 0
0.0786996 7.77248e-06 0 0.119371 1.72318e-05 0 0.119371 1.72318e-05 0 0.160524
3.09462e-05 0 0.160524 3.09462e-05 0 0.201681 4.97811e-05 0 0.201681 4.97811e-05
0 0.242304 7.48597e-05 0 0.242304 7.48597e-05 0 0.281803 0.000107358 0
0.281803 0.000107358 0 0.319541 0.000148251 0 0.319541 0.000148251 0 0.354859
0.000197954 0 0.354859 0.000197954 0 0.387107 0.000255934 0 0.387107 0.000255934
0 0.415697 0.000320429 0 0.415697 0.000320429 0 0.440174 0.00038841 0
0.440174 0.00038841 0 0.460286 0.000455925 0 0.460286 0.000455925 0 0.476051
0.000518784 0 0.476051 0.000518784 0 0.487762 0.000573426 0 0.487762 0.000573426
0 0.495957 0.000617656 0 0.495957 0.000617656 0 0.501328 0.000650974 0
0.501328 0.000650974 0 0.504607 0.000674403 0 0.504607 0.000674403 0 0.506461
0.000689938 0 0.506461 0.000689938 0 0.507428 0.000699876 0 0.507428 0.000699876
0 0.507889 0.000706275 0 0.507889 0.000706275 0 0.508089 0.000710676 0
0.508089 0.000710676 0 0.508165 0.000714068 0 0.508165 0.000714068 0 0.508188
0.000717004 0 0.508188 0.000717004 0 0.508189 0.000719753 0 0.508189 0.000719753
0 0.508182 0.000722427 0 0.508182 0.000722427 0 0.508171 0.000725068 0
0.508171 0.000725068 0 0.508157 0.000727688 0 0.508157 0.000727688 0 0.508142
0.000730285 0 0.508142 0.000730285 0 0.508124 0.000732857 0 0.508124 0.000732857
0 0.508105 0.000735396 0 0.508105 0.000735396 0 0.508084 0.000737897 0
0.508084 0.000737897 0 0.508061 0.000740352 0 0.508061 0.000740352 0 0.508036
0.000742752 0 0.508036 0.000742752 0 0.508009 0.000745086 0 0.508009 0.000745086
0 0.507979 0.000747346 0 0.507979 0.000747346 0 0.507947 0.000749518 0
0.507947 0.000749518 0 0.507913 0.000751592 0 0.507913 0.000751592 0 0.507875
0.000753553 0 0.507875 0.000753553 0 0.507835 0.000755387 0 0.507835 0.000755387
0 0.507792 0.000757077 0 0.507792 0.000757077 0 0.507747 0.000758605 0
0.507747 0.000758605 0 0.507698 0.000759953 0 0.507698 0.000759953 0 0.507646
0.000761101 0 0.507646 0.000761101 0 0.50759 0.000762027 0 0.50759 0.000762027
0 0.507531 0.000762705 0 0.507531 0.000762705 0 0.507469 0.000763108 0
0.507469 0.000763108 0 0.507404 0.000763209 0 0.507404 0.000763209 0 0.507335
0.000762981 0 0.507335 0.000762981 0 0.507263 0.00076239 0 0.507263 0.00076239
0 0.507187 0.000761402 0 0.507187 0.000761402 0 0.507108 0.00075998 0
0.507108 0.00075998 0 0.507026 0.000758088 0 0.507026 0.000758088 0 0.506941
0.000755678 0 0.506941 0.000755678 0 0.506854 0.000752701 0 0.506854 0.000752701
0 0.506763 0.000749115 0 0.506763 0.000749115 0 0.50667 0.000744883 0
0.50667 0.000744883 0 0.506575 0.000739942 0 0.506575 0.000739942 0 0.506477
0.00073421 0 0.506477 0.00073421 0 
