# vtk DataFile Version 2.0
outlet
ASCII
DATASET POLYDATA
POINTS 182 float
0.1 0.02 0 0.1 0.0207299 0 0.1 0.0207299 0.001 0.1 0.02
0.001 0.1 0.021488 0 0.1 0.021488 0.001 0.1 0.0222754 0
0.1 0.0222754 0.001 0.1 0.0230932 0 0.1 0.0230932 0.001 0.1
0.0239425 0 0.1 0.0239425 0.001 0.1 0.0248247 0 0.1 0.0248247
0.001 0.1 0.0257409 0 0.1 0.0257409 0.001 0.1 0.0266925 0
0.1 0.0266925 0.001 0.1 0.0276808 0 0.1 0.0276808 0.001 0.1
0.0287073 0 0.1 0.0287073 0.001 0.1 0.0297734 0 0.1 0.0297734
0.001 0.1 0.0308807 0 0.1 0.0308807 0.001 0.1 0.0320307 0
0.1 0.0320307 0.001 0.1 0.0332251 0 0.1 0.0332251 0.001 0.1
0.0344656 0 0.1 0.0344656 0.001 0.1 0.0357541 0 0.1 0.0357541
0.001 0.1 0.0370923 0 0.1 0.0370923 0.001 0.1 0.0384821 0
0.1 0.0384821 0.001 0.1 0.0399257 0 0.1 0.0399257 0.001 0.1
0.0414249 0 0.1 0.0414249 0.001 0.1 0.042982 0 0.1 0.042982
0.001 0.1 0.0445993 0 0.1 0.0445993 0.001 0.1 0.046279 0
0.1 0.046279 0.001 0.1 0.0480236 0 0.1 0.0480236 0.001 0.1
0.0498355 0 0.1 0.0498355 0.001 0.1 0.0517173 0 0.1 0.0517173
0.001 0.1 0.0536719 0 0.1 0.0536719 0.001 0.1 0.0557019 0
0.1 0.0557019 0.001 0.1 0.0578102 0 0.1 0.0578102 0.001 0.1
0.06 0 0.1 0.06 0.001 0.1 0 0 0.1 8.46956e-05
0 0.1 8.46956e-05 0.001 0.1 0 0.001 0.1 0.000172762 0
0.1 0.000172762 0.001 0.1 0.000264333 0 0.1 0.000264333 0.001 0.1
0.000359549 0 0.1 0.000359549 0.001 0.1 0.000458554 0 0.1 0.000458554
0.001 0.1 0.0005615 0 0.1 0.0005615 0.001 0.1 0.000668542 0
0.1 0.000668542 0.001 0.1 0.000779845 0 0.1 0.000779845 0.001 0.1
0.000895577 0 0.1 0.000895577 0.001 0.1 0.00101591 0 0.1 0.00101591
0.001 0.1 0.00114104 0 0.1 0.00114104 0.001 0.1 0.00127115 0
0.1 0.00127115 0.001 0.1 0.00140644 0 0.1 0.00140644 0.001 0.1
0.0015471 0 0.1 0.0015471 0.001 0.1 0.00169337 0 0.1 0.00169337
0.001 0.1 0.00184546 0 0.1 0.00184546 0.001 0.1 0.0020036 0
0.1 0.0020036 0.001 0.1 0.00216804 0 0.1 0.00216804 0.001 0.1
0.00233902 0 0.1 0.00233902 0.001 0.1 0.00251681 0 0.1 0.00251681
0.001 0.1 0.00270167 0 0.1 0.00270167 0.001 0.1 0.00289388 0
0.1 0.00289388 0.001 0.1 0.00309375 0 0.1 0.00309375 0.001 0.1
0.00330157 0 0.1 0.00330157 0.001 0.1 0.00351767 0 0.1 0.00351767
0.001 0.1 0.00374236 0 0.1 0.00374236 0.001 0.1 0.00397599 0
0.1 0.00397599 0.001 0.1 0.00421893 0 0.1 0.00421893 0.001 0.1
0.00447153 0 0.1 0.00447153 0.001 0.1 0.00473419 0 0.1 0.00473419
0.001 0.1 0.0050073 0 0.1 0.0050073 0.001 0.1 0.00529127 0
0.1 0.00529127 0.001 0.1 0.00558655 0 0.1 0.00558655 0.001 0.1
0.00589359 0 0.1 0.00589359 0.001 0.1 0.00621284 0 0.1 0.00621284
0.001 0.1 0.00654479 0 0.1 0.00654479 0.001 0.1 0.00688996 0
0.1 0.00688996 0.001 0.1 0.00724887 0 0.1 0.00724887 0.001 0.1
0.00762206 0 0.1 0.00762206 0.001 0.1 0.0080101 0 0.1 0.0080101
0.001 0.1 0.00841358 0 0.1 0.00841358 0.001 0.1 0.00883312 0
0.1 0.00883312 0.001 0.1 0.00926936 0 0.1 0.00926936 0.001 0.1
0.00972297 0 0.1 0.00972297 0.001 0.1 0.0101946 0 0.1 0.0101946
0.001 0.1 0.010685 0 0.1 0.010685 0.001 0.1 0.011195 0
0.1 0.011195 0.001 0.1 0.0117252 0 0.1 0.0117252 0.001 0.1
0.0122766 0 0.1 0.0122766 0.001 0.1 0.0128499 0 0.1 0.0128499
0.001 0.1 0.013446 0 0.1 0.013446 0.001 0.1 0.0140658 0
0.1 0.0140658 0.001 0.1 0.0147103 0 0.1 0.0147103 0.001 0.1
0.0153804 0 0.1 0.0153804 0.001 0.1 0.0160772 0 0.1 0.0160772
0.001 0.1 0.0168018 0 0.1 0.0168018 0.001 0.1 0.0175551 0
0.1 0.0175551 0.001 0.1 0.0183385 0 0.1 0.0183385 0.001 0.1
0.019153 0 0.1 0.019153 0.001 
POLYGONS 90 450
4 0 1 2 3 4 1 4 5 2 4
4 6 7 5 4 6 8 9 7 4
8 10 11 9 4 10 12 13 11 4
12 14 15 13 4 14 16 17 15 4
16 18 19 17 4 18 20 21 19 4
20 22 23 21 4 22 24 25 23 4
24 26 27 25 4 26 28 29 27 4
28 30 31 29 4 30 32 33 31 4
32 34 35 33 4 34 36 37 35 4
36 38 39 37 4 38 40 41 39 4
40 42 43 41 4 42 44 45 43 4
44 46 47 45 4 46 48 49 47 4
48 50 51 49 4 50 52 53 51 4
52 54 55 53 4 54 56 57 55 4
56 58 59 57 4 58 60 61 59 4
62 63 64 65 4 63 66 67 64 4
66 68 69 67 4 68 70 71 69 4
70 72 73 71 4 72 74 75 73 4
74 76 77 75 4 76 78 79 77 4
78 80 81 79 4 80 82 83 81 4
82 84 85 83 4 84 86 87 85 4
86 88 89 87 4 88 90 91 89 4
90 92 93 91 4 92 94 95 93 4
94 96 97 95 4 96 98 99 97 4
98 100 101 99 4 100 102 103 101 4
102 104 105 103 4 104 106 107 105 4
106 108 109 107 4 108 110 111 109 4
110 112 113 111 4 112 114 115 113 4
114 116 117 115 4 116 118 119 117 4
118 120 121 119 4 120 122 123 121 4
122 124 125 123 4 124 126 127 125 4
126 128 129 127 4 128 130 131 129 4
130 132 133 131 4 132 134 135 133 4
134 136 137 135 4 136 138 139 137 4
138 140 141 139 4 140 142 143 141 4
142 144 145 143 4 144 146 147 145 4
146 148 149 147 4 148 150 151 149 4
150 152 153 151 4 152 154 155 153 4
154 156 157 155 4 156 158 159 157 4
158 160 161 159 4 160 162 163 161 4
162 164 165 163 4 164 166 167 165 4
166 168 169 167 4 168 170 171 169 4
170 172 173 171 4 172 174 175 173 4
174 176 177 175 4 176 178 179 177 4
178 180 181 179 4 180 0 3 181 
CELL_DATA 90
FIELD attributes 3
patchID 1 90 float
2 2 2 2 2 2 2 2 2 2 2
2 2 2 2 2 2 2 2 2 2
2 2 2 2 2 2 2 2 2 2
2 2 2 2 2 2 2 2 2 2
2 2 2 2 2 2 2 2 2 2
2 2 2 2 2 2 2 2 2 2
2 2 2 2 2 2 2 2 2 2
2 2 2 2 2 2 2 2 2 2
2 2 2 2 2 2 2 2 2 
p 1 90 float
0 0 0 0 0 0 0 0 0 0 0
0 0 0 0 0 0 0 0 0 0
0 0 0 0 0 0 0 0 0 0
0 0 0 0 0 0 0 0 0 0
0 0 0 0 0 0 0 0 0 0
0 0 0 0 0 0 0 0 0 0
0 0 0 0 0 0 0 0 0 0
0 0 0 0 0 0 0 0 0 0
0 0 0 0 0 0 0 0 0 
U 3 90 float
0.504452 0.00040946 0 0.504436 0.000416106 0 0.50442 0.000422176 0 0.504403 0.00042758
0 0.504386 0.000432244 0 0.504367 0.000436071 0 0.504349 0.000438968 0
0.504329 0.000440837 0 0.504309 0.000441573 0 0.504288 0.00044107 0 0.504267
0.00043922 0 0.504245 0.00043591 0 0.504223 0.000431028 0 0.504201 0.00042446
0 0.504178 0.000416093 0 0.504155 0.000405816 0 0.504133 0.00039352 0
0.50411 0.000379101 0 0.504088 0.00036246 0 0.504067 0.000343508 0 0.504046
0.000322162 0 0.504026 0.000298355 0 0.504007 0.000272033 0 0.503989 0.000243161
0 0.503973 0.000211724 0 0.503959 0.000177751 0 0.503947 0.000141156 0
0.503937 0.000102604 0 0.503928 6.04685e-05 0 0.503746 1.89308e-05 0 0.0271093
-3.88954e-09 0 0.0818517 -1.52404e-08 0 0.137114 -2.84253e-08 0 0.191698 -2.93521e-08
0 0.244313 1.32773e-09 0 0.293671 9.16765e-08 0 0.338597 2.80006e-07 0
0.378147 6.15006e-07 0 0.411702 1.15428e-06 0 0.439037 1.96032e-06 0 0.460333
3.09678e-06 0 0.476135 4.62465e-06 0 0.487253 6.59676e-06 0 0.494635 9.0499e-06
0 0.499242 1.19964e-05 0 0.501929 1.54207e-05 0 0.503388 1.92838e-05 0
0.504122 2.3534e-05 0 0.504462 2.81199e-05 0 0.504607 3.29991e-05 0 0.504664
3.81416e-05 0 0.504684 4.35293e-05 0 0.50469 4.91526e-05 0 0.504692 5.50081e-05
0 0.504692 6.10955e-05 0 0.504691 6.74165e-05 0 0.50469 7.3974e-05 0
0.50469 8.07714e-05 0 0.504688 8.78126e-05 0 0.504687 9.51013e-05 0 0.504686
0.000102641 0 0.504684 0.000110436 0 0.504682 0.000118488 0 0.50468 0.000126801
0 0.504678 0.000135375 0 0.504675 0.000144212 0 0.504672 0.000153312 0
0.504669 0.000162672 0 0.504666 0.000172292 0 0.504662 0.000182166 0 0.504658
0.000192288 0 0.504653 0.00020265 0 0.504648 0.000213242 0 0.504643 0.000224051
0 0.504637 0.000235062 0 0.50463 0.000246255 0 0.504623 0.000257609 0
0.504615 0.000269098 0 0.504607 0.000280693 0 0.504598 0.000292358 0 0.504589
0.000304055 0 0.504579 0.00031574 0 0.504568 0.000327364 0 0.504556 0.000338871
0 0.504543 0.000350201 0 0.50453 0.000361286 0 0.504516 0.000372054 0
0.504501 0.000382416 0 0.504485 0.000392303 0 0.504468 0.000401602 0 
POINT_DATA  182
FIELD attributes 2
p 1 182 float
0 0 0 0 0 0 0 0 0 0 0
0 0 0 0 0 0 0 0 0 0
0 0 0 0 0 0 0 0 0 0
0 0 0 0 0 0 0 0 0 0
0 0 0 0 0 0 0 0 0 0
0 0 0 0 0 0 0 0 0 0
0 0 0 0 0 0 0 0 0 0
0 0 0 0 0 0 0 0 0 0
0 0 0 0 0 0 0 0 0 0
0 0 0 0 0 0 0 0 0 0
0 0 0 0 0 0 0 0 0 0
0 0 0 0 0 0 0 0 0 0
0 0 0 0 0 0 0 0 0 0
0 0 0 0 0 0 0 0 0 0
0 0 0 0 0 0 0 0 0 0
0 0 0 0 0 0 0 0 0 0
0 0 0 0 0 0 0 0 0 0
0 0 0 0 0 0 0 0 0 0
0 
U 3 182 float
0.50446 0.000405643 0 0.504444 0.000412761 0 0.504444 0.000412761 0 0.50446 0.000405643
0 0.504428 0.000419119 0 0.504428 0.000419119 0 0.504412 0.000424858 0
0.504412 0.000424858 0 0.504395 0.000429893 0 0.504395 0.000429893 0 0.504377
0.000434142 0 0.504377 0.000434142 0 0.504358 0.000437507 0 0.504358 0.000437507
0 0.504339 0.000439894 0 0.504339 0.000439894 0 0.504319 0.000441202 0
0.504319 0.000441202 0 0.504299 0.000441324 0 0.504299 0.000441324 0 0.504278
0.000440154 0 0.504278 0.000440154 0 0.504256 0.000437582 0 0.504256 0.000437582
0 0.504234 0.000433495 0 0.504234 0.000433495 0 0.504212 0.00042778 0
0.504212 0.00042778 0 0.50419 0.000420324 0 0.50419 0.000420324 0 0.504167
0.000411014 0 0.504167 0.000411014 0 0.504144 0.000399742 0 0.504144 0.000399742
0 0.504122 0.000386399 0 0.504122 0.000386399 0 0.504099 0.000370886 0
0.504099 0.000370886 0 0.504078 0.000353107 0 0.504078 0.000353107 0 0.504056
0.000332976 0 0.504056 0.000332976 0 0.504036 0.00031042 0 0.504036 0.00031042
0 0.504016 0.000285377 0 0.504016 0.000285377 0 0.503998 0.000257801 0
0.503998 0.000257801 0 0.503981 0.000227668 0 0.503981 0.000227668 0 0.503966
0.000194986 0 0.503966 0.000194986 0 0.503953 0.000159726 0 0.503953 0.000159726
0 0.503942 0.000122172 0 0.503942 0.000122172 0 0.503933 8.18595e-05 0
0.503933 8.18595e-05 0 0.503838 4.0023e-05 0 0.503838 4.0023e-05 0 0.503746
1.89308e-05 0 0.503746 1.89308e-05 0 0.0271093 -3.88954e-09 0 0.0544766 -9.56414e-09
0 0.0544766 -9.56414e-09 0 0.0271093 -3.88954e-09 0 0.109479 -2.18318e-08 0
0.109479 -2.18318e-08 0 0.164402 -2.88886e-08 0 0.164402 -2.88886e-08 0 0.218001
-1.4015e-08 0 0.218001 -1.4015e-08 0 0.268987 4.64932e-08 0 0.268987 4.64932e-08
0 0.316129 1.85821e-07 0 0.316129 1.85821e-07 0 0.358368 4.47467e-07 0
0.358368 4.47467e-07 0 0.394921 8.84576e-07 0 0.394921 8.84576e-07 0 0.425366
1.55719e-06 0 0.425366 1.55719e-06 0 0.449682 2.52839e-06 0 0.449682 2.52839e-06
0 0.468232 3.86048e-06 0 0.468232 3.86048e-06 0 0.481692 5.61037e-06 0
0.481692 5.61037e-06 0 0.490943 7.82288e-06 0 0.490943 7.82288e-06 0 0.496938
1.05226e-05 0 0.496938 1.05226e-05 0 0.500585 1.37079e-05 0 0.500585 1.37079e-05
0 0.502658 1.73514e-05 0 0.502658 1.73514e-05 0 0.503754 2.14078e-05 0
0.503754 2.14078e-05 0 0.504292 2.58257e-05 0 0.504292 2.58257e-05 0 0.504535
3.05581e-05 0 0.504535 3.05581e-05 0 0.504635 3.55688e-05 0 0.504635 3.55688e-05
0 0.504674 4.08336e-05 0 0.504674 4.08336e-05 0 0.504687 4.63389e-05 0
0.504687 4.63389e-05 0 0.504691 5.20781e-05 0 0.504691 5.20781e-05 0 0.504692
5.80492e-05 0 0.504692 5.80492e-05 0 0.504691 6.42531e-05 0 0.504691 6.42531e-05
0 0.504691 7.0692e-05 0 0.504691 7.0692e-05 0 0.50469 7.73691e-05 0
0.50469 7.73691e-05 0 0.504689 8.42881e-05 0 0.504689 8.42881e-05 0 0.504688
9.14526e-05 0 0.504688 9.14526e-05 0 0.504686 9.88664e-05 0 0.504686 9.88664e-05
0 0.504685 0.000106533 0 0.504685 0.000106533 0 0.504683 0.000114456 0
0.504683 0.000114456 0 0.504681 0.000122638 0 0.504681 0.000122638 0 0.504679
0.00013108 0 0.504679 0.00013108 0 0.504676 0.000139785 0 0.504676 0.000139785
0 0.504674 0.000148753 0 0.504674 0.000148753 0 0.504671 0.000157982 0
0.504671 0.000157982 0 0.504667 0.000167471 0 0.504667 0.000167471 0 0.504664
0.000177217 0 0.504664 0.000177217 0 0.50466 0.000187213 0 0.50466 0.000187213
0 0.504655 0.000197454 0 0.504655 0.000197454 0 0.504651 0.00020793 0
0.504651 0.00020793 0 0.504645 0.000218629 0 0.504645 0.000218629 0 0.50464
0.000229538 0 0.50464 0.000229538 0 0.504633 0.000240638 0 0.504633 0.000240638
0 0.504627 0.00025191 0 0.504627 0.00025191 0 0.504619 0.00026333 0
0.504619 0.00026333 0 0.504611 0.00027487 0 0.504611 0.00027487 0 0.504603
0.000286498 0 0.504603 0.000286498 0 0.504594 0.000298177 0 0.504594 0.000298177
0 0.504584 0.000309867 0 0.504584 0.000309867 0 0.504573 0.000321519 0
0.504573 0.000321519 0 0.504562 0.000333084 0 0.504562 0.000333084 0 0.50455
0.000344501 0 0.50455 0.000344501 0 0.504537 0.000355707 0 0.504537 0.000355707
0 0.504523 0.000366633 0 0.504523 0.000366633 0 0.504508 0.000377198 0
0.504508 0.000377198 0 0.504493 0.000387322 0 0.504493 0.000387322 0 0.504476
0.000396915 0 0.504476 0.000396915 0 
