# vtk DataFile Version 2.0
outlet
ASCII
DATASET POLYDATA
POINTS 182 float
0.1 0.02 0 0.1 0.0207299 0 0.1 0.0207299 0.001 0.1 0.02
0.001 0.1 0.021488 0 0.1 0.021488 0.001 0.1 0.0222754 0
0.1 0.0222754 0.001 0.1 0.0230932 0 0.1 0.0230932 0.001 0.1
0.0239425 0 0.1 0.0239425 0.001 0.1 0.0248247 0 0.1 0.0248247
0.001 0.1 0.0257409 0 0.1 0.0257409 0.001 0.1 0.0266925 0
0.1 0.0266925 0.001 0.1 0.0276808 0 0.1 0.0276808 0.001 0.1
0.0287073 0 0.1 0.0287073 0.001 0.1 0.0297734 0 0.1 0.0297734
0.001 0.1 0.0308807 0 0.1 0.0308807 0.001 0.1 0.0320307 0
0.1 0.0320307 0.001 0.1 0.0332251 0 0.1 0.0332251 0.001 0.1
0.0344656 0 0.1 0.0344656 0.001 0.1 0.0357541 0 0.1 0.0357541
0.001 0.1 0.0370923 0 0.1 0.0370923 0.001 0.1 0.0384821 0
0.1 0.0384821 0.001 0.1 0.0399257 0 0.1 0.0399257 0.001 0.1
0.0414249 0 0.1 0.0414249 0.001 0.1 0.042982 0 0.1 0.042982
0.001 0.1 0.0445993 0 0.1 0.0445993 0.001 0.1 0.046279 0
0.1 0.046279 0.001 0.1 0.0480236 0 0.1 0.0480236 0.001 0.1
0.0498355 0 0.1 0.0498355 0.001 0.1 0.0517173 0 0.1 0.0517173
0.001 0.1 0.0536719 0 0.1 0.0536719 0.001 0.1 0.0557019 0
0.1 0.0557019 0.001 0.1 0.0578102 0 0.1 0.0578102 0.001 0.1
0.06 0 0.1 0.06 0.001 0.1 0 0 0.1 8.46956e-05
0 0.1 8.46956e-05 0.001 0.1 0 0.001 0.1 0.000172762 0
0.1 0.000172762 0.001 0.1 0.000264333 0 0.1 0.000264333 0.001 0.1
0.000359549 0 0.1 0.000359549 0.001 0.1 0.000458554 0 0.1 0.000458554
0.001 0.1 0.0005615 0 0.1 0.0005615 0.001 0.1 0.000668542 0
0.1 0.000668542 0.001 0.1 0.000779845 0 0.1 0.000779845 0.001 0.1
0.000895577 0 0.1 0.000895577 0.001 0.1 0.00101591 0 0.1 0.00101591
0.001 0.1 0.00114104 0 0.1 0.00114104 0.001 0.1 0.00127115 0
0.1 0.00127115 0.001 0.1 0.00140644 0 0.1 0.00140644 0.001 0.1
0.0015471 0 0.1 0.0015471 0.001 0.1 0.00169337 0 0.1 0.00169337
0.001 0.1 0.00184546 0 0.1 0.00184546 0.001 0.1 0.0020036 0
0.1 0.0020036 0.001 0.1 0.00216804 0 0.1 0.00216804 0.001 0.1
0.00233902 0 0.1 0.00233902 0.001 0.1 0.00251681 0 0.1 0.00251681
0.001 0.1 0.00270167 0 0.1 0.00270167 0.001 0.1 0.00289388 0
0.1 0.00289388 0.001 0.1 0.00309375 0 0.1 0.00309375 0.001 0.1
0.00330157 0 0.1 0.00330157 0.001 0.1 0.00351767 0 0.1 0.00351767
0.001 0.1 0.00374236 0 0.1 0.00374236 0.001 0.1 0.00397599 0
0.1 0.00397599 0.001 0.1 0.00421893 0 0.1 0.00421893 0.001 0.1
0.00447153 0 0.1 0.00447153 0.001 0.1 0.00473419 0 0.1 0.00473419
0.001 0.1 0.0050073 0 0.1 0.0050073 0.001 0.1 0.00529127 0
0.1 0.00529127 0.001 0.1 0.00558655 0 0.1 0.00558655 0.001 0.1
0.00589359 0 0.1 0.00589359 0.001 0.1 0.00621284 0 0.1 0.00621284
0.001 0.1 0.00654479 0 0.1 0.00654479 0.001 0.1 0.00688996 0
0.1 0.00688996 0.001 0.1 0.00724887 0 0.1 0.00724887 0.001 0.1
0.00762206 0 0.1 0.00762206 0.001 0.1 0.0080101 0 0.1 0.0080101
0.001 0.1 0.00841358 0 0.1 0.00841358 0.001 0.1 0.00883312 0
0.1 0.00883312 0.001 0.1 0.00926936 0 0.1 0.00926936 0.001 0.1
0.00972297 0 0.1 0.00972297 0.001 0.1 0.0101946 0 0.1 0.0101946
0.001 0.1 0.010685 0 0.1 0.010685 0.001 0.1 0.011195 0
0.1 0.011195 0.001 0.1 0.0117252 0 0.1 0.0117252 0.001 0.1
0.0122766 0 0.1 0.0122766 0.001 0.1 0.0128499 0 0.1 0.0128499
0.001 0.1 0.013446 0 0.1 0.013446 0.001 0.1 0.0140658 0
0.1 0.0140658 0.001 0.1 0.0147103 0 0.1 0.0147103 0.001 0.1
0.0153804 0 0.1 0.0153804 0.001 0.1 0.0160772 0 0.1 0.0160772
0.001 0.1 0.0168018 0 0.1 0.0168018 0.001 0.1 0.0175551 0
0.1 0.0175551 0.001 0.1 0.0183385 0 0.1 0.0183385 0.001 0.1
0.019153 0 0.1 0.019153 0.001 
POLYGONS 90 450
4 0 1 2 3 4 1 4 5 2 4
4 6 7 5 4 6 8 9 7 4
8 10 11 9 4 10 12 13 11 4
12 14 15 13 4 14 16 17 15 4
16 18 19 17 4 18 20 21 19 4
20 22 23 21 4 22 24 25 23 4
24 26 27 25 4 26 28 29 27 4
28 30 31 29 4 30 32 33 31 4
32 34 35 33 4 34 36 37 35 4
36 38 39 37 4 38 40 41 39 4
40 42 43 41 4 42 44 45 43 4
44 46 47 45 4 46 48 49 47 4
48 50 51 49 4 50 52 53 51 4
52 54 55 53 4 54 56 57 55 4
56 58 59 57 4 58 60 61 59 4
62 63 64 65 4 63 66 67 64 4
66 68 69 67 4 68 70 71 69 4
70 72 73 71 4 72 74 75 73 4
74 76 77 75 4 76 78 79 77 4
78 80 81 79 4 80 82 83 81 4
82 84 85 83 4 84 86 87 85 4
86 88 89 87 4 88 90 91 89 4
90 92 93 91 4 92 94 95 93 4
94 96 97 95 4 96 98 99 97 4
98 100 101 99 4 100 102 103 101 4
102 104 105 103 4 104 106 107 105 4
106 108 109 107 4 108 110 111 109 4
110 112 113 111 4 112 114 115 113 4
114 116 117 115 4 116 118 119 117 4
118 120 121 119 4 120 122 123 121 4
122 124 125 123 4 124 126 127 125 4
126 128 129 127 4 128 130 131 129 4
130 132 133 131 4 132 134 135 133 4
134 136 137 135 4 136 138 139 137 4
138 140 141 139 4 140 142 143 141 4
142 144 145 143 4 144 146 147 145 4
146 148 149 147 4 148 150 151 149 4
150 152 153 151 4 152 154 155 153 4
154 156 157 155 4 156 158 159 157 4
158 160 161 159 4 160 162 163 161 4
162 164 165 163 4 164 166 167 165 4
166 168 169 167 4 168 170 171 169 4
170 172 173 171 4 172 174 175 173 4
174 176 177 175 4 176 178 179 177 4
178 180 181 179 4 180 0 3 181 
CELL_DATA 90
FIELD attributes 3
patchID 1 90 float
2 2 2 2 2 2 2 2 2 2 2
2 2 2 2 2 2 2 2 2 2
2 2 2 2 2 2 2 2 2 2
2 2 2 2 2 2 2 2 2 2
2 2 2 2 2 2 2 2 2 2
2 2 2 2 2 2 2 2 2 2
2 2 2 2 2 2 2 2 2 2
2 2 2 2 2 2 2 2 2 2
2 2 2 2 2 2 2 2 2 
p 1 90 float
0 0 0 0 0 0 0 0 0 0 0
0 0 0 0 0 0 0 0 0 0
0 0 0 0 0 0 0 0 0 0
0 0 0 0 0 0 0 0 0 0
0 0 0 0 0 0 0 0 0 0
0 0 0 0 0 0 0 0 0 0
0 0 0 0 0 0 0 0 0 0
0 0 0 0 0 0 0 0 0 0
0 0 0 0 0 0 0 0 0 
U 3 90 float
0.506708 0.00103073 0 0.506623 0.00101703 0 0.506536 0.00100241 0 0.506449 0.000986818
0 0.50636 0.000970195 0 0.506271 0.000952473 0 0.506182 0.000933598 0
0.506092 0.000913515 0 0.506003 0.000892166 0 0.505914 0.000869483 0 0.505826
0.000845394 0 0.505738 0.000819833 0 0.505652 0.000792732 0 0.505568 0.000764022
0 0.505485 0.000733624 0 0.505404 0.000701462 0 0.505325 0.00066746 0
0.50525 0.000631544 0 0.505177 0.000593636 0 0.505108 0.000553657 0 0.505042
0.000511531 0 0.504981 0.000467187 0 0.504924 0.000420554 0 0.504872 0.000371561
0 0.504826 0.000320135 0 0.504785 0.0002662 0 0.504751 0.000209771 0
0.504724 0.00015137 0 0.504703 8.81449e-05 0 0.504483 2.72268e-05 0 0.0176765
1.3164e-06 0 0.0536907 8.55331e-06 0 0.0908809 2.46121e-05 0 0.129025 4.88899e-05
0 0.167834 8.23315e-05 0 0.206945 0.000126297 0 0.245915 0.000182117 0
0.284204 0.00025081 0 0.321181 0.000332661 0 0.356134 0.000426733 0 0.388312
0.000530492 0 0.417002 0.000639708 0 0.441621 0.000748796 0 0.461822 0.000851613
0 0.477569 0.000942578 0 0.489156 0.00101776 0 0.497156 0.00107558 0
0.502307 0.00111685 0 0.505384 0.00114417 0 0.50708 0.00116102 0 0.507937
0.00117086 0 0.508333 0.00117645 0 0.508497 0.00117974 0 0.508556 0.00118188
0 0.508572 0.00118347 0 0.50857 0.00118478 0 0.508561 0.00118591 0
0.508549 0.0011869 0 0.508534 0.00118775 0 0.508518 0.00118845 0 0.5085
0.00118899 0 0.50848 0.00118937 0 0.508458 0.00118956 0 0.508434 0.00118956
0 0.508408 0.00118934 0 0.508379 0.00118889 0 0.508348 0.0011882 0
0.508315 0.00118725 0 0.508279 0.00118601 0 0.508241 0.00118446 0 0.508199
0.00118259 0 0.508155 0.00118037 0 0.508107 0.00117777 0 0.508056 0.00117477
0 0.508002 0.00117135 0 0.507945 0.00116747 0 0.507884 0.0011631 0
0.50782 0.0011582 0 0.507752 0.00115276 0 0.507681 0.00114673 0 0.507607
0.00114007 0 0.507529 0.00113274 0 0.507448 0.00112471 0 0.507363 0.00111593
0 0.507276 0.00110635 0 0.507186 0.00109592 0 0.507093 0.00108462 0
0.506998 0.00107237 0 0.5069 0.0010591 0 0.5068 0.00104476 0 
POINT_DATA  182
FIELD attributes 2
p 1 182 float
0 0 0 0 0 0 0 0 0 0 0
0 0 0 0 0 0 0 0 0 0
0 0 0 0 0 0 0 0 0 0
0 0 0 0 0 0 0 0 0 0
0 0 0 0 0 0 0 0 0 0
0 0 0 0 0 0 0 0 0 0
0 0 0 0 0 0 0 0 0 0
0 0 0 0 0 0 0 0 0 0
0 0 0 0 0 0 0 0 0 0
0 0 0 0 0 0 0 0 0 0
0 0 0 0 0 0 0 0 0 0
0 0 0 0 0 0 0 0 0 0
0 0 0 0 0 0 0 0 0 0
0 0 0 0 0 0 0 0 0 0
0 0 0 0 0 0 0 0 0 0
0 0 0 0 0 0 0 0 0 0
0 0 0 0 0 0 0 0 0 0
0 0 0 0 0 0 0 0 0 0
0 
U 3 182 float
0.506753 0.00103754 0 0.506666 0.00102393 0 0.506666 0.00102393 0 0.506753 0.00103754
0 0.50658 0.00100977 0 0.50658 0.00100977 0 0.506493 0.000994671 0
0.506493 0.000994671 0 0.506405 0.000978571 0 0.506405 0.000978571 0 0.506316
0.000961406 0 0.506316 0.000961406 0 0.506227 0.000943115 0 0.506227 0.000943115
0 0.506137 0.000923645 0 0.506137 0.000923645 0 0.506048 0.000902939 0
0.506048 0.000902939 0 0.505959 0.000880933 0 0.505959 0.000880933 0 0.50587
0.000857557 0 0.50587 0.000857557 0 0.505782 0.000832744 0 0.505782 0.000832744
0 0.505696 0.000806426 0 0.505696 0.000806426 0 0.50561 0.000778534 0
0.50561 0.000778534 0 0.505527 0.000748995 0 0.505527 0.000748995 0 0.505445
0.00071773 0 0.505445 0.00071773 0 0.505365 0.000684665 0 0.505365 0.000684665
0 0.505288 0.000649723 0 0.505288 0.000649723 0 0.505214 0.000612829 0
0.505214 0.000612829 0 0.505143 0.000573905 0 0.505143 0.000573905 0 0.505076
0.000532873 0 0.505076 0.000532873 0 0.505012 0.00048966 0 0.505012 0.00048966
0 0.504953 0.000444193 0 0.504953 0.000444193 0 0.504898 0.000396403 0
0.504898 0.000396403 0 0.504849 0.000346218 0 0.504849 0.000346218 0 0.504806
0.000293562 0 0.504806 0.000293562 0 0.504768 0.000238406 0 0.504768 0.000238406
0 0.504738 0.000181012 0 0.504738 0.000181012 0 0.504714 0.000120243 0
0.504714 0.000120243 0 0.504595 5.816e-05 0 0.504595 5.816e-05 0 0.504483
2.72268e-05 0 0.504483 2.72268e-05 0 0.0176765 1.3164e-06 0 0.035681 4.93433e-06
0 0.035681 4.93433e-06 0 0.0176765 1.3164e-06 0 0.0722829 1.65815e-05 0
0.0722829 1.65815e-05 0 0.10995 3.6749e-05 0 0.10995 3.6749e-05 0 0.148426
6.56076e-05 0 0.148426 6.56076e-05 0 0.187386 0.00010431 0 0.187386 0.00010431
0 0.226426 0.000154201 0 0.226426 0.000154201 0 0.265055 0.000216456 0
0.265055 0.000216456 0 0.302688 0.000291725 0 0.302688 0.000291725 0 0.338653
0.000379684 0 0.338653 0.000379684 0 0.372218 0.000478597 0 0.372218 0.000478597
0 0.402653 0.000585083 0 0.402653 0.000585083 0 0.429307 0.000694234 0
0.429307 0.000694234 0 0.451717 0.000800186 0 0.451717 0.000800186 0 0.469692
0.000897077 0 0.469692 0.000897077 0 0.48336 0.000980154 0 0.48336 0.000980154
0 0.493154 0.00104666 0 0.493154 0.00104666 0 0.49973 0.0010962 0
0.49973 0.0010962 0 0.503845 0.0011305 0 0.503845 0.0011305 0 0.506231
0.00115259 0 0.506231 0.00115259 0 0.507508 0.00116594 0 0.507508 0.00116594
0 0.508135 0.00117365 0 0.508135 0.00117365 0 0.508415 0.0011781 0
0.508415 0.0011781 0 0.508527 0.00118081 0 0.508527 0.00118081 0 0.508564
0.00118268 0 0.508564 0.00118268 0 0.508571 0.00118413 0 0.508571 0.00118413
0 0.508565 0.00118535 0 0.508565 0.00118535 0 0.508555 0.00118641 0
0.508555 0.00118641 0 0.508541 0.00118733 0 0.508541 0.00118733 0 0.508526
0.0011881 0 0.508526 0.0011881 0 0.508509 0.00118872 0 0.508509 0.00118872
0 0.50849 0.00118918 0 0.50849 0.00118918 0 0.508469 0.00118946 0
0.508469 0.00118946 0 0.508446 0.00118956 0 0.508446 0.00118956 0 0.508421
0.00118945 0 0.508421 0.00118945 0 0.508393 0.00118912 0 0.508393 0.00118912
0 0.508364 0.00118855 0 0.508364 0.00118855 0 0.508332 0.00118773 0
0.508332 0.00118773 0 0.508297 0.00118663 0 0.508297 0.00118663 0 0.50826
0.00118524 0 0.50826 0.00118524 0 0.50822 0.00118353 0 0.50822 0.00118353
0 0.508177 0.00118148 0 0.508177 0.00118148 0 0.508131 0.00117907 0
0.508131 0.00117907 0 0.508082 0.00117628 0 0.508082 0.00117628 0 0.508029
0.00117307 0 0.508029 0.00117307 0 0.507974 0.00116941 0 0.507974 0.00116941
0 0.507915 0.00116529 0 0.507915 0.00116529 0 0.507852 0.00116066 0
0.507852 0.00116066 0 0.507786 0.00115549 0 0.507786 0.00115549 0 0.507717
0.00114976 0 0.507717 0.00114976 0 0.507644 0.00114341 0 0.507644 0.00114341
0 0.507568 0.00113642 0 0.507568 0.00113642 0 0.507489 0.00112875 0
0.507489 0.00112875 0 0.507406 0.00112034 0 0.507406 0.00112034 0 0.50732
0.00111117 0 0.50732 0.00111117 0 0.507231 0.00110117 0 0.507231 0.00110117
0 0.50714 0.00109031 0 0.50714 0.00109031 0 0.507046 0.00107854 0
0.507046 0.00107854 0 0.506949 0.00106578 0 0.506949 0.00106578 0 0.506851
0.00105198 0 0.506851 0.00105198 0 
