/*--------------------------------*- C++ -*----------------------------------*\
| =========                 |                                                 |
| \\      /  F ield         | OpenFOAM: The Open Source CFD Toolbox           |
|  \\    /   O peration     | Version:  5.x                                   |
|   \\  /    A nd           | Web:      www.OpenFOAM.org                      |
|    \\/     M anipulation  |                                                 |
\*---------------------------------------------------------------------------*/
FoamFile
{
    version     2.0;
    format      ascii;
    class       volScalarField;
    location    "0.5";
    object      p;
}
// * * * * * * * * * * * * * * * * * * * * * * * * * * * * * * * * * * * * * //

dimensions      [0 2 -2 0 0 0 0];

internalField   nonuniform List<scalar> 
21600
(
0.044273193
0.041688017
0.036710727
0.032016509
0.028445952
0.025833371
0.023708253
0.021671403
0.019500888
0.017117242
0.014527376
0.011792403
0.0090157966
0.0063363086
0.0039161721
0.0019184257
0.00046497634
-0.00039524856
-0.00069576396
-0.00053879597
-6.2459922e-05
0.00059444262
0.0013162523
0.002019578
0.0026526888
0.0031893472
0.003621533
0.0039535183
0.0041970459
0.0043672077
0.0044794622
0.0045478801
0.0045844025
0.0045986582
0.0045981163
0.0045883414
0.0045733334
0.00455583
0.0045376187
0.0045197675
0.0045028499
0.0044870832
0.0044724712
0.0044588694
0.0044460708
0.0044338232
0.0044218826
0.0044100037
0.0043979779
0.004385612
0.0043727593
0.0043592896
0.0043451183
0.0043301723
0.0043144194
0.0042978317
0.0042804167
0.0042621785
0.0042431515
0.00422336
0.0042028538
0.0041816672
0.0041598571
0.00413746
0.0041145336
0.0040911118
0.0040672492
0.0040429744
0.0040183368
0.0039933581
0.0039680823
0.0039425243
0.0039167227
0.0038906861
0.0038644485
0.0038380132
0.0038114108
0.0037846398
0.0037577286
0.0037306719
0.0037034963
0.0036761937
0.0036487898
0.0036212739
0.003593671
0.0035659686
0.0035381915
0.0035103251
0.0034823943
0.0034543828
0.0034263158
0.0033981752
0.0033699864
0.0033417296
0.0033134307
0.0032850681
0.0032566682
0.0032282077
0.0031997137
0.0031711609
0.0031425772
0.0031139355
0.0030852647
0.0030565356
0.0030277782
0.0029989615
0.0029701166
0.0029412103
0.0029122754
0.0028832765
0.002854248
0.0028251522
0.0027960253
0.0027668272
0.0027375964
0.0027082898
0.0026789486
0.0026495267
0.0026200681
0.0025905236
0.0025609401
0.0025312651
0.002501549
0.0024717352
0.0024418784
0.0024119174
0.0023819115
0.0023517947
0.0023216313
0.0022913499
0.0022610206
0.0022305659
0.0022000625
0.0021694259
0.0021387404
0.0021079135
0.0020770381
0.0020460127
0.00201494
0.0019837083
0.0019524314
0.0019209859
0.0018894984
0.0018578323
0.0018261286
0.0017942356
0.0017623108
0.0017301852
0.0016980356
0.0016656728
0.0016332955
0.0016006918
0.0015680854
0.0015352382
0.0015024026
0.0014693106
0.0014362476
0.001402911
0.0013696242
0.0013360449
0.0013025405
0.0012687223
0.0012350087
0.0012009581
0.0011670472
0.0011327729
0.0010986801
0.0010641941
0.0010299391
0.00099525743
0.0009608651
0.000926008
0.00089150935
0.00085650237
0.00082193569
0.00078681085
0.00075222358
0.0007170209
0.00068247142
0.00064724049
0.00061280102
0.00057760376
0.00054336399
0.0005082778
0.00047434961
0.00043947185
0.00040599593
0.00037144937
0.00033860419
0.00030454634
0.00027256371
0.00023920016
0.00020838622
0.00017598763
0.00014676117
0.00011569482
8.8658061e-05
5.9402431e-05
3.5505157e-05
8.3584883e-06
0.039765821
0.038573721
0.035264824
0.03141273
0.028056916
0.02542104
0.023271244
0.021275779
0.019197348
0.016926091
0.014450486
0.011825946
0.0091546455
0.0065749067
0.004243879
0.0023076645
0.0008769131
2.0459875e-06
-0.00033893295
-0.0002335167
0.00019157153
0.0008027851
0.0014849693
0.0021540174
0.0027590373
0.0032740165
0.0036901527
0.0040107897
0.0042465353
0.0044113595
0.0045198465
0.0045854746
0.0046198049
0.0046322245
0.0046300537
0.0046187691
0.0046023246
0.0045834368
0.0045638884
0.0045447495
0.0045265998
0.0045096619
0.0044939447
0.0044793051
0.0044655371
0.0044523871
0.0044396088
0.004426952
0.0044142042
0.0044011668
0.0043876891
0.0043736359
0.0043589192
0.0043434617
0.0043272283
0.0043101878
0.0042923455
0.0042737028
0.0042542926
0.0042341368
0.0042132842
0.0041917672
0.004169642
0.0041469435
0.004123729
0.004100031
0.0040759039
0.004051375
0.0040264938
0.0040012807
0.00397578
0.0039500053
0.0039239955
0.003897758
0.0038713275
0.0038447058
0.0038179241
0.0037909799
0.0037639019
0.0037366839
0.003709353
0.0036819
0.0036543512
0.0036266948
0.0035989566
0.0035711228
0.003543219
0.0035152295
0.0034871801
0.0034590532
0.003430875
0.0034026259
0.0033743326
0.0033459738
0.0033175767
0.0032891181
0.0032606258
0.0032320747
0.0032034937
0.0031748554
0.0031461896
0.0031174671
0.0030887188
0.0030599133
0.0030310827
0.0030021936
0.0029732795
0.0029443047
0.0029153044
0.0028862404
0.00285715
0.0028279924
0.0027988069
0.0027695501
0.0027402636
0.0027109012
0.0026815073
0.0026520323
0.0026225236
0.0025929285
0.0025632975
0.0025335742
0.002503813
0.0024739531
0.0024440535
0.0024140485
0.0023840019
0.002353843
0.002323641
0.0022933193
0.0022629534
0.00223246
0.0022019218
0.0021712482
0.0021405296
0.0021096671
0.0020787603
0.0020477007
0.0020165982
0.0019853336
0.0019540284
0.0019225513
0.001891037
0.0018593404
0.0018276112
0.0017956888
0.0017637399
0.0017315859
0.0016994134
0.0016670232
0.0016346242
0.001601994
0.0015693671
0.0015364942
0.0015036393
0.0014705223
0.0014374411
0.0014040803
0.0013707765
0.0013371736
0.001303653
0.0012698119
0.0012360833
0.0012020102
0.0011680853
0.0011337891
0.0010996832
0.0010651758
0.0010309088
0.00099620605
0.0009618026
0.00092692486
0.00089241604
0.00085738877
0.00082281286
0.00078766804
0.00075307248
0.00071785009
0.00068329325
0.00064804286
0.00061359698
0.00057838047
0.00054413525
0.00050903002
0.00047509735
0.00044020076
0.00040672133
0.00037215616
0.0003393085
0.0003052323
0.00027324824
0.00023986668
0.00020905246
0.00017663634
0.00014741087
0.00011632766
8.9293676e-05
6.0021584e-05
3.6128782e-05
8.9763492e-06
0.036541744
0.036065574
0.033953881
0.030926874
0.027854969
0.025188604
0.022949522
0.020932605
0.018913508
0.016755068
0.014421741
0.011956473
0.0094547324
0.0070441173
0.0048620196
0.0030322054
0.0016476222
0.00075403134
0.00034030657
0.00034070048
0.00065177418
0.0011571785
0.0017507391
0.0023501663
0.0028998616
0.0033711195
0.0037553424
0.0040551113
0.0042789394
0.0044381372
0.0045448608
0.0046107752
0.0046462656
0.0046600263
0.0046590089
0.0046485177
0.0046324548
0.0046135494
0.004593635
0.0045738449
0.0045548277
0.0045368676
0.0045200292
0.0045042131
0.0044892494
0.0044749102
0.0044609709
0.0044471944
0.0044333797
0.0044193331
0.0044049076
0.0043899671
0.0043744237
0.004358196
0.0043412478
0.0043235427
0.0043050842
0.0042858684
0.0042659261
0.0042452742
0.0042239601
0.0042020112
0.0041794827
0.0041564053
0.0041328356
0.0041088025
0.0040843602
0.0040595325
0.0040343693
0.0040088881
0.0039831336
0.0039571167
0.0039308772
0.0039044199
0.0038777805
0.0038509585
0.0038239863
0.0037968589
0.0037696064
0.0037422203
0.0037147293
0.0036871218
0.0036594256
0.0036316267
0.0036037526
0.003575787
0.0035477576
0.0035196461
0.0034914803
0.0034632402
0.0034349539
0.0034065994
0.0033782056
0.0033497486
0.0033212578
0.0032927074
0.0032641277
0.0032354908
0.0032068279
0.0031781092
0.0031493668
0.0031205688
0.0030917487
0.0030628722
0.0030339741
0.0030050182
0.0029760407
0.0029470028
0.0029179428
0.0028888193
0.0028596727
0.0028304588
0.0028012202
0.0027719102
0.0027425737
0.0027131608
0.0026837196
0.0026541967
0.0026246434
0.0025950028
0.0025653296
0.002535563
0.0025057619
0.0024758608
0.0024459234
0.0024158791
0.0023857967
0.0023556003
0.0023253644
0.0022950069
0.0022646089
0.0022340814
0.0022035127
0.0021728064
0.0021420589
0.0021111651
0.0020802309
0.0020491413
0.0020180129
0.0019867194
0.0019553897
0.0019238848
0.0018923473
0.001860624
0.0018288728
0.0017969246
0.0017649549
0.0017327761
0.001700584
0.0016681697
0.0016357523
0.0016030987
0.0015704544
0.0015375589
0.0015046876
0.0014715487
0.0014384522
0.00140507
0.0013717518
0.0013381281
0.0013045941
0.0012707327
0.0012369916
0.0012028986
0.0011689622
0.0011346464
0.00110053
0.0010660034
0.0010317266
0.00099700494
0.00096259278
0.00092769627
0.00089317965
0.00085813377
0.00082355099
0.00078838767
0.00075378616
0.00071854533
0.00068398349
0.00064871466
0.00061426474
0.00057902975
0.00054478145
0.00050965764
0.00047572289
0.00044080756
0.00040732708
0.00037274296
0.00033989527
0.00030579988
0.00027381683
0.00024041579
0.00020960361
0.00017716771
0.00014794528
0.00011684201
8.9811927e-05
6.0521303e-05
3.6610858e-05
9.424904e-06
0.034254694
0.034043133
0.032620205
0.030259309
0.02753273
0.024933729
0.022647082
0.020602214
0.018626825
0.016578387
0.014400211
0.012116958
0.0098086555
0.0075852398
0.0055635808
0.003848443
0.0025187134
0.0016158817
0.0011368416
0.0010339639
0.0012254653
0.0016133884
0.0021029126
0.0026160584
0.0030978036
0.0035175189
0.0038640433
0.0041377075
0.004344687
0.0044938589
0.0045951482
0.0046584337
0.0046928304
0.0047061999
0.0047049882
0.0046942098
0.0046776238
0.0046579044
0.0046368904
0.0046157497
0.004595185
0.0045755359
0.0045569237
0.004539295
0.0045225206
0.0045063983
0.0044907269
0.0044752872
0.0044598946
0.0044443615
0.0044285469
0.0044123123
0.0043955693
0.0043782301
0.004360255
0.0043415998
0.0043222635
0.0043022342
0.0042815386
0.0042601858
0.0042382199
0.0042156615
0.0041925636
0.0041689506
0.0041448782
0.0041203698
0.0040954794
0.0040702263
0.0040446607
0.004018796
0.0039926779
0.0039663135
0.0039397441
0.003912971
0.0038860315
0.0038589216
0.0038316757
0.0038042857
0.0037767835
0.0037491574
0.0037214381
0.0036936111
0.0036657061
0.0036377062
0.0036096409
0.0035814911
0.0035532864
0.0035250057
0.003496679
0.0034682832
0.0034398488
0.0034113509
0.0033828206
0.0033542312
0.0033256144
0.0032969415
0.0032682453
0.0032394948
0.003210724
0.0031818998
0.0031530573
0.0031241612
0.0030952479
0.0030662799
0.0030372952
0.0030082539
0.0029791955
0.0029500778
0.0029209423
0.0028917441
0.0028625268
0.0028332429
0.0028039382
0.0027745624
0.0027451639
0.0027156892
0.0026861899
0.0026566087
0.0026270009
0.0025973052
0.0025675808
0.0025377623
0.0025079129
0.0024779628
0.0024479799
0.0024178892
0.002387764
0.0023575237
0.0023272474
0.0022968482
0.002266412
0.0022358448
0.0022052402
0.0021744961
0.0021437147
0.002112785
0.0020818188
0.0020506949
0.0020195362
0.00198821
0.0019568517
0.0019253156
0.001893751
0.0018619977
0.0018302211
0.0017982441
0.0017662504
0.001734044
0.0017018291
0.0016693884
0.0016369495
0.0016042705
0.001571606
0.0015386859
0.0015057956
0.0014726329
0.0014395185
0.0014061133
0.0013727783
0.0013391323
0.0013055826
0.0012716996
0.0012379438
0.0012038297
0.0011698796
0.0011355433
0.0011014141
0.0010668674
0.0010325789
0.00099783755
0.00096341446
0.00092849868
0.00089397202
0.00085890718
0.00082431525
0.00078913321
0.00075452341
0.00071926407
0.00068469477
0.00064940757
0.000614951
0.00057969774
0.00054544358
0.00051030155
0.00047636166
0.00044142812
0.00040794314
0.0003733408
0.00034048913
0.00030637548
0.00027438874
0.00024096943
0.00021015346
0.00017769932
0.00014847223
0.00011735134
9.0313164e-05
6.1011595e-05
3.7037807e-05
9.8106612e-06
0.032430398
0.032297508
0.031249679
0.029378449
0.027021686
0.024587259
0.022328355
0.020280901
0.018344922
0.016399375
0.014375748
0.012276498
0.010160757
0.0081188451
0.0062492896
0.0046419462
0.0033656991
0.0024593253
0.0019259572
0.0017321979
0.0018142813
0.0020909336
0.0024789966
0.0029064976
0.0033203982
0.0036886966
0.00399727
0.0042437155
0.0044319754
0.0045689567
0.0046627945
0.0047218174
0.0047539192
0.0047660706
0.0047641194
0.0047526984
0.0047353479
0.0047146289
0.0046923448
0.0046696702
0.0046473472
0.0046257626
0.0046050936
0.004585335
0.0045664047
0.0045481353
0.0045303588
0.0045128772
0.004495526
0.0044781268
0.0044605479
0.0044426507
0.0044243491
0.00440555
0.0043862125
0.0043662845
0.0043457625
0.0043246256
0.0043028976
0.0042805788
0.0042577106
0.0042343053
0.0042104139
0.0041860535
0.0041612785
0.0041361057
0.0041105888
0.0040847411
0.0040586132
0.0040322132
0.0040055877
0.0039787392
0.0039517101
0.0039244974
0.00389714
0.0038696299
0.0038420033
0.0038142481
0.0037863984
0.0037584386
0.0037304016
0.003702269
0.0036740731
0.0036457931
0.0036174612
0.0035890543
0.0035606049
0.0035320879
0.0035035362
0.003474923
0.0034462815
0.0034175832
0.003388862
0.0033600875
0.0033312945
0.0033024506
0.0032735914
0.0032446826
0.0032157609
0.0031867899
0.0031578075
0.0031287751
0.003099732
0.0030706373
0.003041532
0.0030123728
0.0029832022
0.0029539746
0.0029247346
0.002895434
0.0028661193
0.0028367396
0.002807344
0.0027778787
0.0027483953
0.0027188368
0.0026892581
0.0026595984
0.0026299162
0.002600147
0.0025703529
0.0025404652
0.0025105506
0.0024805355
0.0024504913
0.0024203394
0.0023901568
0.0023598587
0.0023295284
0.0022990748
0.0022685878
0.0022379692
0.0022073168
0.0021765242
0.0021456977
0.002114722
0.0020837134
0.0020525459
0.0020213473
0.0019899798
0.0019585837
0.0019270084
0.0018954082
0.0018636177
0.0018318075
0.0017997951
0.0017677696
0.0017355295
0.0017032847
0.0016708117
0.0016383446
0.0016056347
0.0015729436
0.001539994
0.0015070785
0.0014738876
0.0014407495
0.0014073172
0.0013739598
0.0013402878
0.001306717
0.0012728089
0.0012390332
0.001204895
0.0011709261
0.0011365665
0.0011024197
0.0010678504
0.0010335453
0.00099878207
0.00096434343
0.00092940636
0.00089486509
0.00085977953
0.00082517386
0.00078997163
0.00075534891
0.00072006984
0.00068548835
0.00065018185
0.00061571372
0.00058044156
0.00054617634
0.0005110158
0.00047706517
0.00044211349
0.00040861784
0.00037399774
0.00034113509
0.00030700415
0.00027500547
0.00024156945
0.00021073954
0.00017826967
0.00014902439
0.00011789073
9.0822667e-05
6.1523097e-05
3.7423999e-05
1.0151961e-05
0.030855237
0.03073426
0.029895152
0.028371904
0.026361293
0.024154924
0.021996335
0.019986334
0.01809672
0.016243826
0.014361017
0.012433483
0.01049805
0.0086245594
0.0068949858
0.0053870123
0.004162057
0.0032571968
0.0026803733
0.0024091321
0.0023943605
0.0025693885
0.0028623782
0.0032081708
0.0035564192
0.003874394
0.0041453808
0.0043642491
0.0045327796
0.0046561788
0.0047411205
0.0047946189
0.0048234478
0.0048336862
0.0048305356
0.0048181855
0.0047999049
0.0047780982
0.0047545034
0.004730279
0.0047061911
0.0046826626
0.0046599206
0.0046380032
0.0046168748
0.0045964025
0.0045764529
0.0045568477
0.0045374438
0.0045180717
0.0044986115
0.0044789255
0.0044589326
0.0044385354
0.0044176944
0.0043963502
0.0043744987
0.0043521104
0.0043292078
0.0043057822
0.0042818737
0.0042574857
0.0042326685
0.0042074309
0.0041818271
0.0041558663
0.004129603
0.0041030432
0.0040762391
0.0040491924
0.0040219516
0.0039945131
0.0039669219
0.0039391694
0.0039112972
0.0038832921
0.0038551932
0.0038269832
0.0037986995
0.0037703215
0.0037418854
0.0037133678
0.0036848045
0.0036561699
0.0036274995
0.0035987657
0.0035700041
0.0035411855
0.0035123457
0.0034834537
0.0034545461
0.00342559
0.0033966227
0.0033676095
0.0033385885
0.0033095232
0.0032804526
0.0032513383
0.0032222204
0.0031930585
0.0031638937
0.0031346836
0.0031054708
0.0030762107
0.0030469473
0.0030176338
0.0029883159
0.0029589443
0.0029295669
0.0029001317
0.0028706886
0.0028411831
0.0028116675
0.0027820844
0.0027524887
0.00272282
0.0026931361
0.0026633731
0.0026335924
0.0026037262
0.0025738398
0.0025438611
0.0025138598
0.0024837592
0.0024536337
0.0024234015
0.0023931423
0.0023627687
0.0023323665
0.0023018417
0.0022712871
0.0022406015
0.0022098855
0.0021790296
0.0021481433
0.0021171079
0.0020860428
0.002054819
0.0020235671
0.0019921464
0.0019607001
0.0019290744
0.0018974269
0.0018655887
0.0018337337
0.0018016761
0.0017696085
0.0017373255
0.0017050408
0.0016725272
0.0016400223
0.0016072739
0.001574547
0.0015415608
0.0015086116
0.0014753857
0.0014422157
0.0014087501
0.0013753625
0.0013416587
0.0013080593
0.0012741208
0.0012403181
0.0012061508
0.0011721563
0.0011377689
0.0011035977
0.0010690018
0.0010346735
0.00099988481
0.00096542408
0.00093046254
0.00089590018
0.00086079111
0.00082616524
0.0007909404
0.00075629824
0.00072099741
0.00068639707
0.00065106966
0.00061658306
0.0005812908
0.00054700723
0.00051182745
0.00047785823
0.00044288819
0.00040937316
0.00037473574
0.00034185217
0.00030770513
0.0002756827
0.00024223223
0.00021137354
0.000178892
0.00014960812
0.00011847007
9.1338577e-05
6.2059067e-05
3.7759489e-05
1.0440614e-05
0.029441427
0.029312936
0.028603866
0.027333847
0.025620452
0.02365985
0.021651453
0.019720268
0.017890836
0.016122166
0.014361867
0.012586446
0.010813656
0.0090936486
0.0074925793
0.0060771448
0.0049026933
0.0040050126
0.0033956299
0.0030603677
0.0029617746
0.0030456959
0.0032509952
0.003519696
0.0038047351
0.0040733785
0.0043069485
0.0044978559
0.0046458098
0.0047544424
0.0048291659
0.0048758701
0.0049003282
0.0049077663
0.0049027282
0.0048889258
0.0048693208
0.0048461295
0.0048210007
0.0047950575
0.0047690769
0.0047435056
0.004718613
0.0046944733
0.0046710934
0.0046483703
0.0046262033
0.0046044308
0.0045829302
0.0045615392
0.0045401506
0.0045186267
0.0044968933
0.004474848
0.0044524543
0.0044296445
0.0044064157
0.0043827285
0.0043586056
0.0043340279
0.0043090355
0.0042836216
0.0042578368
0.0042316801
0.004205207
0.0041784173
0.0041513675
0.0041240551
0.004096535
0.0040688008
0.0040409044
0.004012835
0.0039846411
0.0039563071
0.003927879
0.0038993367
0.0038707238
0.0038420166
0.0038132569
0.003784418
0.0037555407
0.0037265955
0.0036976229
0.0036685912
0.0036395408
0.0036104381
0.0035813235
0.0035521618
0.0035229938
0.0034937825
0.0034645695
0.003435316
0.0034060641
0.0033767736
0.0033474874
0.0033181633
0.0032888452
0.0032594893
0.0032301402
0.0032007523
0.0031713714
0.00314195
0.003112535
0.003083077
0.0030536242
0.0030241253
0.00299463
0.0029650845
0.0029355407
0.0029059424
0.0028763432
0.0028466845
0.0028170224
0.0027872953
0.002757562
0.0027277579
0.0026979446
0.0026680544
0.002638152
0.0026081661
0.0025781651
0.0025480738
0.0025179646
0.0024877578
0.0024575306
0.0024271983
0.0023968434
0.0023663754
0.0023358829
0.0023052691
0.0022746292
0.0022438597
0.0022130631
0.0021821279
0.0021511656
0.0021200553
0.0020889183
0.0020576238
0.0020263039
0.0019948163
0.0019633058
0.0019316168
0.0018999085
0.0018680104
0.0018360978
0.0018039836
0.0017718614
0.0017395247
0.0017071883
0.0016746239
0.00164207
0.0016092733
0.0015765
0.001543468
0.0015104747
0.0014772055
0.0014439935
0.0014104867
0.0013770592
0.0013433163
0.001309679
0.0012757034
0.0012418645
0.0012076619
0.0011736329
0.0011392118
0.0011050077
0.0010703798
0.00103602
0.0010012008
0.00096670978
0.00093171928
0.00089712765
0.00086199105
0.00082733678
0.00079208579
0.00075741586
0.00072209026
0.00068746252
0.0006521117
0.00061759771
0.00058228345
0.00054797206
0.00051277178
0.00047877365
0.00044378476
0.00041023882
0.00037558451
0.00034266672
0.00030850522
0.00027644299
0.00024298145
0.00021207343
0.00017958668
0.00015023537
0.00011910561
9.1864712e-05
6.2625929e-05
3.8044587e-05
1.0687192e-05
0.028151444
0.028014156
0.027397348
0.026318617
0.024850483
0.023123654
0.021289464
0.019469205
0.017717555
0.016029959
0.014375389
0.012731024
0.011101673
0.009520218
0.0080377424
0.0067103426
0.0055874696
0.0047033185
0.0040718847
0.0036852859
0.0035154087
0.0035187625
0.0036440551
0.0038405109
0.004064853
0.0042850897
0.004481297
0.0046438439
0.0047705053
0.0048633889
0.0049267373
0.0049654471
0.0049844091
0.0049880654
0.0049803243
0.0049644111
0.0049429588
0.0049179704
0.0048909845
0.0048630692
0.0048349976
0.0048072276
0.0047800609
0.0047535989
0.0047278857
0.0047028421
0.0046783965
0.0046544009
0.004630752
0.0046072926
0.0045839284
0.0045605209
0.0045370034
0.0045132679
0.0044892817
0.0044649685
0.0044403271
0.0044153074
0.0043899332
0.0043641738
0.0043380704
0.0043116047
0.0042848286
0.0042577302
0.0042303669
0.0042027282
0.0041748734
0.0041467903
0.0041185374
0.0040900991
0.0040615317
0.0040328154
0.004004004
0.0039750734
0.003946075
0.0039169805
0.0038878395
0.00385862
0.0038293703
0.0038000553
0.0037707225
0.0037413343
0.0037119378
0.0036824934
0.003653048
0.0036235603
0.0035940774
0.0035645561
0.0035350441
0.0035054968
0.0034759621
0.003446394
0.0034168412
0.0033872559
0.0033576876
0.003328087
0.0032985044
0.0032688887
0.0032392912
0.0032096591
0.0031800447
0.0031503935
0.0031207588
0.0030910844
0.0030614248
0.0030317219
0.0030020317
0.0029722939
0.0029425662
0.0029127863
0.0028830137
0.0028531836
0.0028233577
0.0027934687
0.0027635807
0.0027336236
0.0027036641
0.0026736291
0.0026435884
0.0026134656
0.0025833338
0.0025531129
0.0025228799
0.0024925505
0.0024622061
0.0024317577
0.0024012916
0.0023707137
0.0023401158
0.0023093979
0.0022786582
0.0022477899
0.0022168987
0.0021858699
0.0021548177
0.0021236187
0.0020923964
0.0020610177
0.0020296169
0.0019980494
0.001966462
0.0019346973
0.0019029158
0.0018709458
0.0018389638
0.0018067813
0.001774593
0.0017421916
0.0017097923
0.0016771664
0.0016445526
0.0016116976
0.0015788672
0.0015457797
0.001512732
0.0014794102
0.0014461463
0.0014125895
0.0013791125
0.001345322
0.0013116373
0.0012776166
0.0012437323
0.0012094869
0.0011754142
0.0011409526
0.0011067064
0.00107204
0.0010376397
0.001002784
0.00096825373
0.00093322867
0.00089859879
0.00086342955
0.00082873779
0.00079345609
0.00075874908
0.00072339468
0.00068872985
0.00065335224
0.0006188006
0.00058346167
0.00054911139
0.00051388879
0.00047984954
0.00044484095
0.0004112502
0.00037657943
0.00034361109
0.00030943732
0.00027731517
0.00024384729
0.0002128638
0.00018038075
0.00015092552
0.00011981964
9.2414409e-05
6.323423e-05
3.82947e-05
1.0918477e-05
0.026967116
0.026826113
0.026282147
0.025351454
0.024082903
0.022564622
0.020908093
0.019217638
0.017560037
0.015955931
0.014395824
0.012864341
0.011360097
0.0099029244
0.0085303473
0.007287893
0.0062185748
0.005354244
0.0047103378
0.0042838227
0.0040541936
0.0039870529
0.004039978
0.0041691502
0.0043354466
0.0045083083
0.0046672736
0.0048011485
0.0049059671
0.0049823475
0.0050333871
0.0050630629
0.0050754828
0.0050743905
0.0050631079
0.0050443886
0.0050205291
0.0049933014
0.0049641125
0.0049339563
0.0049035849
0.0048734527
0.0048438829
0.004814995
0.0047868628
0.0047594256
0.0047326367
0.0047063589
0.0046805065
0.0046549262
0.0046295358
0.0046041954
0.0045788461
0.004553374
0.0045277508
0.004501891
0.0044757955
0.0044494036
0.0044227403
0.0043957632
0.0043685147
0.0043409648
0.0043131672
0.0042850983
0.004256818
0.004228305
0.0041996217
0.0041707457
0.0041417394
0.0041125775
0.0040833211
0.004053941
0.0040244966
0.0039949544
0.003965372
0.0039357122
0.003906031
0.0038762876
0.003846537
0.0038167355
0.0037869376
0.0037570969
0.0037272678
0.0036974019
0.0036675536
0.0036376727
0.003607814
0.0035779254
0.0035480625
0.0035181715
0.0034883087
0.0034584186
0.0034285584
0.0033986711
0.0033688144
0.00333893
0.0033090765
0.0032791938
0.0032493415
0.0032194578
0.0031896034
0.0031597148
0.0031298539
0.0030999553
0.003070082
0.0030401672
0.003010275
0.0029803366
0.002950418
0.0029204481
0.0028904946
0.0028604844
0.0028304872
0.0028004274
0.0027703768
0.0027402575
0.0027101439
0.0026799548
0.0026497678
0.0026194986
0.0025892277
0.0025588676
0.0025285024
0.0024980406
0.0024675704
0.002436996
0.0024064103
0.0023757124
0.0023450006
0.0023141684
0.0022833203
0.0022523432
0.0022213486
0.0021902162
0.0021590655
0.0021277676
0.0020964515
0.0020649786
0.0020334882
0.002001831
0.0019701581
0.0019383079
0.0019064448
0.0018743932
0.0018423332
0.001810073
0.0017778102
0.0017453347
0.0017128642
0.0016801676
0.0016474857
0.0016145633
0.0015816677
0.001548516
0.0015154059
0.0014820229
0.001448699
0.001415084
0.0013815494
0.0013477034
0.0013139633
0.0012798897
0.0012459522
0.0012116565
0.0011775324
0.0011430229
0.0011087269
0.0010740151
0.0010395664
0.0010046677
0.00097009014
0.00093502442
0.00090034805
0.00086514053
0.00083040275
0.0007950852
0.00076033213
0.00072494439
0.00069023291
0.00065482462
0.00062022498
0.00058485826
0.00055045762
0.00051521059
0.0004811172
0.00044608801
0.00041243724
0.00037775071
0.00034471354
0.00031053036
0.00027832537
0.00024485705
0.00021376816
0.00018129918
0.00015169919
0.00012063233
9.3005775e-05
6.3893345e-05
3.8534647e-05
1.1163864e-05
0.025877408
0.025739021
0.025256039
0.024442889
0.023336311
0.021997874
0.020509576
0.018956118
0.017404188
0.015888845
0.014417789
0.012985824
0.011591028
0.010244991
0.0089740469
0.0078135345
0.0067994364
0.0059603888
0.0053123124
0.004855886
0.0045768775
0.004448651
0.0044366586
0.0045036304
0.0046147941
0.0047415875
0.0048636496
0.0049687132
0.0050513159
0.0051106486
0.0051486662
0.0051684578
0.0051734212
0.0051666864
0.0051510536
0.0051288393
0.0051020104
0.0050720977
0.0050403584
0.0050076926
0.0049748128
0.0049421557
0.0049100532
0.0048786342
0.0048479949
0.0048180877
0.0047888868
0.0047602636
0.004732148
0.0047043897
0.0046769175
0.00464959
0.0046223555
0.0045950946
0.0045677829
0.0045403265
0.0045127281
0.004484917
0.0044569186
0.00442868
0.004400244
0.0043715697
0.0043427118
0.004313636
0.0042844039
0.0042549839
0.0042254409
0.0041957428
0.0041659555
0.0041360441
0.0041060742
0.0040760075
0.0040459083
0.0040157344
0.003985549
0.0039553061
0.0039250678
0.0038947848
0.0038645186
0.0038342167
0.0038039405
0.003773635
0.0037433616
0.0037130632
0.0036828017
0.0036525178
0.0036222742
0.0035920096
0.0035617876
0.0035315452
0.0035013468
0.0034711278
0.0034409536
0.0034107579
0.0033806071
0.0033504331
0.0033203034
0.0032901483
0.0032600364
0.0032298962
0.0031997974
0.0031696669
0.0031395755
0.0031094483
0.0030793577
0.0030492266
0.003019129
0.0029889858
0.0029588728
0.0029287087
0.0028985712
0.0028683767
0.0028382049
0.00280797
0.0027777539
0.0027474681
0.0027171971
0.0026868496
0.002656513
0.0026260929
0.0025956797
0.0025651757
0.002534675
0.002504076
0.0024734767
0.0024427712
0.0024120625
0.0023812394
0.0023504103
0.0023194585
0.0022884983
0.0022574068
0.0022263052
0.0021950634
0.0021638103
0.0021324079
0.0021009939
0.0020694209
0.0020378368
0.0020060838
0.0019743212
0.0019423792
0.0019104303
0.0018782908
0.0018461485
0.0018138041
0.0017814624
0.0017489062
0.0017163601
0.0016835862
0.0016508317
0.0016178352
0.0015848697
0.0015516471
0.0015184699
0.0014850189
0.0014516305
0.0014179504
0.0013843534
0.0013504452
0.0013166449
0.0012825119
0.001248516
0.0012141636
0.0011799828
0.0011454191
0.0011110679
0.0010763046
0.0010418018
0.0010068543
0.00097222343
0.00093711143
0.00090238224
0.00086713117
0.00083234055
0.0007969823
0.00076217573
0.00072675033
0.00069198395
0.00065654132
0.00062188435
0.00058648702
0.0005520253
0.00051675204
0.00048259191
0.00044754163
0.00041381569
0.00037911466
0.00034599
0.00031180096
0.00027948948
0.00024602718
0.0002148023
0.00018235716
0.00015257249
0.00012155508
9.3656338e-05
6.4607547e-05
3.8791607e-05
1.144408e-05
0.024873951
0.024744066
0.024313923
0.023596526
0.022621741
0.021435705
0.0200999
0.01868179
0.017241536
0.015820132
0.014436744
0.013095798
0.01179829
0.010551728
0.009374129
0.0082917561
0.0073334274
0.0065238639
0.0058785782
0.0054009505
0.0050818822
0.0049013337
0.0048316719
0.0048416866
0.0049009836
0.0049834013
0.0050692163
0.0051455573
0.0052057502
0.0052476698
0.0052721444
0.0052813879
0.0052781325
0.0052649657
0.005244234
0.0052178644
0.0051875138
0.0051544723
0.0051198333
0.0050843866
0.0050487865
0.0050134379
0.0049786678
0.0049446069
0.0049113652
0.0048789049
0.0048472161
0.0048161781
0.0047857329
0.004755734
0.0047261184
0.0046967448
0.0046675661
0.0046384596
0.0046094025
0.0045802949
0.0045511393
0.0045218569
0.0044924723
0.0044629236
0.0044332525
0.004403409
0.0043734471
0.0043433235
0.0043130998
0.0042827358
0.0042522973
0.004221744
0.0041911433
0.0041604529
0.0041297407
0.0040989609
0.004068181
0.0040373519
0.0040065401
0.003975693
0.0039448768
0.0039140352
0.0038832344
0.0038524152
0.0038216437
0.0037908581
0.0037601251
0.0037293805
0.0036986918
0.0036679926
0.0036373513
0.0036066995
0.0035761069
0.003545503
0.0035149587
0.0034844018
0.0034539042
0.0034233919
0.0033929383
0.0033624674
0.0033320538
0.0033016197
0.0032712412
0.0032408384
0.003210489
0.0031801109
0.0031497836
0.0031194228
0.0030891096
0.0030587577
0.0030284499
0.0029980979
0.0029677862
0.0029374242
0.0029070987
0.0028767164
0.0028463666
0.0028159533
0.0027855684
0.0027551129
0.0027246817
0.0026941728
0.0026636839
0.0026331099
0.002602552
0.0025719013
0.0025412629
0.0025105237
0.0024797932
0.0024489539
0.00241812
0.002387169
0.0023562205
0.0023251462
0.0022940721
0.0022628633
0.0022316529
0.0022002986
0.0021689416
0.0021374313
0.0021059177
0.0020742413
0.002042562
0.0020107096
0.0019788558
0.0019468184
0.001914782
0.0018825508
0.0018503246
0.0018178921
0.0017854699
0.001752829
0.0017202055
0.0016873501
0.0016545211
0.0016214463
0.0015884091
0.0015551113
0.0015218649
0.0014883416
0.0014548864
0.0014211368
0.0013874752
0.0013535001
0.0013196372
0.0012854401
0.0012513833
0.0012169695
0.0011827293
0.0011481068
0.0011136973
0.001078878
0.0010443177
0.0010093169
0.00097462902
0.00093946653
0.00090468023
0.00086938166
0.00083453332
0.00079913079
0.00076426509
0.00072879889
0.00069397102
0.00065849154
0.00062376942
0.00058833974
0.00055380755
0.00051850734
0.00048426909
0.00044919824
0.00041538308
0.00038066965
0.00034744
0.00031324909
0.0002808091
0.0002473587
0.00021597025
0.00018355573
0.0001535528
0.00012258687
9.4378181e-05
6.5373991e-05
3.9088105e-05
1.1763929e-05
0.023949892
0.023833897
0.023450722
0.02281272
0.021945917
0.020887879
0.019686638
0.01839624
0.017068465
0.015744238
0.01444891
0.0131942
0.011985191
0.010828205
0.0097357616
0.0087267768
0.0078234169
0.0070461597
0.0064093499
0.005918113
0.0055674191
0.0053427562
0.0052224978
0.0051809636
0.0051920314
0.0052321863
0.0052827666
0.0053307275
0.0053684933
0.0053927841
0.0054033521
0.0054015495
0.0053894661
0.0053691992
0.0053427004
0.0053115607
0.0052771558
0.0052405469
0.0052026562
0.005164152
0.0051256128
0.0050873989
0.0050498189
0.0050129977
0.0049770508
0.0049419473