/*--------------------------------*- C++ -*----------------------------------*\
| =========                 |                                                 |
| \\      /  F ield         | OpenFOAM: The Open Source CFD Toolbox           |
|  \\    /   O peration     | Version:  5.x                                   |
|   \\  /    A nd           | Web:      www.OpenFOAM.org                      |
|    \\/     M anipulation  |                                                 |
\*---------------------------------------------------------------------------*/
FoamFile
{
    version     2.0;
    format      ascii;
    class       surfaceScalarField;
    location    "0.5";
    object      phi;
}
// * * * * * * * * * * * * * * * * * * * * * * * * * * * * * * * * * * * * * //

dimensions      [0 3 -1 0 0 0 0];

internalField   nonuniform List<scalar> 
42870
(
7.853599e-08
2.9352377e-09
-8.1471228e-08
7.4588315e-08
3.9476747e-09
7.0426796e-08
4.1615193e-09
6.6317202e-08
4.1095938e-09
6.2249622e-08
4.0675797e-09
5.8180305e-08
4.0693172e-09
5.4101296e-08
4.0790094e-09
5.003213e-08
4.0691657e-09
4.6012671e-08
4.0194591e-09
4.2092055e-08
3.9206163e-09
3.8323168e-08
3.7688871e-09
3.4761144e-08
3.5620237e-09
3.146656e-08
3.2945838e-09
2.849597e-08
2.9705904e-09
2.5889967e-08
2.6060028e-09
2.367649e-08
2.2134768e-09
2.185805e-08
1.8184405e-09
2.0409668e-08
1.4483813e-09
1.928468e-08
1.1249881e-09
1.8425579e-08
8.591008e-10
1.7773412e-08
6.5216773e-10
1.727428e-08
4.9913163e-10
1.6882538e-08
3.9174178e-10
1.6561698e-08
3.2084003e-10
1.6285279e-08
2.7641947e-10
1.6034417e-08
2.5086143e-10
1.5795802e-08
2.386155e-10
1.5561103e-08
2.3469889e-10
1.5326073e-08
2.3503024e-10
1.5089294e-08
2.3677836e-10
1.4851078e-08
2.3821625e-10
1.4612617e-08
2.3846077e-10
1.4375458e-08
2.3715941e-10
1.4141142e-08
2.3431545e-10
1.3911043e-08
2.3009951e-10
1.3686256e-08
2.2478679e-10
1.3467602e-08
2.1865395e-10
1.3255619e-08
2.1198324e-10
1.3050618e-08
2.0500117e-10
1.2852704e-08
1.9791357e-10
1.2661843e-08
1.9086061e-10
1.2477878e-08
1.8396578e-10
1.2300582e-08
1.772952e-10
1.2129671e-08
1.7091165e-10
1.1964839e-08
1.6483195e-10
1.1805758e-08
1.5908114e-10
1.1652111e-08
1.5364712e-10
1.1503573e-08
1.4853782e-10
1.1359844e-08
1.4372858e-10
1.1220626e-08
1.3921787e-10
1.1085652e-08
1.3497403e-10
1.0954659e-08
1.3099275e-10
1.0827419e-08
1.2724057e-10
1.0703705e-08
1.2371377e-10
1.0583326e-08
1.2037942e-10
1.046609e-08
1.1723589e-10
1.0351838e-08
1.1425185e-10
1.024041e-08
1.1142846e-10
1.0131673e-08
1.0873646e-10
1.0025493e-08
1.0617994e-10
9.9217613e-09
1.0373177e-10
9.8203625e-09
1.0139882e-10
9.7212067e-09
9.9155842e-11
9.6241945e-09
9.7012157e-11
9.5292504e-09
9.4944096e-11
9.4362874e-09
9.2962994e-11
9.345241e-09
9.1046405e-11
9.2560338e-09
8.9207231e-11
9.1686098e-09
8.7423958e-11
9.0828992e-09
8.5710646e-11
8.9988527e-09
8.4046434e-11
8.9164065e-09
8.2446227e-11
8.8355169e-09
8.0889626e-11
8.7561248e-09
7.9392084e-11
8.6781912e-09
7.7933564e-11
8.6016614e-09
7.652985e-11
8.5265002e-09
7.5161216e-11
8.4526566e-09
7.3843593e-11
8.380099e-09
7.2557573e-11
8.3087799e-09
7.1319097e-11
8.2386708e-09
7.0109109e-11
8.1697274e-09
6.8943422e-11
8.1019239e-09
6.7803427e-11
8.0352192e-09
6.6704722e-11
7.96959e-09
6.5629199e-11
7.9049979e-09
6.4592116e-11
7.8414219e-09
6.3575987e-11
7.7788263e-09
6.2595609e-11
7.7171921e-09
6.1634231e-11
7.656486e-09
6.0706071e-11
7.5966908e-09
5.9795224e-11
7.5377756e-09
5.8915202e-11
7.4797245e-09
5.8051066e-11
7.422509e-09
5.7215483e-11
7.3661144e-09
5.6394612e-11
7.3105143e-09
5.5600126e-11
7.2556949e-09
5.4819414e-11
7.2016319e-09
5.4063003e-11
7.1483122e-09
5.3319656e-11
7.0957136e-09
5.2598588e-11
7.0438235e-09
5.1890079e-11
6.9926217e-09
5.1201873e-11
6.9420957e-09
5.0525924e-11
6.8922274e-09
4.9868328e-11
6.8430045e-09
4.9222868e-11
6.7944107e-09
4.8593821e-11
6.7464338e-09
4.7976971e-11
6.6990592e-09
4.7374588e-11
6.6522745e-09
4.678463e-11
6.6060674e-09
4.6207182e-11
6.5604248e-09
4.5642545e-11
6.5153364e-09
4.5088434e-11
6.4707887e-09
4.4547678e-11
6.4267733e-09
4.4015434e-11
6.383276e-09
4.3497242e-11
6.3402905e-09
4.2985506e-11
6.2978019e-09
4.2488661e-11
6.2558057e-09
4.1996171e-11
6.2142861e-09
4.1519551e-11
6.173241e-09
4.1045138e-11
6.1326533e-09
4.0587707e-11
6.092523e-09
4.0130283e-11
6.0528319e-09
3.9691086e-11
6.0135823e-09
3.9249648e-11
5.9747545e-09
3.88278e-11
5.9363531e-09
3.8401417e-11
5.898357e-09
3.7996099e-11
5.860773e-09
3.7583908e-11
5.8235787e-09
3.7194358e-11
5.7867831e-09
3.6795555e-11
5.7503621e-09
3.6421058e-11
5.7143272e-09
3.6034896e-11
5.6786524e-09
3.5674784e-11
5.6433518e-09
3.5300578e-11
5.6083976e-09
3.4954223e-11
5.5738062e-09
3.4591339e-11
5.5395481e-09
3.4258153e-11
5.5056421e-09
3.3906007e-11
5.4720567e-09
3.3585426e-11
5.4388132e-09
3.3243489e-11
5.4058782e-09
3.293498e-11
5.3732754e-09
3.2602768e-11
5.3409696e-09
3.2305815e-11
5.3089867e-09
3.1982907e-11
5.2772897e-09
3.1697017e-11
5.2459066e-09
3.1383039e-11
5.2147989e-09
3.1107712e-11
5.1839966e-09
3.0802334e-11
5.1534595e-09
3.0537068e-11
5.1232195e-09
3.0240038e-11
5.0932351e-09
2.9984349e-11
5.0635397e-09
2.9695469e-11
5.0340908e-09
2.944884e-11
5.0049228e-09
2.9167998e-11
4.9759929e-09
2.8929914e-11
4.9473359e-09
2.8657039e-11
4.918909e-09
2.8426914e-11
4.8907469e-09
2.8162062e-11
4.8628076e-09
2.7939324e-11
4.8351249e-09
2.7682645e-11
4.8076583e-09
2.746663e-11
4.7804399e-09
2.7218388e-11
4.7534315e-09
2.7008368e-11
4.7266626e-09
2.6768941e-11
4.7000985e-09
2.6564091e-11
4.6737644e-09
2.6334078e-11
4.6476309e-09
2.6133499e-11
4.6217173e-09
2.5913673e-11
4.596001e-09
2.5716279e-11
4.5704934e-09
2.5507625e-11
4.5451812e-09
2.5312188e-11
4.5200652e-09
2.5115998e-11
4.4951441e-09
2.4921093e-11
4.470405e-09
2.4739049e-11
4.4458621e-09
2.4542976e-11
4.4214849e-09
2.4377182e-11
4.397307e-09
2.4177879e-11
4.373276e-09
2.4031022e-11
4.3494499e-09
2.382608e-11
4.3257483e-09
2.370158e-11
4.3022603e-09
2.3488037e-11
4.27887e-09
2.3390281e-11
4.2557055e-09
2.3164524e-11
4.2326063e-09
2.3099185e-11
4.2097495e-09
2.2856771e-11
4.1869183e-09
2.2831196e-11
4.1643517e-09
2.2566594e-11
4.1417611e-09
2.2590667e-11
4.1194641e-09
2.2296942e-11
4.0970802e-09
2.2383968e-11
4.075028e-09
2.2052123e-11
4.0528073e-09
2.2220747e-11
4.030968e-09
2.1839324e-11
4.0088508e-09
2.21172e-11
3.9871807e-09
2.1670018e-11
3.9650817e-09
2.2099071e-11
3.9435212e-09
2.1560471e-11
3.9213166e-09
2.2204593e-11
3.8998165e-09
2.1500147e-11
2.3445961e-11
8.5868531e-08
2.6013939e-09
-8.5534687e-08
8.6007345e-08
3.8088606e-09
8.5655273e-08
4.5135918e-09
8.5021623e-08
4.7432438e-09
8.4248137e-08
4.8410661e-09
8.3353003e-08
4.9644508e-09
8.2296096e-08
5.135916e-09
8.1054494e-08
5.3107676e-09
7.963346e-08
5.4404932e-09
7.8053766e-08
5.5003106e-09
7.6340745e-08
5.4819078e-09
7.4521835e-08
5.3809334e-09
7.2624436e-08
5.1919826e-09
7.0677667e-08
4.9173602e-09
6.8716455e-08
4.5672148e-09
6.6774385e-08
4.1555461e-09
6.4883903e-08
3.7089228e-09
6.3072089e-08
3.260195e-09
6.1356675e-08
2.8404025e-09
5.9744822e-08
2.4709537e-09
5.823528e-08
2.1617097e-09
5.6822195e-08
1.9122164e-09
5.5497573e-08
1.7163638e-09
5.4250857e-08
1.5675561e-09
5.3075122e-08
1.4521547e-09
5.1963851e-08
1.3621321e-09
5.0909341e-08
1.2931258e-09
4.9904943e-08
1.2390967e-09
4.8945248e-08
1.1947256e-09
4.8026026e-08
1.1559997e-09
4.7144032e-08
1.1202102e-09
4.6296732e-08
1.0857614e-09
4.5482122e-08
1.0517695e-09
4.4698561e-08
1.0178761e-09
4.394467e-08
9.8399059e-10
4.3219215e-08
9.5024182e-10
4.2521059e-08
9.1680979e-10
4.1849094e-08
8.8394849e-10
4.1202232e-08
8.5186273e-10
4.0579374e-08
8.2077207e-10
3.9979423e-08
7.9081081e-10
3.9401274e-08
7.6211549e-10
3.8843835e-08
7.3473432e-10
3.8306019e-08
7.087267e-10
3.7786778e-08
6.8407337e-10
3.7285083e-08
6.607762e-10
3.6799961e-08
6.3876894e-10
3.6330471e-08
6.1802825e-10
3.5875731e-08
5.9846805e-10
3.5434901e-08
5.8004804e-10
3.5007204e-08
5.6267104e-10
3.4591904e-08
5.4629318e-10
3.4188327e-08
5.3081671e-10
3.379584e-08
5.1620141e-10
3.3413865e-08
5.0235426e-10
3.3041859e-08
4.892423e-10
3.2679331e-08
4.7677981e-10
3.2325816e-08
4.6494274e-10
3.1980899e-08
4.5365378e-10
3.1644181e-08
4.4289786e-10
3.1315307e-08
4.3260611e-10
3.0993934e-08
4.2277164e-10
3.0679757e-08
4.1333323e-10
3.0372478e-08
4.0429102e-10
3.0071831e-08
3.955904e-10
2.9777557e-08
3.8723706e-10
2.9489422e-08
3.7918191e-10
2.9207194e-08
3.7143472e-10
2.8930667e-08
3.6395108e-10
2.8659634e-08
3.5674341e-10
2.839391e-08
3.4977115e-10
2.8133308e-08
3.4304839e-10
2.7877659e-08
3.3653784e-10
2.7626797e-08
3.3025418e-10
2.7380568e-08
3.2416317e-10
2.7138818e-08
3.1827931e-10
2.6901408e-08
3.125713e-10
2.6668199e-08
3.0705272e-10
2.6439061e-08
3.0169533e-10
2.6213869e-08
2.9651124e-10
2.5992503e-08
2.9147542e-10
2.5774848e-08
2.8659793e-10
2.5560794e-08
2.8185733e-10
2.5350238e-08
2.7726121e-10
2.5143075e-08
2.7279198e-10
2.4939213e-08
2.684542e-10
2.4738554e-08
2.6423465e-10
2.4541016e-08
2.6013429e-10
2.4346505e-08
2.5614474e-10
2.4154948e-08
2.5226281e-10
2.3966258e-08
2.4848546e-10
2.3780369e-08
2.4480476e-10
2.3597196e-08
2.4122354e-10
2.3416683e-08
2.377285e-10
2.3238749e-08
2.3432896e-10
2.3063343e-08
2.3100551e-10
2.2890388e-08
2.2777461e-10
2.2719841e-08
2.2461003e-10
2.2551625e-08
2.2153604e-10
2.2385704e-08
2.1851878e-10
2.2222003e-08
2.155911e-10
2.2060495e-08
2.127107e-10
2.1901101e-08
2.0991975e-10
2.1743802e-08
2.0716667e-10
2.1588522e-08
2.0450376e-10
2.1435246e-08
2.0186926e-10
2.1283897e-08
1.9932652e-10
2.1134469e-08
1.9680259e-10
2.098688e-08
1.9437285e-10
2.0841135e-08
1.9195215e-10
2.0697149e-08
1.8962884e-10
2.0554933e-08
1.8730456e-10
2.0414399e-08
1.850817e-10
2.0275567e-08
1.8284758e-10
2.0138344e-08
1.8071972e-10
2.000276e-08
1.7856993e-10
1.9868717e-08
1.7653205e-10
1.9736252e-08
1.7446118e-10
1.9605262e-08
1.725087e-10
1.9475796e-08
1.705117e-10
1.9347743e-08
1.6864043e-10
1.9221161e-08
1.6671259e-10
1.9095933e-08
1.6491867e-10
1.8972127e-08
1.6305563e-10
1.8849619e-08
1.6133553e-10
1.8728488e-08
1.5953318e-10
1.86086e-08
1.5788369e-10
1.8490046e-08
1.5613818e-10
1.8372684e-08
1.5455635e-10
1.8256615e-08
1.5286406e-10
1.8141689e-08
1.5134716e-10
1.8028019e-08
1.4970467e-10
1.7915444e-08
1.4825023e-10
1.780409e-08
1.4665434e-10
1.7693784e-08
1.4526009e-10
1.7584668e-08
1.4370777e-10
1.7476554e-08
1.4237165e-10
1.73696e-08
1.4086003e-10
1.7263606e-08
1.3958015e-10
1.7158743e-08
1.3810652e-10
1.7054797e-08
1.3688116e-10
1.6951956e-08
1.3544295e-10
1.6849992e-08
1.3427054e-10
1.6749109e-08
1.3286535e-10
1.6649062e-08
1.3174449e-10
1.6550075e-08
1.3037004e-10
1.6451883e-08
1.2929939e-10
1.6354732e-08
1.2795349e-10
1.6258337e-08
1.2693184e-10
1.6162965e-08
1.2561249e-10
1.606831e-08
1.2463878e-10
1.5974662e-08
1.2334408e-10
1.5881693e-08
1.2241729e-10
1.5789716e-08
1.2114555e-10
1.5698381e-08
1.2026476e-10
1.5608023e-08
1.190143e-10
1.5518272e-08
1.1817857e-10
1.5429486e-08
1.1694801e-10
1.5341269e-08
1.1615656e-10
1.5254007e-08
1.1494469e-10
1.5167277e-08
1.1419668e-10
1.5081492e-08
1.1300247e-10
1.4996204e-08
1.1229703e-10
1.4911853e-08
1.1111966e-10
1.4827961e-08
1.1045589e-10
1.4745e-08
1.0929499e-10
1.4662462e-08
1.08672e-10
1.4580848e-08
1.0752752e-10
1.449962e-08
1.0694417e-10
1.4419311e-08
1.0581644e-10
1.4339352e-08
1.0527145e-10
1.4260307e-08
1.0416147e-10
1.4181574e-08
1.036534e-10
1.410375e-08
1.0256294e-10
1.4026203e-08
1.0208997e-10
1.3949559e-08
1.0102167e-10
1.3873155e-08
1.0058144e-10
1.3797647e-08
9.9539271e-11
1.3722344e-08
9.9128971e-11
1.3647927e-08
9.8118516e-11
1.3573681e-08
9.7734485e-11
1.3500307e-08
9.6763614e-11
1.3427071e-08
9.6401156e-11
1.3354689e-08
9.5480752e-11
1.3282412e-08
9.5133797e-11
1.3210964e-08
9.4278953e-11
1.3139591e-08
9.3939769e-11
1.306901e-08
9.3171898e-11
1.2998477e-08
9.2830334e-11
1.2928681e-08
9.2179556e-11
1.2858911e-08
9.1822304e-11
1.2789799e-08
9.1332778e-11
1.2720695e-08
9.0943365e-11
1.265213e-08
9.0681976e-11
1.2583562e-08
9.023802e-11
1.2515353e-08
9.0307653e-11
1.2447139e-08
8.9774582e-11
1.2379002e-08
9.0342026e-11
1.2310951e-08
8.9551549e-11
9.3417863e-11
8.9432151e-08
2.5351016e-09
-8.9365858e-08
8.9790189e-08
3.4508224e-09
9.0033085e-08
4.2706961e-09
9.0108749e-08
4.6675795e-09
9.011872e-08
4.831095e-09
9.0115489e-08
4.967682e-09
9.0099941e-08
5.1514634e-09
9.0041346e-08
5.3693629e-09
8.9915393e-08
5.5664463e-09
8.9710763e-08
5.7049404e-09
8.9423386e-08
5.769285e-09
8.905127e-08
5.7530494e-09
8.8590258e-08
5.6529947e-09
8.8039242e-08
5.4683757e-09
8.7403235e-08
5.203222e-09
8.6689829e-08
4.8689517e-09
8.5911984e-08
4.4867676e-09
8.5086819e-08
4.0853602e-09
8.4232223e-08
3.6949983e-09
8.3362966e-08
3.3402111e-09
8.2489238e-08
3.0354374e-09
8.1616775e-08
2.7846794e-09
8.0748263e-08
2.5848755e-09
7.9886384e-08
2.4294359e-09
7.9030839e-08
2.3076992e-09
7.8181302e-08
2.2116696e-09
7.7337999e-08
2.136428e-09
7.6500402e-08
2.0766937e-09
7.5667881e-08
2.0272473e-09
7.484004e-08
1.9838402e-09
7.401684e-08
1.9434104e-09
7.3198539e-08
1.9040625e-09
7.2385628e-08
1.8646803e-09
7.1578745e-08
1.8247588e-09
7.0778629e-08
1.7841065e-09
6.9986056e-08
1.7428153e-09
6.9201807e-08
1.7010586e-09
6.8426625e-08
1.659131e-09
6.7661197e-08
1.6172905e-09
6.6906131e-08
1.575838e-09
6.6161955e-08
1.5349867e-09
6.5429104e-08
1.4949666e-09
6.4707931e-08
1.4559074e-09
6.3998701e-08
1.4179565e-09
6.3301605e-08
1.3811688e-09
6.2616763e-08
1.3456191e-09
6.1944232e-08
1.311299e-09
6.1284013e-08
1.2782476e-09
6.0636056e-08
1.2464249e-09
6.0000268e-08
1.2158364e-09
5.937652e-08
1.1864187e-09
5.8764653e-08
1.1581608e-09
5.8164481e-08
1.1309887e-09
5.7575798e-08
1.1048838e-09
5.6998383e-08
1.079769e-09
5.6432002e-08
1.0556239e-09
5.5876409e-08
1.0323728e-09
5.5331355e-08
1.0099965e-09
5.4796585e-08
9.8842402e-10
5.4271844e-08
9.6763901e-10
5.3756873e-08
9.4757676e-10
5.3251421e-08
9.2822395e-10
5.2755231e-08
9.095228e-10
5.2268059e-08
8.9146276e-10
5.1789657e-08
8.7399306e-10
5.1319789e-08
8.5710495e-10
5.0858216e-08
8.4075455e-10
5.0404717e-08
8.2493364e-10
4.9959063e-08
8.0960536e-10
4.9521046e-08
7.9476062e-10
4.9090448e-08
7.8036938e-10
4.8667075e-08
7.6642074e-10
4.8250722e-08
7.5289149e-10
4.7841208e-08
7.3976757e-10
4.7438338e-08
7.2703303e-10
4.7041948e-08
7.1466959e-10
4.665185e-08
7.0266897e-10
4.6267896e-08
6.9100751e-10
4.5889906e-08
6.7968531e-10
4.5517744e-08
6.6867231e-10
4.5151242e-08
6.5797772e-10
4.4790276e-08
6.4756388e-10
4.4434683e-08
6.3745015e-10
4.4084354e-08
6.2759031e-10
4.3739132e-08
6.1801467e-10
4.3398919e-08
6.0866724e-10
4.3063563e-08
5.9959049e-10
4.273298e-08
5.9071732e-10
4.2407021e-08
5.8210361e-10
4.2085614e-08
5.736698e-10
4.1768613e-08
5.6548644e-10
4.1455958e-08
5.5746008e-10
4.1147504e-08
5.4967731e-10
4.0843203e-08
5.4202922e-10
4.0542912e-08
5.3462e-10
4.0246594e-08
5.2732358e-10
3.9954105e-08
5.202633e-10
3.9665421e-08
5.1329417e-10
3.9380397e-08
5.0656049e-10
3.9099019e-08
4.9989636e-10
3.8821141e-08
4.9346891e-10
3.8546763e-08
4.870893e-10
3.8275733e-08
4.8094952e-10
3.8008064e-08
4.7483564e-10
3.7743601e-08
4.6896656e-10
3.7482369e-08
4.63101e-10
3.7224209e-08
4.5748718e-10
3.6969157e-08
4.5185387e-10
3.6717049e-08
4.4648111e-10
3.6467936e-08
4.4106518e-10
3.6221645e-08
4.3592049e-10
3.5978241e-08
4.3070808e-10
3.5737543e-08
4.2577954e-10
3.5499633e-08
4.2075776e-10
3.5264318e-08
4.1603449e-10
3.5031697e-08
4.1119129e-10
3.4801566e-08
4.0666329e-10
3.4574039e-08
4.0198739e-10
3.4348903e-08
3.9764549e-10
3.4126288e-08
3.9312631e-10
3.3905966e-08
3.8896211e-10
3.3688089e-08
3.8458969e-10
3.3472412e-08
3.8059553e-10
3.3259107e-08
3.7636053e-10
3.3047914e-08
3.725294e-10
3.2839024e-08
3.6842299e-10
3.2632159e-08
3.6474854e-10
3.2427535e-08
3.6076235e-10
3.2224852e-08
3.5723875e-10
3.2024352e-08
3.5336484e-10
3.1825712e-08
3.4998681e-10
3.1629199e-08
3.4621759e-10
3.1434469e-08
3.4298037e-10
3.1241815e-08
3.3930862e-10
3.1050867e-08
3.3620792e-10
3.0861948e-08
3.3262676e-10
3.0674661e-08
3.2965876e-10
3.0489359e-08
3.2616155e-10
3.0305616e-08
3.2332284e-10
3.012382e-08
3.199032e-10
2.994351e-08
3.171908e-10
2.9765111e-08
3.1384256e-10
2.9588127e-08
3.1125385e-10
2.9413021e-08
3.0797112e-10
2.9239262e-08
3.0550394e-10
2.9067351e-08
3.0228094e-10
2.8896717e-08
2.9993337e-10
2.8727906e-08
2.9676446e-10
2.8560303e-08
2.9453493e-10
2.8394501e-08
2.9141468e-10
2.8229838e-08
2.8930204e-10
2.8066956e-08
2.8622516e-10
2.7905145e-08
2.8422856e-10
2.7745101e-08
2.8118996e-10
2.7586057e-08
2.7930885e-10
2.7428768e-08
2.7630337e-10
2.7272409e-08
2.7453739e-10
2.7117797e-08
2.7156023e-10
2.6964044e-08
2.6990952e-10
2.6812032e-08
2.6695603e-10
2.6660808e-08
2.6542093e-10
2.6511324e-08
2.6248658e-10
2.6362553e-08
2.6106754e-10
2.6215525e-08
2.581479e-10
2.6069135e-08
2.5684574e-10
2.5924493e-08
2.5393699e-10
2.5780412e-08
2.5275289e-10
2.5638089e-08
2.4985142e-10
2.5496246e-08
2.4878645e-10
2.5356174e-08
2.4588902e-10
2.5216501e-08
2.4494451e-10
2.5078613e-08
2.4204867e-10
2.4941041e-08
2.4122619e-10
2.4805273e-08
2.3833046e-10
2.4669732e-08
2.3763143e-10
2.4536018e-08
2.3473536e-10
2.4402438e-08
2.3416103e-10
2.4270712e-08
2.3126596e-10
2.4139023e-08
2.3081749e-10
2.4009215e-08
2.2792702e-10
2.3879344e-08
2.2760505e-10
2.3751382e-08
2.2472618e-10
2.3623252e-08
2.2453062e-10
2.3497058e-08
2.2167485e-10
2.3370587e-08
2.2160437e-10
2.3246076e-08
2.1878999e-10
2.3121174e-08
2.188421e-10
2.2998248e-08
2.1609769e-10
2.2874811e-08
2.1626724e-10
2.2753355e-08
2.1363595e-10
2.2631262e-08
2.1391485e-10
2.2511131e-08
2.1146465e-10
2.2390232e-08
2.1184159e-10
2.2271233e-08
2.0968107e-10
2.2151335e-08
2.1013592e-10
2.2033195e-08
2.0844796e-10
2.1914049e-08
2.08921e-10
2.1796298e-08
2.0809291e-10
2.1677682e-08
2.0816742e-10
2.1280205e-10
9.3188664e-08
2.5360296e-09
-9.3189592e-08
9.341025e-08
3.2292362e-09
9.3692822e-08
3.9881248e-09
9.389596e-08
4.4644414e-09
9.4021402e-08
4.7056522e-09
9.4137373e-08
4.851712e-09
9.4283105e-08
5.0057309e-09
9.4453993e-08
5.1984747e-09
9.4630633e-08
5.3898069e-09
9.4795017e-08
5.5405555e-09
9.4935967e-08
5.6283353e-09
9.5046495e-08
5.642522e-09
9.5117262e-08
5.5822268e-09
9.5138876e-08
5.4467621e-09
9.5104012e-08
5.2380862e-09
9.5007355e-08
4.9656081e-09
9.4848336e-08
4.6457872e-09
9.463196e-08
4.3017354e-09
9.4367693e-08
3.9592657e-09
9.406641e-08
3.6414942e-09
9.3737913e-08
3.3639345e-09
9.3389324e-08
3.1332683e-09
9.3025648e-08
2.948551e-09
9.2650877e-08
2.8042072e-09
9.2266186e-08
2.6923904e-09
9.1872073e-08
2.6057821e-09
9.1469555e-08
2.5389461e-09
9.1059022e-08
2.4872272e-09
9.0640216e-08
2.4460532e-09
9.0212608e-08
2.4114474e-09
8.9775721e-08
2.3802983e-09
8.9329255e-08
2.3505277e-09
8.8873125e-08
2.3208109e-09
8.8407424e-08
2.2904594e-09
8.7932409e-08
2.2591218e-09
8.7448464e-08
2.22676e-09
8.6956079e-08
2.1934439e-09
8.6455817e-08
2.1593923e-09
8.5948294e-08
2.1248135e-09
8.5434154e-08
2.0899786e-09
8.4914049e-08
2.0550911e-09
8.4388636e-08
2.0203805e-09
8.3858552e-08
1.9859914e-09
8.3324422e-08
1.9520857e-09
8.2786847e-08
1.9187439e-09
8.2246404e-08
1.8860619e-09
8.1703638e-08
1.854065e-09
8.1159076e-08
1.8228104e-09
8.0613207e-08
1.7922939e-09
8.0066505e-08
1.7625382e-09
7.9519407e-08
1.7335166e-09
7.8972337e-08
1.7052312e-09
7.842568e-08
1.6776456e-09
7.7879814e-08
1.6507499e-09
7.7335077e-08
1.6245056e-09
7.6791804e-08
1.5988967e-09
7.625029e-08
1.5738875e-09
7.5710827e-08
1.5494586e-09
7.517367e-08
1.5255811e-09
7.4639076e-08
1.5022335e-09
7.4107257e-08
1.4793957e-09
7.3578437e-08
1.4570438e-09
7.3052792e-08
1.4351679e-09
7.2530514e-08
1.4137412e-09
7.2011743e-08
1.392764e-09
7.1496642e-08
1.3722055e-09
7.098532e-08
1.3520765e-09
7.0477914e-08
1.3323401e-09
6.99745e-08
1.3130186e-09
6.9475194e-08
1.2940668e-09
6.8980045e-08
1.2755186e-09
6.8489146e-08
1.2573194e-09
6.8002523e-08
1.2395151e-09
6.7520251e-08
1.2220397e-09
6.7042331e-08
1.2049522e-09
6.6568828e-08
1.1881732e-09
6.609972e-08
1.1717766e-09
6.563506e-08
1.1556675e-09
6.517481e-08
1.1399358e-09
6.4719012e-08
1.12447e-09
6.4267612e-08
1.1093774e-09
6.3820649e-08
1.0945278e-09
6.3378051e-08
1.0800482e-09
6.2939853e-08
1.0657878e-09
6.2505973e-08
1.0518952e-09
6.2076443e-08
1.0381969e-09
6.1651168e-08
1.0248656e-09
6.1230182e-08
1.0117028e-09
6.0813379e-08
9.9890737e-10
6.0400795e-08
9.8625366e-10
5.9992312e-08
9.7396961e-10
5.9587972e-08
9.6179954e-10
5.9187646e-08
9.5000315e-10
5.8791383e-08
9.3829203e-10
5.8399043e-08
9.2696067e-10
5.8010681e-08
9.1568483e-10
5.7626148e-08
9.0479695e-10
5.7245508e-08
8.9393368e-10
5.68686e-08
8.8346891e-10
5.64955e-08
8.7299658e-10
5.6126033e-08
8.6293566e-10
5.5760289e-08
8.5283359e-10
5.539808e-08
8.4315843e-10
5.5039508e-08
8.33407e-10
5.4684374e-08
8.2410053e-10
5.4332794e-08
8.1468098e-10
5.3984554e-08
8.057273e-10
5.3639786e-08
7.9662175e-10
5.3298262e-08
7.8800592e-10
5.2960129e-08
7.791974e-10
5.2625144e-08
7.7090546e-10
5.2293475e-08
7.6237773e-10
5.1964858e-08
7.5439665e-10
5.1639481e-08
7.4613424e-10
5.1317064e-08
7.3845198e-10
5.0997815e-08
7.3044007e-10
5.0681433e-08
7.230454e-10
5.036815e-08
7.1526982e-10
5.0057643e-08
7.0815234e-10
4.975017e-08
7.0059953e-10
4.9445383e-08
6.9374963e-10
4.9143566e-08
6.8640653e-10
4.8844346e-08
6.7981541e-10
4.8548037e-08
6.7266954e-10
4.8254237e-08
6.6632914e-10
4.7963292e-08
6.5936844e-10
4.7674769e-08
6.5327143e-10
4.7389047e-08
6.4648428e-10
4.7105662e-08
6.4062401e-10
4.6825027e-08
6.3399911e-10
4.6546645e-08
6.2836956e-10
4.6270966e-08
6.2189595e-10
4.5997455e-08
6.1649178e-10
4.5726605e-08
6.1015882e-10
4.5457837e-08
6.0497532e-10
4.5191691e-08
5.9877264e-10
4.4927544e-08
5.9380575e-10
4.4665983e-08
5.8772318e-10
4.4406336e-08
5.8296943e-10
4.4149242e-08
5.7699699e-10
4.389398e-08
5.7245353e-10
4.3641241e-08
5.6658132e-10
4.3390249e-08
5.622459e-10
4.3141756e-08
5.564643e-10
4.2894924e-08
5.5233535e-10
4.2650571e-08
5.4663472e-10
4.2407793e-08
5.4271112e-10
4.2167475e-08
5.370818e-10
4.1928647e-08
5.3336304e-10
4.1692266e-08
5.2779555e-10
4.1457287e-08
5.2428181e-10
4.1224745e-08
5.1876661e-10
4.0993515e-08
5.1545872e-10
4.0764719e-08
5.0998641e-10
4.0537142e-08
5.0688574e-10
4.0311999e-08
5.0144654e-10
4.0087981e-08
4.9855498e-10
3.9866402e-08
4.9313941e-10
3.9645852e-08
4.9045978e-10
3.9427749e-08
4.8505835e-10
3.9210576e-08
4.8259404e-10
3.8995866e-08
4.7719709e-10
3.8781981e-08
4.7495195e-10
3.8570579e-08
4.6954967e-10
3.8359897e-08
4.6752838e-10
3.8151722e-08
4.6211153e-10
3.7944155e-08
4.6031973e-10
3.7739128e-08
4.54879e-10
3.7534592e-08
4.5332257e-10
3.7332632e-08
4.4784873e-10
3.7131042e-08
4.4653443e-10
3.6932072e-08
4.4101901e-10
3.6733343e-08
4.399545e-10
3.6537284e-08
4.3438992e-10
3.6341332e-08
4.3358325e-10
3.6148105e-08
4.279629e-10
3.5954843e-08
4.2742259e-10
3.5764367e-08
4.2174199e-10
3.5573707e-08
4.2147715e-10
3.53859e-08
4.1573447e-10
3.5197751e-08
4.1575431e-10
3.5012525e-08
4.0995223e-10
3.4826789e-08
4.102659e-10
3.4644051e-08
4.044131e-10
3.4460627e-08
4.0502874e-10
3.4280273e-08
3.9914361e-10
3.4099046e-08
4.0006879e-10
3.3920959e-08
3.9418508e-10
3.3741802e-08
3.9542377e-10
3.3565841e-08
3.895974e-10
3.3388607e-08
3.9114919e-10
3.3214595e-08
3.8547679e-10
3.3039103e-08
3.8733283e-10
3.2866804e-08
3.8198067e-10
3.2692835e-08
3.8410452e-10
3.2521898e-08
3.793854e-10
3.2349193e-08
3.8162532e-10
3.2178991e-08
3.7829554e-10
3.2007243e-08
3.7991474e-10
3.8395533e-10
9.7105085e-08
2.5415487e-09
-9.7110604e-08
9.7233094e-08
3.1012266e-09
9.7476983e-08
3.7442357e-09
9.7707979e-08
4.2334462e-09
9.7875369e-08
4.5382615e-09
9.8009669e-08
4.7174119e-09
9.8160263e-08
4.8551376e-09
9.8345828e-08
5.0129099e-09
9.8555992e-08
5.1796428e-09
9.8775434e-08
5.3211128e-09
9.8991751e-08
5.412019e-09
9.9196336e-08
5.4379367e-09
9.9382632e-08
5.3959302e-09
9.954344e-08
5.2859548e-09
9.9670851e-08
5.1106751e-09
9.9758056e-08
4.878403e-09
9.9801174e-08
4.602669e-09
9.9800525e-08
4.302384e-09
9.9760832e-08
3.9989588e-09
9.9689676e-08
3.71265e-09
9.9595108e-08
3.4585031e-09
9.9483904e-08
3.2444716e-09
9.9361172e-08
3.0712832e-09
9.9230446e-08
2.9349331e-09
9.9093406e-08
2.8294304e-09
9.8950842e-08
2.7483466e-09
9.8803598e-08
2.6861901e-09
9.8652188e-08
2.638637e-09
9.8496465e-08
2.6017759e-09
9.8335782e-08
2.5721311e-09
9.8169284e-08
2.5467962e-09
9.7996144e-08
2.5236675e-09
9.7815643e-08
2.5013117e-09
9.7627205e-08
2.4788974e-09
9.7430378e-08
2.4559488e-09
9.7224843e-08
2.4322955e-09
9.7010381e-08
2.4079053e-09
9.6786885e-08
2.3828886e-09
9.6554315e-08
2.357383e-09
9.6312714e-08
2.3315795e-09
9.6062162e-08
2.3056434e-09
9.5802795e-08
2.2797479e-09
9.5534762e-08
2.2540244e-09
9.5258254e-08
2.2285932e-09
9.4973461e-08
2.2035373e-09
9.4680603e-08
2.1789201e-09
9.4379885e-08
2.1547826e-09
9.4071547e-08
2.131148e-09
9.3755808e-08
2.1080336e-09
9.3432917e-08
2.0854292e-09
9.3103097e-08
2.0633362e-09
9.2766608e-08
2.0417203e-09
9.2423675e-08
2.0205782e-09
9.2074565e-08
1.9998599e-09
9.1719505e-08
1.9795656e-09
9.1358767e-08
1.9596345e-09
9.0992579e-08
1.9400756e-09
9.0621218e-08
1.9208198e-09
9.024491e-08
1.9018892e-09
8.9863936e-08
1.8832075e-09
8.9478519e-08
1.8648127e-09
8.9088942e-08
1.8466206e-09
8.8695423e-08
1.828687e-09
8.8298246e-08
1.8109184e-09
8.789762e-08
1.7933898e-09
8.7493829e-08
1.7759966e-09
8.7087072e-08
1.7588334e-09
8.667763e-08
1.7417821e-09
8.626569e-08
1.7249585e-09
8.5851529e-08
1.7082278e-09
8.543532e-08
1.691728e-09
8.5017334e-08
1.6753054e-09
8.4597728e-08
1.6591213e-09
8.4176767e-08
1.6429999e-09
8.3754592e-08
1.6271279e-09
8.333146e-08
1.6113048e-09
8.2907492e-08
1.5957443e-09
8.2482942e-08
1.5802181e-09
8.2057908e-08
1.5649698e-09
8.1632637e-08
1.5497402e-09
8.120721e-08
1.5348053e-09
8.0781865e-08
1.5198718e-09
8.0356662e-08
1.5052512e-09
7.9931837e-08
1.4906132e-09
7.9507424e-08
1.4763078e-09
7.9083657e-08
1.461964e-09
7.8660549e-08
1.4479742e-09
7.8238329e-08
1.4339228e-09
7.7816988e-08
1.4202484e-09
7.7396754e-08
1.4064871e-09
7.6977596e-08
1.3931277e-09
7.6559742e-08
1.3796535e-09
7.6143137e-08
1.3666083e-09
7.5728012e-08
1.3534177e-09
7.5314287e-08
1.3406854e-09
7.4902197e-08
1.3277745e-09
7.449164e-08
1.3153537e-09
7.4082856e-08
1.3027181e-09
7.3675718e-08
1.2906069e-09
7.3270473e-08
1.2782416e-09
7.286697e-08
1.2664381e-09
7.2465466e-08
1.2543377e-09
7.2065785e-08
1.2428394e-09
7.1668194e-08
1.230998e-09
7.1272493e-08
1.2198024e-09
7.087896e-08
1.2082136e-09
7.0487369e-08
1.197318e-09
7.0098016e-08
1.185975e-09
6.9710645e-08
1.1753764e-09
6.9325571e-08
1.164272e-09
6.8942509e-08
1.1539674e-09
6.8561793e-08
1.143094e-09
6.8183109e-08
1.1330803e-09
6.7806813e-08
1.12243e-09
6.7432561e-08
1.1127042e-09
6.7060732e-08
1.1022687e-09
6.669095e-08
1.0928277e-09
6.6323621e-08
1.0825985e-09
6.5958334e-08
1.0734395e-09
6.5595526e-08
1.0634077e-09
6.5234748e-08
1.0545278e-09
6.487647e-08
1.0446845e-09
6.4520204e-08
1.0360813e-09
6.4166456e-08
1.0264171e-09
6.3814697e-08
1.0180883e-09
6.3465472e-08
1.008594e-09
6.3118205e-08
1.0005376e-09
6.2773486e-08
9.9120348e-10
6.2430692e-08
9.8341791e-10
6.2090457e-08
9.7423419e-10
6.1752109e-08
9.6671813e-10
6.141633e-08
9.5767478e-10
6.1082394e-08
9.5042738e-10
6.0751039e-08
9.4151421e-10
6.0421479e-08
9.3453508e-10
6.009451e-08
9.2574174e-10
5.9769285e-08
9.1903098e-10
5.9446661e-08
9.1034685e-10
5.9125725e-08
9.0390506e-10
5.8807403e-08
8.9531932e-10
5.8490709e-08
8.891477e-10
5.8176641e-08
8.8064917e-10
5.7864137e-08
8.7474948e-10
5.7554275e-08
8.6632692e-10
5.7245908e-08
8.6070169e-10
5.69402e-08
8.5234341e-10
5.6635915e-08
8.4699567e-10
5.6334307e-08
8.3868956e-10
5.6034047e-08
8.3362304e-10
5.5736486e-08
8.2535682e-10
5.5440192e-08
8.2057614e-10
5.5146621e-08
8.1233706e-10
5.4854232e-08
8.0784773e-10
5.4564596e-08
7.9962285e-10
5.4276051e-08
7.9543109e-10
5.3990291e-08
7.8720658e-10
5.3705526e-08
7.8331941e-10
5.3423584e-08
7.7508141e-10
5.3142537e-08
7.7150721e-10
5.2864354e-08
7.6324145e-10
5.2586958e-08
7.5998951e-10
5.2312474e-08
7.5168111e-10
5.2038665e-08
7.4876153e-10
5.1767819e-08
7.4039493e-10
5.1497529e-08
7.3781918e-10
5.1230261e-08
7.2937915e-10
5.096342e-08
7.2716024e-10
5.0699668e-08
7.18631e-10
5.0436208e-08
7.1678265e-10
5.0175909e-08
7.0814803e-10
4.9915758e-08
7.0668545e-10
4.9658847e-08
6.9792977e-10
4.9401932e-08
6.9686987e-10
4.9148344e-08
6.8797819e-10
4.8894588e-08
6.8733881e-10
4.8644254e-08
6.7829691e-10
4.839358e-08
6.7809705e-10
4.8146428e-08
6.6889315e-10
4.7898752e-08
6.6915311e-10
4.7654708e-08
6.597785e-10
4.7409944e-08
6.6051917e-10
4.7168925e-08
6.5097095e-10
4.6926977e-08
6.522136e-10
4.6688893e-08
6.4249688e-10
4.6449661e-08
6.4426141e-10
4.6214409e-08
6.3439479e-10
4.5977778e-08
6.3670013e-10
4.5745239e-08
6.2672449e-10
4.5511079e-08
6.2958316e-10
4.5281105e-08
6.1957217e-10
4.5049267e-08
6.2298676e-10
4.4821667e-08
6.1307724e-10
4.459197e-08
6.1702937e-10
4.4366482e-08
6.0746844e-10
4.4138708e-08
6.1187832e-10
4.391494e-08
6.0315371e-10
4.3688829e-08
6.0773686e-10
4.3466096e-08
6.0102841e-10
4.3241177e-08
6.0483354e-10
6.0683521e-10
1.0116062e-07
2.5423671e-09
-1.0116144e-07
1.0124619e-07
3.0156598e-09
1.0144132e-07
3.5491032e-09
1.0166104e-07
4.0137289e-09
1.0185056e-07
4.3487381e-09
1.0200432e-07
4.5636591e-09
1.0215404e-07
4.7054144e-09
1.0232746e-07
4.8394899e-09
1.0252783e-07
4.9792775e-09
1.0274401e-07
5.1049281e-09
1.0296312e-07
5.1929129e-09
1.0317487e-07
5.2261788e-09
1.0337322e-07
5.1975816e-09
1.0355272e-07
5.1064574e-09
1.0370713e-07
4.9562651e-09
1.0383096e-07
4.7545715e-09
1.039204e-07
4.5132282e-09
1.0397478e-07
4.2480044e-09
1.0399703e-07
3.9767059e-09
1.0399301e-07
3.7166704e-09
1.0396972e-07
3.4817941e-09
1.039337e-07
3.2804931e-09
1.0388996e-07
3.1150242e-09
1.0384184e-07
2.9830495e-09
1.037914e-07
2.8798751e-09
1.0373979e-07
2.7999527e-09
1.0368787e-07
2.7381111e-09
1.0363627e-07
2.690236e-09
1.0358514e-07
2.652912e-09
1.0353411e-07
2.6231544e-09
1.0348251e-07
2.5983968e-09
1.0342956e-07
2.5766204e-09
1.0337448e-07
2.5563883e-09
1.0331661e-07
2.5367674e-09
1.0325534e-07
2.517219e-09
1.0319018e-07
2.4974594e-09
1.0312068e-07
2.4774041e-09
1.0304651e-07
2.4570583e-09
1.0296737e-07
2.436527e-09
1.0288304e-07
2.4159106e-09
1.0279331e-07
2.3953654e-09
1.0269807e-07
2.374989e-09
1.0259717e-07
2.3549251e-09
1.0249054e-07
2.335228e-09
1.0237807e-07
2.3160089e-09
1.0225972e-07
2.2972705e-09
1.021354e-07
2.2790952e-09
1.0200511e-07