/*--------------------------------*- C++ -*----------------------------------*\
| =========                 |                                                 |
| \\      /  F ield         | OpenFOAM: The Open Source CFD Toolbox           |
|  \\    /   O peration     | Version:  5.x                                   |
|   \\  /    A nd           | Web:      www.OpenFOAM.org                      |
|    \\/     M anipulation  |                                                 |
\*---------------------------------------------------------------------------*/
FoamFile
{
    version     2.0;
    format      ascii;
    class       volVectorField;
    location    "0.5";
    object      U;
}
// * * * * * * * * * * * * * * * * * * * * * * * * * * * * * * * * * * * * * //

dimensions      [0 1 -1 0 0 0 0];

internalField   nonuniform List<vector> 
21600
(
(0.94291119 0.0081614375 0)
(0.89631035 0.012247965 0)
(0.85184318 0.013938154 0)
(0.80672892 0.014109544 0)
(0.76011935 0.013756912 0)
(0.71220041 0.013400059 0)
(0.66358625 0.013130319 0)
(0.61491397 0.012849582 0)
(0.56672685 0.012440391 0)
(0.5195374 0.011837083 0)
(0.4738716 0.011016406 0)
(0.43034206 0.0099829126 0)
(0.38961024 0.0087427296 0)
(0.35246668 0.0073241552 0)
(0.3195049 0.0057443152 0)
(0.29117835 0.0040860292 0)
(0.26763978 0.0025010395 0)
(0.24868015 0.0011525559 0)
(0.23378378 0.00014740205 0)
(0.22228164 -0.00049823086 0)
(0.21348898 -0.00084271026 0)
(0.20676014 -0.00097223673 0)
(0.20153952 -0.00096256757 0)
(0.19735133 -0.00086231177 0)
(0.19383675 -0.0007118602 0)
(0.19073472 -0.00054473023 0)
(0.18785417 -0.00038244463 0)
(0.18506615 -0.00023855413 0)
(0.18229853 -0.00011986865 0)
(0.17951696 -2.7445681e-05 0)
(0.17671613 4.114172e-05 0)
(0.17390373 8.9807033e-05 0)
(0.1710976 0.00012262775 0)
(0.16831486 0.00014337524 0)
(0.16557441 0.00015521698 0)
(0.1628894 0.00016075319 0)
(0.16027282 0.00016195837 0)
(0.15773105 0.00016034547 0)
(0.15527084 0.00015696185 0)
(0.15289284 0.00015257232 0)
(0.15059931 0.00014764525 0)
(0.14838717 0.00014251946 0)
(0.14625614 0.00013736211 0)
(0.14420111 0.0001323106 0)
(0.14222073 0.00012740172 0)
(0.14030901 0.00012268801 0)
(0.13846447 0.0001181519 0)
(0.13668088 0.00011382648 0)
(0.13495708 0.00010968675 0)
(0.13328691 0.00010575798 0)
(0.13166975 0.00010200852 0)
(0.13009965 9.846067e-05 0)
(0.12857664 9.5079156e-05 0)
(0.12709502 9.1883945e-05 0)
(0.12565544 8.8836839e-05 0)
(0.12425241 8.595679e-05 0)
(0.12288722 8.3204365e-05 0)
(0.12155451 8.059899e-05 0)
(0.12025615 7.8101301e-05 0)
(0.11898685 7.5732122e-05 0)
(0.11774903 7.3452883e-05 0)
(0.11653737 7.1286189e-05 0)
(0.11535481 6.919454e-05 0)
(0.11419594 6.7202345e-05 0)
(0.11306419 6.5273171e-05 0)
(0.11195396 6.3433044e-05 0)
(0.11086918 6.1646451e-05 0)
(0.10980402 5.9940737e-05 0)
(0.10876285 5.8281094e-05 0)
(0.1077396 5.6695869e-05 0)
(0.10673909 5.5150765e-05 0)
(0.10575492 5.3674845e-05 0)
(0.10479241 5.2234171e-05 0)
(0.10384478 5.0858282e-05 0)
(0.10291784 4.9513495e-05 0)
(0.10200444 4.8229637e-05 0)
(0.10111087 4.6973239e-05 0)
(0.10022954 4.5774279e-05 0)
(0.099367321 4.4599493e-05 0)
(0.098516121 4.34789e-05 0)
(0.097683388 4.2379439e-05 0)
(0.096860507 4.1331105e-05 0)
(0.096055553 4.0301161e-05 0)
(0.095259331 3.931952e-05 0)
(0.094480584 3.8353743e-05 0)
(0.093709488 3.7433577e-05 0)
(0.092955503 3.6526962e-05 0)
(0.09220812 3.5663434e-05 0)
(0.09147757 3.4811368e-05 0)
(0.090752597 3.4000039e-05 0)
(0.090044259 3.3198307e-05 0)
(0.089340491 3.2435133e-05 0)
(0.088653241 3.1679904e-05 0)
(0.087969562 3.0961213e-05 0)
(0.087302363 3.0249015e-05 0)
(0.086637741 2.9571484e-05 0)
(0.085989635 2.8899173e-05 0)
(0.085343107 2.825979e-05 0)
(0.08471321 2.7624519e-05 0)
(0.084083879 2.7020556e-05 0)
(0.083471371 2.641974e-05 0)
(0.082858398 2.5848718e-05 0)
(0.08226252 2.5280005e-05 0)
(0.081665121 2.4739667e-05 0)
(0.081085166 2.4200909e-05 0)
(0.080502604 2.3689197e-05 0)
(0.079937916 2.3178427e-05 0)
(0.079369495 2.2693453e-05 0)
(0.078819466 2.2208867e-05 0)
(0.078264531 2.1748902e-05 0)
(0.077728593 2.1288834e-05 0)
(0.077186522 2.0852284e-05 0)
(0.076664149 2.0415201e-05 0)
(0.076134354 2.0000612e-05 0)
(0.075625054 1.9585098e-05 0)
(0.075106976 1.9191124e-05 0)
(0.074610293 1.8795862e-05 0)
(0.074103397 1.8421259e-05 0)
(0.07361891 1.8045022e-05 0)
(0.073122686 1.7688645e-05 0)
(0.072650001 1.7330292e-05 0)
(0.07216396 1.6991083e-05 0)
(0.071702713 1.6649551e-05 0)
(0.071226385 1.632654e-05 0)
(0.070776241 1.6000836e-05 0)
(0.070309173 1.5693131e-05 0)
(0.069869822 1.5382325e-05 0)
(0.069411574 1.5089106e-05 0)
(0.068982733 1.4792322e-05 0)
(0.068532879 1.4512833e-05 0)
(0.068114289 1.4229242e-05 0)
(0.067672414 1.3962791e-05 0)
(0.067263838 1.3691609e-05 0)
(0.066829536 1.3437561e-05 0)
(0.066430763 1.3178043e-05 0)
(0.066003635 1.2935822e-05 0)
(0.065614475 1.268726e-05 0)
(0.065194128 1.245634e-05 0)
(0.064814414 1.2218054e-05 0)
(0.064400459 1.1997966e-05 0)
(0.064030048 1.1769303e-05 0)
(0.063622096 1.1559625e-05 0)
(0.063260866 1.1339951e-05 0)
(0.062858532 1.1140313e-05 0)
(0.062506383 1.0929015e-05 0)
(0.062109277 1.0739099e-05 0)
(0.061766134 1.0535567e-05 0)
(0.061373864 1.0355096e-05 0)
(0.061039676 1.0158722e-05 0)
(0.060651844 9.9874812e-06 0)
(0.060326581 9.7976782e-06 0)
(0.059942783 9.6354956e-06 0)
(0.059626444 9.4516516e-06 0)
(0.059246263 9.2984248e-06 0)
(0.05893887 9.1199434e-06 0)
(0.058561882 8.9756022e-06 0)
(0.058263486 8.8018421e-06 0)
(0.057889247 8.6664023e-06 0)
(0.057599927 8.4967321e-06 0)
(0.057227978 8.3702677e-06 0)
(0.056947845 8.2040072e-06 0)
(0.056577706 8.0866721e-06 0)
(0.056306901 7.9231088e-06 0)
(0.055938068 7.8151218e-06 0)
(0.055676769 7.6534848e-06 0)
(0.05530871 7.5551865e-06 0)
(0.05505713 7.3946689e-06 0)
(0.054689279 7.3064989e-06 0)
(0.054447673 7.146195e-06 0)
(0.054079429 7.0687013e-06 0)
(0.053848094 6.9076287e-06 0)
(0.053478811 6.8415083e-06 0)
(0.053258091 6.6785819e-06 0)
(0.052887075 6.6247235e-06 0)
(0.052677367 6.4587194e-06 0)
(0.052303865 6.4182054e-06 0)
(0.052105618 6.2477099e-06 0)
(0.051728813 6.2218811e-06 0)
(0.051542539 6.0453124e-06 0)
(0.051161536 6.0358248e-06 0)
(0.05098781 5.8513225e-06 0)
(0.050601625 5.8602364e-06 0)
(0.050441094 5.6656231e-06 0)
(0.050048638 5.6955297e-06 0)
(0.049902024 5.4882206e-06 0)
(0.04950208 5.5423554e-06 0)
(0.049370186 5.3192224e-06 0)
(0.048961387 5.4018363e-06 0)
(0.0488451 5.1590673e-06 0)
(0.048425885 5.2757188e-06 0)
(0.04832618 5.008419e-06 0)
(0.047894742 5.1666999e-06 0)
(0.047812681 4.8686085e-06 0)
(0.047366859 5.0797183e-06 0)
(0.047303605 4.7416807e-06 0)
(0.046840687 5.0228971e-06 0)
(0.046797627 4.6282349e-06 0)
(0.04631379 5.0095704e-06 0)
(0.046293694 4.5248153e-06 0)
(0.045779403 5.4028024e-06 0)
(0.9730196 0.01550502 0)
(0.97183137 0.022703364 0)
(0.97042452 0.0262843 0)
(0.96742336 0.027304878 0)
(0.9618206 0.027316492 0)
(0.95332737 0.027255578 0)
(0.94212585 0.027363014 0)
(0.92856192 0.027518245 0)
(0.91293507 0.027533287 0)
(0.89552345 0.027287608 0)
(0.8765504 0.026718966 0)
(0.85628444 0.02580292 0)
(0.83499966 0.024518868 0)
(0.81308722 0.022863087 0)
(0.79090019 0.020843899 0)
(0.76883371 0.018525429 0)
(0.74725705 0.01603942 0)
(0.72644405 0.013554731 0)
(0.70657895 0.011235117 0)
(0.68774719 0.0091954446 0)
(0.66999712 0.0074880096 0)
(0.65331218 0.0061091508 0)
(0.63766803 0.0050272515 0)
(0.62298216 0.0041971449 0)
(0.60917196 0.0035770646 0)
(0.59615718 0.0031309128 0)
(0.58385044 0.0028206138 0)
(0.57216199 0.0026079585 0)
(0.56102215 0.0024591079 0)
(0.55036849 0.0023481708 0)
(0.54015957 0.0022573992 0)
(0.53035638 0.0021759212 0)
(0.52093646 0.0020975429 0)
(0.51187424 0.0020193334 0)
(0.50315733 0.0019401783 0)
(0.49476618 0.0018602146 0)
(0.48669271 0.0017800322 0)
(0.47891911 0.0017005855 0)
(0.4714387 0.0016227097 0)
(0.46423348 0.0015472667 0)
(0.45729715 0.0014748093 0)
(0.45061108 0.001405844 0)
(0.44416937 0.0013405586 0)
(0.43795295 0.0012791349 0)
(0.43195675 0.0012214899 0)
(0.42616171 0.0011675994 0)
(0.42056405 0.0011172222 0)
(0.41514505 0.0010702331 0)
(0.40990252 0.0010263284 0)
(0.40481823 0.00098535017 0)
(0.39989179 0.0009469842 0)
(0.3951055 0.00091108495 0)
(0.39046081 0.00087735991 0)
(0.38594053 0.00084569392 0)
(0.38154791 0.0008158252 0)
(0.3772661 0.00078767213 0)
(0.37310014 0.00076100422 0)
(0.36903331 0.00073577155 0)
(0.36507233 0.00071177231 0)
(0.36120045 0.00068898432 0)
(0.35742596 0.00066723044 0)
(0.3537319 0.00064651135 0)
(0.35012807 0.00062667019 0)
(0.3465971 0.00060772558 0)
(0.34315026 0.00058953678 0)
(0.33976957 0.00057213585 0)
(0.33646776 0.00055539455 0)
(0.33322613 0.00053935457 0)
(0.33005884 0.00052389736 0)
(0.32694629 0.00050907109 0)
(0.32390413 0.00049476481 0)
(0.32091174 0.00048103072 0)
(0.31798629 0.00046776406 0)
(0.315106 0.00045501918 0)
(0.31228964 0.00044269666 0)
(0.30951413 0.00043085165 0)
(0.30679992 0.0004193896 0)
(0.30412253 0.00040836538 0)
(0.30150415 0.00039768921 0)
(0.29891877 0.00038741491 0)
(0.29639044 0.0003774575 0)
(0.29389147 0.00036786897 0)
(0.29144791 0.00035856944 0)
(0.28903022 0.00034960859 0)
(0.28666658 0.00034091191 0)
(0.28432544 0.00033252611 0)
(0.28203727 0.0003243824 0)
(0.27976835 0.00031652401 0)
(0.27755158 0.00030888822 0)
(0.27535086 0.00030151418 0)
(0.27320174 0.00029434562 0)
(0.27106553 0.00028741704 0)
(0.2689806 0.00028067901 0)
(0.26690549 0.00027416081 0)
(0.26488158 0.00026782023 0)
(0.26286439 0.00026168074 0)
(0.26089856 0.00025570777 0)
(0.25893634 0.00024991839 0)
(0.25702588 0.00024428608 0)
(0.25511588 0.00023882091 0)
(0.25325829 0.00023350485 0)
(0.25139795 0.0002283404 0)
(0.2495909 0.00022331846 0)
(0.24777781 0.00021843337 0)
(0.24601914 0.00021368539 0)
(0.24425105 0.00020906016 0)
(0.24253876 0.00020456778 0)
(0.24081355 0.0002001846 0)
(0.23914577 0.000195931 0)
(0.23746143 0.00019177354 0)
(0.23583645 0.00018774335 0)
(0.23419109 0.0001837966 0)
(0.23260729 0.00017997565 0)
(0.23099912 0.00017622583 0)
(0.22945501 0.00017260116 0)
(0.22788231 0.00016903556 0)
(0.22637651 0.00016559519 0)
(0.22483767 0.00016220209 0)
(0.22336888 0.00015893497 0)
(0.22186235 0.00015570355 0)
(0.22042939 0.00015259946 0)
(0.21895367 0.00014951969 0)
(0.21755544 0.00014656921 0)
(0.2161091 0.00014363181 0)
(0.21474458 0.00014082619 0)
(0.21332625 0.00013802259 0)
(0.21199451 0.00013535374 0)
(0.21060285 0.00013267597 0)
(0.20930302 0.00013013634 0)
(0.20793675 0.00012757702 0)
(0.20666805 0.00012515958 0)
(0.20532589 0.00012271182 0)
(0.20408761 0.00012041004 0)
(0.20276835 0.00011806747 0)
(0.20155985 0.00011587524 0)
(0.20026226 0.00011363193 0)
(0.19908298 0.00011154354 0)
(0.19780588 0.00010939397 0)
(0.1966553 0.00010740409 0)
(0.19539752 0.00010534313 0)
(0.19427522 0.00010344672 0)
(0.19303556 0.00010146963 0)
(0.19194118 9.9661962e-05 0)
(0.19071849 9.7764342e-05 0)
(0.18965173 9.6040987e-05 0)
(0.18844483 9.4218754e-05 0)
(0.18740546 9.2575462e-05 0)
(0.18621316 9.0824821e-05 0)
(0.18520104 8.9257558e-05 0)
(0.18402213 8.7575062e-05 0)
(0.18303718 8.6080032e-05 0)
(0.18187045 8.4462507e-05 0)
(0.18091267 8.3036025e-05 0)
(0.17975685 8.1480623e-05 0)
(0.17882631 8.0119181e-05 0)
(0.17768012 7.8623244e-05 0)
(0.17677699 7.7323369e-05 0)
(0.17563909 7.5884638e-05 0)
(0.17476362 7.4643056e-05 0)
(0.17363263 7.3259543e-05 0)
(0.17278515 7.2072957e-05 0)
(0.17165962 7.0742977e-05 0)
(0.17084059 6.9608105e-05 0)
(0.16971899 6.8330261e-05 0)
(0.16892895 6.7243827e-05 0)
(0.16780969 6.6017209e-05 0)
(0.16704929 6.4975952e-05 0)
(0.16593066 6.3799991e-05 0)
(0.1652007 6.2800453e-05 0)
(0.1640809 6.1674987e-05 0)
(0.16338229 6.071363e-05 0)
(0.16225937 5.9639063e-05 0)
(0.16159317 5.871219e-05 0)
(0.16046506 5.768959e-05 0)
(0.15983249 5.6793192e-05 0)
(0.15869692 5.5824314e-05 0)
(0.15809937 5.4953962e-05 0)
(0.15695391 5.4041502e-05 0)
(0.15639296 5.3192404e-05 0)
(0.15523494 5.2340199e-05 0)
(0.15471236 5.1506891e-05 0)
(0.15353885 5.0720259e-05 0)
(0.15305665 4.9896482e-05 0)
(0.15186441 4.9182681e-05 0)
(0.15142483 4.8361161e-05 0)
(0.15021028 4.7729955e-05 0)
(0.14981582 4.6902103e-05 0)
(0.14857494 4.6367047e-05 0)
(0.14822836 4.5522549e-05 0)
(0.14695661 4.5102224e-05 0)
(0.14666099 4.4228283e-05 0)
(0.14535314 4.3949196e-05 0)
(0.14511186 4.303037e-05 0)
(0.14376176 4.2932172e-05 0)
(0.14357854 4.194767e-05 0)
(0.14217865 4.2089896e-05 0)
(0.14205784 4.1011027e-05 0)
(0.14059799 4.1472188e-05 0)
(0.14054629 4.0248052e-05 0)
(0.13901052 4.2769055e-05 0)
(0.97634895 0.015439825 0)
(0.97670918 0.020971664 0)
(0.97858921 0.024704785 0)
(0.98115595 0.026460916 0)
(0.98341165 0.027133312 0)
(0.98478552 0.027563231 0)
(0.98513004 0.028127874 0)
(0.98453577 0.028807849 0)
(0.9831227 0.029430153 0)
(0.98095516 0.02983277 0)
(0.97802349 0.02990958 0)
(0.97427999 0.029594189 0)
(0.96967092 0.02884747 0)
(0.96416359 0.027650511 0)
(0.95776702 0.026027407 0)
(0.9505299 0.024049563 0)
(0.94256179 0.02184106 0)
(0.93398358 0.019557991 0)
(0.92494632 0.017359217 0)
(0.91558109 0.015367579 0)
(0.90603048 0.013652541 0)
(0.89639561 0.012227988 0)
(0.8867749 0.01107236 0)
(0.87721106 0.010143738 0)
(0.86773964 0.0094004486 0)
(0.85837041 0.0088083534 0)
(0.84910106 0.0083343315 0)
(0.8399096 0.0079465992 0)
(0.83078935 0.0076169976 0)
(0.82172354 0.0073236697 0)
(0.81271536 0.0070512855 0)
(0.80375634 0.0067904898 0)
(0.79485776 0.0065359934 0)
(0.78601634 0.0062855143 0)
(0.77724832 0.0060383062 0)
(0.7685525 0.005794813 0)
(0.75994731 0.0055557875 0)
(0.75143106 0.0053223843 0)
(0.74302236 0.0050955548 0)
(0.73471748 0.0048763416 0)
(0.72653422 0.0046653972 0)
(0.71846607 0.004463381 0)
(0.7105298 0.0042705342 0)
(0.702716 0.004087127 0)
(0.69504055 0.0039130525 0)
(0.68749131 0.0037482937 0)
(0.68008363 0.0035925201 0)
(0.67280293 0.003445535 0)
(0.66566439 0.0033068518 0)
(0.65865118 0.0031761584 0)
(0.65177873 0.0030528942 0)
(0.64502819 0.0029367097 0)
(0.63841555 0.0028270363 0)
(0.63192012 0.0027235369 0)
(0.62555878 0.0026256714 0)
(0.61930912 0.0025331401 0)
(0.61318912 0.00244545 0)
(0.60717473 0.0023623498 0)
(0.60128531 0.002283401 0)
(0.59549514 0.0022084029 0)
(0.58982516 0.0021369721 0)
(0.58424797 0.0020689546 0)
(0.5787863 0.0020040182 0)
(0.57341099 0.0019420492 0)
(0.5681467 0.0018827607 0)
(0.56296247 0.0018260713 0)
(0.55788503 0.0017717328 0)
(0.5528815 0.0017196885 0)
(0.54798085 0.0016697231 0)
(0.54314816 0.0016217972 0)
(0.53841481 0.0015757238 0)
(0.53374363 0.0015314744 0)
(0.5291686 0.0014888866 0)
(0.52465018 0.0014479379 0)
(0.52022508 0.001408488 0)
(0.5158512 0.001370516 0)
(0.51156817 0.0013339023 0)
(0.50733114 0.0012986241 0)
(0.50318286 0.0012645819 0)
(0.49907549 0.0012317485 0)
(0.49505512 0.0012000439 0)
(0.49107071 0.001169434 0)
(0.4871719 0.001139859 0)
(0.48330417 0.0011112753 0)
(0.479521 0.0010836439 0)
(0.47576409 0.0010569101 0)
(0.47209104 0.0010310562 0)
(0.46843949 0.0010060143 0)
(0.46487142 0.00098178914 0)
(0.4613201 0.00095829776 0)
(0.45785222 0.00093556826 0)
(0.45439632 0.00091350057 0)
(0.45102417 0.0008921474 0)
(0.4476592 0.0008713895 0)
(0.44437861 0.00085130549 0)
(0.44110032 0.00083175493 0)
(0.4379074 0.00081284371 0)
(0.43471183 0.00079440815 0)
(0.43160294 0.00077658283 0)
(0.42848632 0.0007591788 0)
(0.42545809 0.00074236088 0)
(0.42241687 0.00072591276 0)
(0.41946611 0.00071003111 0)
(0.41649696 0.00069447018 0)
(0.41362071 0.00067946022 0)
(0.41072043 0.00066472387 0)
(0.40791592 0.00065052678 0)
(0.40508151 0.00063655784 0)
(0.40234614 0.00062311995 0)
(0.39957474 0.00060986607 0)
(0.3969061 0.00059713833 0)
(0.39419496 0.00058455148 0)
(0.39159079 0.0005724889 0)
(0.38893731 0.00056052493 0)
(0.3863955 0.00054908626 0)
(0.38379719 0.00053770447 0)
(0.38131576 0.00052685178 0)
(0.37877022 0.00051601466 0)
(0.37634735 0.00050571303 0)
(0.37385227 0.00049538591 0)
(0.37148627 0.00048560317 0)
(0.36903943 0.00047575395 0)
(0.36672871 0.00046646044 0)
(0.36432797 0.0004570594 0)
(0.36207108 0.00044822771 0)
(0.35971435 0.00043924728 0)
(0.35750994 0.00043085208 0)
(0.3551952 0.00042226661 0)
(0.35304205 0.00041428441 0)
(0.35076731 0.00040607002 0)
(0.3486643 0.00039847902 0)
(0.34642762 0.00039061346 0)
(0.34437374 0.00038339347 0)
(0.34217322 0.00037585598 0)
(0.34016756 0.00036898825 0)
(0.33800132 0.00036175945 0)
(0.33604307 0.00035522655 0)
(0.33390924 0.00034828832 0)
(0.33199771 0.00034207402 0)
(0.32989444 0.00033540937 0)
(0.32802904 0.00032949855 0)
(0.32595447 0.00032309159 0)
(0.32413472 0.00031747019 0)
(0.32208699 0.00031130607 0)
(0.3203125 0.00030596099 0)
(0.31828974 0.00030002573 0)
(0.31656025 0.00029494465 0)
(0.31456056 0.0002892251 0)
(0.3128759 0.00028439651 0)
(0.31089735 0.00027888039 0)
(0.3092575 0.00027429359 0)
(0.30729811 0.00026896943 0)
(0.30570315 0.00026461434 0)
(0.30376089 0.00025947141 0)
(0.30221103 0.00025533858 0)
(0.30028381 0.00025036668 0)
(0.29877941 0.00024644711 0)
(0.29686504 0.00024163692 0)
(0.29540659 0.00023792233 0)
(0.29350283 0.00023326523 0)
(0.29209096 0.00022974766 0)
(0.29019543 0.00022523558 0)
(0.28883095 0.00022190738 0)
(0.28694117 0.0002175329 0)
(0.28562507 0.00021438683 0)
(0.28373839 0.00021014355 0)
(0.28247183 0.00020717279 0)
(0.28058548 0.00020305491 0)
(0.27936983 0.00020025257 0)
(0.27748082 0.00019625506 0)
(0.27631767 0.00019361451 0)
(0.27442281 0.00018973346 0)
(0.273314 0.00018724823 0)
(0.27140987 0.0001834809 0)
(0.27035748 0.00018114434 0)
(0.26844038 0.00017748925 0)
(0.26744679 0.00017529442 0)
(0.2655127 0.00017175188 0)
(0.2645806 0.00016969169 0)
(0.26262515 0.00016626409 0)
(0.26175756 0.00016433082 0)
(0.25977595 0.00016102344 0)
(0.25897628 0.00015920856 0)
(0.25696323 0.0001560303 0)
(0.25623528 0.00015432419 0)
(0.25418496 0.00015128905 0)
(0.25353295 0.00014968082 0)
(0.25143886 0.00014681024 0)
(0.25086748 0.00014528692 0)
(0.24872233 0.00014261247 0)
(0.24823674 0.00014115877 0)
(0.24603225 0.00013872841 0)
(0.24563811 0.00013732745 0)
(0.24336472 0.00013521485 0)
(0.24306815 0.00013384743 0)
(0.24071454 0.00013216392 0)
(0.24052212 0.00013081114 0)
(0.2380745 0.00012974488 0)
(0.23799293 0.00012819012 0)
(0.2354376 0.00013138617 0)
(0.97893096 0.014901231 0)
(0.97906838 0.018983855 0)
(0.98043642 0.022343821 0)
(0.98276276 0.024441924 0)
(0.98544795 0.025552242 0)
(0.98795752 0.026232239 0)
(0.99007505 0.026881344 0)
(0.99183366 0.027610114 0)
(0.99337559 0.028330295 0)
(0.99480144 0.028892503 0)
(0.99613592 0.029169861 0)
(0.99731388 0.02907736 0)
(0.9982359 0.028569346 0)
(0.99877123 0.027634395 0)
(0.9988136 0.026303452 0)
(0.99826892 0.024648033 0)
(0.9971 0.0227756 0)
(0.9952959 0.020817692 0)
(0.99290678 0.01890714 0)
(0.9899992 0.017154196 0)
(0.9866818 0.015626963 0)
(0.98304873 0.014350426 0)
(0.97920452 0.013313295 0)
(0.97521149 0.012486169 0)
(0.97112875 0.011830737 0)
(0.96697166 0.011308786 0)
(0.96275818 0.010887458 0)
(0.95847153 0.010539279 0)
(0.95411561 0.010241141 0)
(0.94966849 0.009974882 0)
(0.94513632 0.0097268994 0)
(0.94049954 0.009488194 0)
(0.93576967 0.0092530509 0)
(0.93093062 0.0090185738 0)
(0.92599951 0.0087833808 0)
(0.92096302 0.0085474578 0)
(0.91584281 0.008311226 0)
(0.91062684 0.0080757091 0)
(0.90533986 0.0078418367 0)
(0.89996962 0.0076107807 0)
(0.89454289 0.0073833871 0)
(0.88904618 0.0071606016 0)
(0.88350768 0.0069429767 0)
(0.87791207 0.0067311398 0)
(0.87228869 0.0065253411 0)
(0.86662007 0.0063259326 0)
(0.86093673 0.0061329409 0)
(0.85521886 0.0059465177 0)
(0.84949818 0.0057665164 0)
(0.84375245 0.0055929393 0)
(0.83801473 0.0054255343 0)
(0.83226025 0.0052642193 0)
(0.8265236 0.0051086959 0)
(0.82077738 0.0049588436 0)
(0.81505785 0.0048143542 0)
(0.80933491 0.0046750942 0)
(0.80364667 0.0045407669 0)
(0.79796019 0.0044112397 0)
(0.79231561 0.0042862391 0)
(0.78667704 0.0041656392 0)
(0.78108686 0.0040491963 0)
(0.77550606 0.003936792 0)
(0.76997946 0.0038282141 0)
(0.76446479 0.0037233497 0)
(0.75900951 0.003622018 0)
(0.75356792 0.003524108 0)
(0.74819036 0.0034294695 0)
(0.74282752 0.0033379888 0)
(0.73753286 0.0032495456 0)
(0.73225324 0.003164019 0)
(0.72704552 0.0030813183 0)
(0.72185253 0.0030013116 0)
(0.7167348 0.0029239377 0)
(0.71163089 0.0028490501 0)
(0.70660529 0.0027766182 0)
(0.70159207 0.0027064775 0)
(0.69665999 0.0026386293 0)
(0.69173832 0.0025728884 0)
(0.68690045 0.00250929 0)
(0.68207059 0.0024476252 0)
(0.67732709 0.0023879652 0)
(0.67258875 0.0023300751 0)
(0.6679393 0.0022740646 0)
(0.66329176 0.0022196693 0)
(0.65873566 0.0021670398 0)
(0.65417786 0.0021158795 0)
(0.64971411 0.0020663828 0)
(0.64524469 0.0020182175 0)
(0.64087204 0.0019716248 0)
(0.63648943 0.001926234 0)
(0.63220648 0.0018823355 0)
(0.62790892 0.0018395165 0)
(0.62371411 0.0017981199 0)
(0.61949971 0.001757687 0)
(0.61539141 0.0017186164 0)
(0.61125821 0.0016803996 0)
(0.60723471 0.0016434941 0)
(0.60318065 0.0016073377 0)
(0.59924023 0.0015724501 0)
(0.59526322 0.0015382114 0)
(0.59140415 0.0015052069 0)
(0.58750207 0.0014727549 0)
(0.58372261 0.0014415102 0)
(0.57989332 0.0014107247 0)
(0.57619177 0.0013811266 0)
(0.57243313 0.0013518968 0)
(0.56880782 0.0013238413 0)
(0.56511771 0.0012960653 0)
(0.561567 0.0012694568 0)
(0.55794328 0.0012430405 0)
(0.55446561 0.0012177911 0)
(0.55090616 0.0011926477 0)
(0.54750001 0.0011686762 0)
(0.54400275 0.0011447252 0)
(0.54066666 0.0011219568 0)
(0.53722949 0.0010991237 0)
(0.53396208 0.0010774893 0)
(0.53058293 0.0010557048 0)
(0.52738288 0.0010351404 0)
(0.52405971 0.0010143402 0)
(0.52092578 0.00099478676 0)
(0.51765654 0.00097491107 0)
(0.51458757 0.00095631377 0)
(0.51137023 0.00093730686 0)
(0.50836513 0.00091961505 0)
(0.50519768 0.00090142495 0)
(0.50225545 0.00088459164 0)
(0.49913586 0.00086716979 0)
(0.49625559 0.00085115132 0)
(0.49318184 0.00083445225 0)
(0.4903627 0.00081920806 0)
(0.48733278 0.00080318916 0)
(0.48457404 0.00078868158 0)
(0.48158591 0.00077330292 0)
(0.47888692 0.00075949696 0)
(0.47593854 0.00074472104 0)
(0.47329876 0.00073158419 0)
(0.47038807 0.00071737571 0)
(0.46780706 0.00070487773 0)
(0.46493195 0.00069120343 0)
(0.46240938 0.00067931614 0)
(0.45956772 0.00066614466 0)
(0.45710337 0.00065484191 0)
(0.45429299 0.00064214372 0)
(0.45188675 0.00063140127 0)
(0.44910542 0.00061914838 0)
(0.44675732 0.00060894351 0)
(0.44400275 0.00059710936 0)
(0.44171292 0.00058742097 0)
(0.43898277 0.00057598053 0)
(0.4367515 0.00056678912 0)
(0.43404331 0.00055571864 0)
(0.43187104 0.00054700612 0)
(0.42918228 0.00053628317 0)
(0.4270696 0.00052803267 0)
(0.42439762 0.00051763564 0)
(0.42234527 0.00050983139 0)
(0.41968731 0.00049974012 0)
(0.41769623 0.00049236785 0)
(0.41504938 0.00048256323 0)
(0.4131207 0.00047560957 0)
(0.41048188 0.00046607338 0)
(0.40861694 0.00045952576 0)
(0.4059829 0.00045024067 0)
(0.40418326 0.00044408764 0)
(0.40155055 0.00043503787 0)
(0.39981802 0.00042926904 0)
(0.39718296 0.00042043966 0)
(0.39551961 0.00041504499 0)
(0.39287825 0.00040642206 0)
(0.39128646 0.00040139241 0)
(0.38863456 0.00039296361 0)
(0.38711701 0.00038829064 0)
(0.38445001 0.00038004529 0)
(0.38300972 0.00037572091 0)
(0.38032269 0.00036765 0)
(0.37896308 0.00036366638 0)
(0.37625064 0.00035576348 0)
(0.37497554 0.00035211317 0)
(0.37223185 0.00034437479 0)
(0.37104553 0.00034105019 0)
(0.3682642 0.00033347716 0)
(0.36717144 0.00033047029 0)
(0.36434545 0.00032306875 0)
(0.36335154 0.0003203707 0)
(0.36047315 0.00031315475 0)
(0.35958395 0.00031075603 0)
(0.35664461 0.00030375148 0)
(0.35586655 0.00030164002 0)
(0.35285674 0.00029488895 0)
(0.35219684 0.00029305056 0)
(0.34910591 0.00028662277 0)
(0.3485717 0.00028504089 0)
(0.34538769 0.00027905059 0)
(0.34498696 0.00027770134 0)
(0.34169639 0.00027234579 0)
(0.3414366 0.0002711578 0)
(0.33802486 0.00026692446 0)
(0.33791053 0.00026529058 0)
(0.3343671 0.00026728799 0)
(0.98099692 0.014583899 0)
(0.98107239 0.017839768 0)
(0.98207476 0.0208135 0)
(0.98391647 0.023052999 0)
(0.98626383 0.024476776 0)
(0.98868885 0.025363733 0)
(0.99093433 0.026044036 0)
(0.99294856 0.026700098 0)
(0.99483598 0.027333735 0)
(0.9967045 0.027842121 0)
(0.99862628 0.028105449 0)
(1.0005801 0.028035551 0)
(1.0025077 0.027587192 0)
(1.0042976 0.026755975 0)
(1.0058548 0.025576039 0)
(1.0070712 0.024114825 0)
(1.0078885 0.022465531 0)
(1.0082548 0.020737811 0)
(1.0081836 0.01904174 0)
(1.0076958 0.017471508 0)
(1.0068723 0.016090052 0)
(1.0057779 0.014925551 0)
(1.0045112 0.013974845 0)
(1.0031236 0.013215579 0)
(1.0016831 0.012614784 0)
(1.0001994 0.012137565 0)
(0.99870307 0.011753416 0)
(0.99717232 0.011437937 0)
(0.99562143 0.011171264 0)
(0.99401838 0.010937653 0)
(0.99237599 0.010724638 0)
(0.99066039 0.010523304 0)
(0.98888763 0.010327421 0)
(0.98702446 0.010133344 0)
(0.98509182 0.0099389515 0)
(0.98305769 0.0097435615 0)
(0.98094802 0.0095470609 0)
(0.97873141 0.0093500205 0)
(0.97643814 0.0091530468 0)
(0.97403641 0.0089570305 0)
(0.97156012 0.0087626519 0)
(0.96897621 0.0085706944 0)
(0.96632175 0.008381655 0)
(0.96356178 0.0081960739 0)
(0.96073634 0.008014219 0)
(0.95780818 0.0078363953 0)
(0.95482023 0.0076626803 0)
(0.95173265 0.0074931948 0)
(0.94859132 0.0073278902 0)
(0.94535359 0.0071667614 0)
(0.94206841 0.0070096892 0)
(0.93869009 0.0068565915 0)
(0.93527085 0.0067073248 0)
(0.93176173 0.0065617653 0)
(0.9282184 0.0064197766 0)
(0.92458844 0.0062812132 0)
(0.92093113 0.006145964 0)
(0.9171904 0.0060138719 0)
(0.91342935 0.005884862 0)
(0.90958797 0.0057587695 0)
(0.90573345 0.0056355616 0)
(0.90180157 0.0055150645 0)
(0.89786383 0.0053972901 0)
(0.89385153 0.005282052 0)
(0.88984073 0.0051694072 0)
(0.88575794 0.0050591513 0)
(0.88168406 0.0049513858 0)
(0.87754051 0.0048458823 0)
(0.87341329 0.0047427868 0)
(0.86921838 0.0046418404 0)
(0.86504722 0.0045432341 0)
(0.86081 0.0044466727 0)
(0.85660393 0.0043523928 0)
(0.852333 0.0042600577 0)
(0.84810059 0.0041699517 0)
(0.84380409 0.0040816914 0)
(0.83955342 0.0039956116 0)
(0.83523897 0.0039112773 0)
(0.83097762 0.0038290773 0)
(0.82665229 0.0037485209 0)
(0.82238732 0.0036700545 0)
(0.81805765 0.0035931276 0)
(0.81379557 0.0035182487 0)
(0.80946753 0.0034448028 0)
(0.80521433 0.0033733652 0)
(0.80089337 0.0033032517 0)
(0.79665452 0.0032351096 0)
(0.79234553 0.003168181 0)
(0.788126 0.0031031905 0)
(0.78383337 0.0030393015 0)
(0.77963764 0.0029773215 0)
(0.77536529 0.0029163299 0)
(0.7711974 0.0028572229 0)
(0.76694875 0.0027989901 0)
(0.76281232 0.0027426226 0)
(0.75859037 0.0026870144 0)
(0.75448861 0.0026332576 0)
(0.75029595 0.0025801445 0)
(0.74623173 0.0025288744 0)
(0.74207055 0.0024781315 0)
(0.73804638 0.0024292293 0)
(0.73391855 0.0023807368 0)
(0.72993667 0.0023340887 0)
(0.7258437 0.0022877318 0)
(0.72190605 0.0022432293 0)
(0.71784919 0.0021988983 0)
(0.71395748 0.0021564382 0)
(0.70993767 0.0021140283 0)
(0.70609339 0.0020735123 0)
(0.70211134 0.0020329237 0)
(0.69831581 0.0019942588 0)
(0.69437198 0.0019553964 0)
(0.69062633 0.0019184944 0)
(0.686721 0.0018812682 0)
(0.68302623 0.0018460457 0)
(0.67915946 0.0018103696 0)
(0.67551646 0.0017767479 0)
(0.67168813 0.0017425403 0)
(0.66809767 0.0017104447 0)
(0.66430752 0.001677628 0)
(0.6607703 0.0016469883 0)
(0.6570179 0.001615489 0)
(0.65353455 0.001586239 0)
(0.64981932 0.0015559873 0)
(0.64639042 0.0015280648 0)
(0.64271167 0.0014989944 0)
(0.63933777 0.0014723409 0)
(0.63569466 0.0014443889 0)
(0.63237628 0.0014189494 0)
(0.62876785 0.0013920559 0)
(0.62550551 0.0013677785 0)
(0.62193069 0.0013418867 0)
(0.61872492 0.001318723 0)
(0.61518251 0.0012937787 0)
(0.61203386 0.0012716831 0)
(0.60852256 0.0012476349 0)
(0.60543158 0.0012265647 0)
(0.60194997 0.0012033636 0)
(0.59891729 0.0011832789 0)
(0.59546383 0.0011608781 0)
(0.59249011 0.0011417414 0)
(0.58906313 0.0011200963 0)
(0.58614911 0.0011018727 0)
(0.58274684 0.0010809405 0)
(0.57989332 0.0010635976 0)
(0.57651384 0.0010433376 0)
(0.57372174 0.0010268447 0)
(0.570363 0.0010072177 0)
(0.56763331 0.0009915465 0)
(0.56429313 0.00097251505 0)
(0.56162697 0.0009576393 0)
(0.558303 0.0009391674 0)
(0.55570163 0.00092506292 0)
(0.55239136 0.0009071162 0)
(0.54985618 0.00089376047 0)
(0.54655692 0.00087630535 0)
(0.5440895 0.0008636775 0)
(0.54079838 0.00084668216 0)
(0.53840046 0.00083476351 0)
(0.53511438 0.00081819733 0)
(0.53278791 0.00080697067 0)
(0.52950356 0.00079080401 0)
(0.5272507 0.00078025337 0)
(0.52396453 0.00076445752 0)
(0.5217877 0.00075456876 0)
(0.51849585 0.0007391169 0)
(0.51639773 0.00072987768 0)
(0.51309605 0.00071474386 0)
(0.51107963 0.00070614263 0)
(0.50776364 0.00069130198 0)
(0.50583223 0.00068332871 0)
(0.50249707 0.00066875831 0)
(0.50065434 0.00066140462 0)
(0.49729474 0.00064708352 0)
(0.49554475 0.0006403417 0)
(0.49215499 0.0006262509 0)
(0.49050224 0.00062011416 0)
(0.48707605 0.00060623801 0)
(0.48552552 0.00060070051 0)
(0.48205609 0.00058702718 0)
(0.48061327 0.00058208335 0)
(0.47709312 0.00056860685 0)
(0.47576405 0.00056425116 0)
(0.472185 0.00055097293 0)
(0.47097632 0.00054719862 0)
(0.46732938 0.00053413156 0)
(0.46624832 0.0005309313 0)
(0.46252359 0.00051810595 0)
(0.46157801 0.00051546779 0)
(0.45776459 0.0005029394 0)
(0.45696289 0.00050084604 0)
(0.45304879 0.0004887154 0)
(0.45239976 0.00048713865 0)
(0.44837181 0.00047558317 0)
(0.44788418 0.00047446016 0)
(0.44372816 0.00046382676 0)
(0.44340953 0.00046294499 0)
(0.43911104 0.00045414844 0)
(0.4389648 0.0004525301 0)
(0.43451382 0.00045153486 0)
(0.98276273 0.014418478 0)
(0.98283574 0.017158846 0)
(0.9836372 0.019789611 0)
(0.9851276 0.02198629 0)
(0.98712441 0.023568536 0)
(0.98931891 0.024610766 0)
(0.99147387 0.025335184 0)
(0.99347004 0.025929177 0)
(0.99534905 0.026456419 0)
(0.99718077 0.026870483 0)
(0.99904941 0.027079519 0)
(1.0009535 0.027001318 0)
(1.0028729 0.026589663 0)
(1.0047171 0.025839684 0)
(1.006421 0.024782417 0)
(1.0078834 0.023477674 0)
(1.0090615 0.022005519 0)
(1.0098932 0.020457725 0)
(1.010392 0.01892642 0)
(1.0105541 0.017492496 0)
(1.0104528 0.016214012 0)
(1.0101267 0.015121196 0)
(1.0096741 0.014217503 0)
(1.0091295 0.01348714 0)
(1.0085718 0.012902994 0)
(1.0080007 0.012434873 0)
(1.0074638 0.012055332 0)
(1.0069306 0.011742282 0)
(1.0064326 0.011478092 0)
(1.0059261 0.011248778 0)