/*--------------------------------*- C++ -*----------------------------------*\
| =========                 |                                                 |
| \\      /  F ield         | OpenFOAM: The Open Source CFD Toolbox           |
|  \\    /   O peration     | Version:  5.x                                   |
|   \\  /    A nd           | Web:      www.OpenFOAM.org                      |
|    \\/     M anipulation  |                                                 |
\*---------------------------------------------------------------------------*/
FoamFile
{
    version     2.0;
    format      ascii;
    class       volScalarField;
    location    "0.1";
    object      p;
}
// * * * * * * * * * * * * * * * * * * * * * * * * * * * * * * * * * * * * * //

dimensions      [0 2 -2 0 0 0 0];

internalField   nonuniform List<scalar> 
21600
(
0.042169075
0.03952911
0.034498823
0.029753625
0.026135121
0.023478037
0.021311665
0.019236871
0.017032206
0.014618692
0.012003263
0.0092465406
0.0064512236
0.0037551916
0.0013199444
-0.000692295
-0.0021604371
-0.0030361194
-0.0033529933
-0.0032129547
-0.0027535158
-0.0021128301
-0.0014060327
-0.00071614068
-9.4684715e-05
0.00043216818
0.00085636317
0.0011820548
0.0014208
0.001587491
0.0016973889
0.0017643996
0.0018003205
0.001814674
0.0018148396
0.001806322
0.0017930691
0.0017777902
0.0017622445
0.0017474875
0.0017340724
0.0017222095
0.0017118846
0.0017029444
0.0016951575
0.0016882558
0.0016819609
0.0016760014
0.0016701264
0.0016641156
0.001657783
0.0016509767
0.0016435759
0.0016354862
0.001626636
0.0016169732
0.0016064662
0.0015951038
0.0015828948
0.0015698635
0.001556042
0.0015414622
0.0015261495
0.0015101212
0.0014933889
0.0014759649
0.0014578686
0.0014391278
0.001419777
0.0013998518
0.0013793842
0.0013583968
0.0013368991
0.0013148875
0.0012923503
0.0012692789
0.0012456784
0.0012215742
0.0011970075
0.0011720203
0.0011466352
0.0011208444
0.0010946163
0.0010679179
0.0010407412
0.0010131195
0.00098512755
0.00095686264
0.00092841294
0.00089982538
0.00087108749
0.00084213755
0.00081290398
0.00078336082
0.00075357088
0.00072369331
0.00069395087
0.00066457485
0.00063575352
0.00060760467
0.00058017755
0.00055348165
0.00052753072
0.00050238304
0.00047816008
0.00045503733
0.0004332166
0.00041289827
0.00039426197
0.00037745572
0.00036259427
0.0003497666
0.00033904702
0.00033050202
0.00032418793
0.00032014334
0.0003183818
0.00031888337
0.00032158636
0.0003263845
0.00033312777
0.00034162234
0.00035163396
0.00036289543
0.00037511594
0.00038799312
0.00040123183
0.00041456404
0.0004277673
0.00044067846
0.00045320122
0.00046530181
0.00047699621
0.00048833019
0.00049935855
0.00051012458
0.00052064704
0.00053091373
0.00054088552
0.00055050409
0.00055970459
0.00056842482
0.00057661472
0.00058423778
0.00059127247
0.00059770739
0.00060354079
0.0006087752
0.0006134176
0.00061747392
0.00062095035
0.00062384777
0.0006261643
0.00062789029
0.00062901336
0.00062951446
0.00062937547
0.0006285743
0.00062709392
0.00062492043
0.00062203579
0.00061843729
0.00061412379
0.00060909786
0.00060335899
0.00059691547
0.00058977521
0.00058194022
0.00057342307
0.00056421626
0.00055433272
0.00054377196
0.00053254549
0.00052066134
0.00050812465
0.00049494961
0.00048115505
0.00046674626
0.00045174443
0.00043615403
0.00041998931
0.00040324896
0.00038594908
0.00036808277
0.00034966707
0.00033069132
0.00031117519
0.00029110906
0.00027051684
0.00024939057
0.00022776007
0.00020561957
0.00018300474
0.0001599121
0.00013638339
0.00011241859
8.8061668e-05
6.3319951e-05
3.8228205e-05
1.2809515e-05
0.037667542
0.03641955
0.033056396
0.029152176
0.02574769
0.023067081
0.020876131
0.018842827
0.016730141
0.014428699
0.011927145
0.0092804808
0.0065901301
0.0039936113
0.0016471424
-0.00030393733
-0.0017496058
-0.0026399151
-0.0029970647
-0.0029083437
-0.0024999606
-0.0019048275
-0.0012375451
-0.00058182883
1.1612229e-05
0.00051684764
0.00092503222
0.0012393948
0.0014703659
0.0016317231
0.0017378557
0.0018020788
0.0018358102
0.0018483314
0.0018468725
0.0018368502
0.0018221648
0.0018055042
0.0017886219
0.0017725761
0.0017579261
0.0017448885
0.0017334535
0.0017234704
0.0017147078
0.0017068969
0.0016997569
0.0016930122
0.001686408
0.0016797189
0.0016727543
0.0016653576
0.0016574039
0.0016487957
0.0016394579
0.0016293353
0.0016183933
0.0016066186
0.0015940178
0.0015806136
0.0015664369
0.0015515184
0.0015358824
0.0015195448
0.001502516
0.0014848074
0.0014664369
0.0014474318
0.0014278262
0.0014076556
0.0013869516
0.0013657365
0.0013440192
0.0013217957
0.0012990538
0.0012757835
0.0012519893
0.0012276965
0.0012029466
0.0011777821
0.0011522259
0.0011262696
0.0010998807
0.0010730251
0.0010456936
0.001017919
0.0009897766
0.00096136436
0.00093277162
0.00090404597
0.00087517476
0.00084609497
0.00081673304
0.00078706121
0.00075714147
0.00072713342
0.00069726116
0.00066775752
0.00063881187
0.0006105423
0.00058299754
0.00055618602
0.00053012028
0.00050485788
0.00048052022
0.00045728332
0.00043534966
0.0004149202
0.00039617506
0.00037926255
0.00036429745
0.00035136872
0.00034055063
0.00033190985
0.000325503
0.00032136899
0.00031952175
0.00031994173
0.00032256755
0.00032729317
0.0003339688
0.00034240076
0.00035235481
0.00036356366
0.00037573628
0.00038856987
0.00040176871
0.00041506409
0.0004282329
0.00044111136
0.00045360276
0.00046567308
0.00047733831
0.00048864436
0.00049964624
0.00051038745
0.00052088693
0.00053113249
0.00054108492
0.0005506857
0.00055986982
0.00056857482
0.00057675051
0.00058436026
0.0005913825
0.00059780574
0.00060362825
0.00060885253
0.00061348553
0.00061753317
0.00062100165
0.00062389181
0.0006262018
0.00062792198
0.00062904006
0.00062953687
0.0006293939
0.00062858906
0.00062710546
0.00062492493
0.00062203975
0.00061843925
0.00061412422
0.00060909628
0.00060335531
0.00059691046
0.00058976919
0.00058193326
0.00057341549
0.00056420825
0.00055432447
0.00054376357
0.00053253705
0.00052065314
0.00050811654
0.00049494169
0.00048114738
0.00046673884
0.00045173729
0.00043614726
0.0004199829
0.00040324293
0.00038594348
0.00036807758
0.00034966233
0.00033068702
0.00031117132
0.0002911056
0.00027051377
0.00024938791
0.00022775776
0.00020561762
0.00018300309
0.00015991079
0.00013638231
0.00011241782
8.8061054e-05
6.3319656e-05
3.8227929e-05
1.2809572e-05
0.03444802
0.033915154
0.031748171
0.028668142
0.025546821
0.022835328
0.020555123
0.018500572
0.016447286
0.014258466
0.011898804
0.0094109781
0.0068897463
0.0044618317
0.002263703
0.00041844155
-0.0009814737
-0.0018906061
-0.0023202754
-0.0023361539
-0.002041328
-0.001551607
-0.00097264009
-0.00038630844
0.00015204056
0.00061374031
0.00099012175
0.0012836522
0.0015026914
0.0016583882
0.0017627223
0.0018272055
0.0018620808
0.0018759385
0.0018756384
0.0018664252
0.0018521442
0.0018354945
0.0018182757
0.001801608
0.0017861172
0.0017720834
0.0017595517
0.0017484159
0.0017384786
0.0017294965
0.0017212082
0.001713353
0.0017056875
0.0016979947
0.0016900872
0.0016818083
0.0016730307
0.0016636541
0.001653601
0.0016428137
0.0016312543
0.0016189061
0.0016057722
0.0015918712
0.0015772304
0.0015618775
0.0015458344
0.0015291148
0.0015117271
0.0014936807
0.0014749915
0.0014556845
0.0014357918
0.0014153479
0.0013943841
0.001372922
0.0013509695
0.0013285211
0.0013055636
0.0012820869
0.0012580947
0.001233611
0.0012086773
0.0011833359
0.0011576098
0.0011314903
0.0011049441
0.0010779364
0.001050457
0.0010225381
0.00099425449
0.0009657049
0.00093697921
0.00090812533
0.00087913037
0.00084993033
0.00082045023
0.00079066092
0.0007606237
0.00073049835
0.00070050983
0.00067089203
0.000641835
0.00061345691
0.0005858059
0.00055888944
0.00053271914
0.00050735198
0.00048290942
0.0004595679
0.0004375305
0.00041699863
0.00039815275
0.00038114135
0.00036607923
0.00035305527
0.00034214377
0.0003334116
0.00032691568
0.00032269526
0.0003207646
0.00032110455
0.00032365402
0.00032830717
0.00033491444
0.00034328233
0.00035317667
0.00036433015
0.00037645163
0.00038923797
0.00040239303
0.00041564756
0.00042877792
0.00044161981
0.00045407619
0.00046611289
0.00047774589
0.00048902121
0.00049999407
0.00051070815
0.00052118249
0.00053140487
0.00054133598
0.00055091707
0.0005600829
0.00056877078
0.00057693037
0.00058452489
0.00059153277
0.00059794244
0.00060375221
0.00060896452
0.0006135864
0.00061762372
0.00062108272
0.00062396417
0.00062626626
0.00062797922
0.00062909079
0.00062958173
0.00062943356
0.00062862408
0.00062713643
0.0006249523
0.00062206327
0.00061845934
0.00061414147
0.00060910776
0.00060336743
0.0005969207
0.00058977753
0.00058194022
0.00057342088
0.0005642118
0.00055432678
0.0005437649
0.00053253745
0.00052065295
0.00050811561
0.00049494035
0.00048114575
0.000466737
0.00045173529
0.00043614537
0.00041998111
0.00040324124
0.00038594197
0.00036807624
0.00034966121
0.00033068607
0.00031117061
0.00029110504
0.00027051339
0.00024938764
0.00022775762
0.00020561755
0.0001830031
0.00015991083
0.00013638239
0.0001124179
8.8061103e-05
6.3319771e-05
3.8227979e-05
1.2809714e-05
0.032164948
0.031895682
0.030416336
0.028001437
0.02522466
0.022580051
0.020252191
0.018169881
0.016160502
0.014081679
0.011876926
0.0095707331
0.0072424739
0.0050011969
0.0029629026
0.0012317421
-0.00011376706
-0.001032335
-0.0015271948
-0.0016459554
-0.0014701866
-0.0010974346
-0.00062206025
-0.00012164074
0.00034904321
0.00075942173
0.001098258
0.0013657703
0.0015679933
0.0017136669
0.0018125581
0.0018744056
0.0019081857
0.0019216592
0.0019211805
0.0019117085
0.0018969442
0.0018795311
0.0018612681
0.0018433068
0.0018263228
0.0018106524
0.0017963965
0.0017834971
0.001771795
0.0017610725
0.0017510868
0.0017415961
0.0017323729
0.0017232126
0.0017139347
0.0017043829
0.0016944253
0.0016839544
0.0016728867
0.0016611603
0.0016487338
0.0016355854
0.0016217119
0.0016071247
0.0015918434
0.0015758897
0.0015592819
0.0015420323
0.0015241477
0.0015056347
0.0014865062
0.001466784
0.001446497
0.0014256774
0.0014043553
0.0013825525
0.0013602761
0.0013375187
0.0013142659
0.0012905078
0.0012662487
0.0012415117
0.0012163355
0.0011907603
0.0011648089
0.0011384736
0.0011117217
0.0010845184
0.0010568529
0.0010287562
0.0010003015
0.00097158615
0.00094269933
0.00091368873
0.00088454172
0.00085519527
0.0008255753
0.00079565271
0.00076548765
0.00073523799
0.00070512682
0.00067538677
0.00064620736
0.00061770679
0.00058993361
0.00056289572
0.0005366051
0.00051111872
0.00048655758
0.00046309746
0.0004409409
0.00042028897
0.000401322
0.00038418843
0.00036900327
0.00035585563
0.00034482013
0.00033596388
0.00032934408
0.00032500015
0.00032294671
0.00032316502
0.00032559451
0.00033012989
0.0003366223
0.00034487898
0.00035466652
0.0003657183
0.00037774385
0.00039044045
0.0004035122
0.00041668979
0.00042974923
0.00044252566
0.00045492138
0.00046690148
0.00047848133
0.00048970645
0.0005006318
0.00051130089
0.0005217328
0.00053191527
0.00054180903
0.0005513552
0.00056048844
0.0005691458
0.00057727678
0.00058484437
0.00059182688
0.00059821263
0.00060399989
0.00060919106
0.0006137932
0.00061781214
0.00062125413
0.0006241199
0.00062640761
0.00062810738
0.0006292069
0.00062968676
0.00062952844
0.00062870957
0.00062721322
0.00062502113
0.00062212463
0.00061851387
0.00061418981
0.00060915014
0.00060340401
0.00059695235
0.00058980509
0.00058196497
0.00057343881
0.00056422873
0.00055434175
0.00054377787
0.00053254876
0.00052066265
0.0005081228
0.00049494573
0.00048114979
0.00046673994
0.00045173722
0.00043614658
0.00041998182
0.0004032416
0.00038594215
0.00036807629
0.00034966127
0.00033068615
0.00031117077
0.00029110523
0.00027051363
0.00024938788
0.00022775786
0.00020561775
0.00018300323
0.00015991085
0.00013638228
0.00011241769
8.8060743e-05
6.3319395e-05
3.8227553e-05
1.2809315e-05
0.030343587
0.030151867
0.02904651
0.02712027
0.024712557
0.022232046
0.019931779
0.017847051
0.015877396
0.013901671
0.011851419
0.0097289496
0.0075928103
0.0055324925
0.003645733
0.0020218459
0.00072941135
-0.00019290749
-0.00074203324
-0.00095134636
-0.00088449685
-0.0006224744
-0.00024806998
0.00016711153
0.00057026142
0.00092946058
0.0012305227
0.001470939
0.001654514
0.0017880332
0.0018794889
0.0019370856
0.0019685831
0.0019808571
0.0019796643
0.0019695875
0.0019541095
0.0019357616
0.0019163006
0.0018968823
0.0018782143
0.0018606814
0.0018444387
0.0018294801
0.0018156903
0.0018028862
0.0017908518
0.0017793671
0.0017682234
0.0017572318
0.0017462239
0.0017350487
0.0017235717
0.001711678
0.0016992771
0.0016863036
0.0016727152
0.0016584885
0.001643615
0.0016280969
0.0016119435
0.0015951679
0.0015777844
0.0015598052
0.0015412376
0.0015220859
0.0015023577
0.0014820696
0.0014612472
0.0014399198
0.0014181152
0.0013958536
0.0013731414
0.00134997
0.0013263236
0.0013021924
0.0012775821
0.0012525157
0.0012270277
0.0012011522
0.0011749094
0.0011482941
0.0011212777
0.0010938274
0.0010659321
0.0010376205
0.0010089624
0.00098005083
0.00095097157
0.00092177071
0.00089243704
0.00086291198
0.00083312714
0.00080305666
0.00077275919
0.00074238704
0.00071215646
0.00068229448
0.00065298761
0.00062435374
0.00059644349
0.00056926814
0.00054284256
0.00051722469
0.00049253424
0.0004689443
0.0004466546
0.00042586416
0.00040675215
0.00038946655
0.00037412262
0.00036081019
0.00034960448
0.00034057283
0.00033377239
0.0003292425
0.00032699793
0.00032702044
0.00032925035
0.00033358368
0.00033987332
0.00034792847
0.00035751801
0.00036837753
0.00038021883
0.0003927413
0.00040565078
0.00041867892
0.00043160199
0.00044425454
0.00045653765
0.00046841462
0.00047989897
0.00049103449
0.00050187484
0.00051246273
0.00052281698
0.00053292538
0.0005427489
0.00055222883
0.0005612999
0.00056989902
0.00057797544
0.00058549179
0.00059242612
0.00059876643
0.00060451092
0.00060966184
0.00061422625
0.0006182099
0.00062161905
0.0006244543
0.00062671376
0.00062838738
0.00062946273
0.0006299202
0.00062974116
0.00062890302
0.00062738877
0.00062518008
0.00062226807
0.0006186429
0.0006143054
0.00060925345
0.00060349587
0.0005970338
0.00058987711
0.00058202883
0.00057349434
0.00056427615
0.00055438224
0.00054381242
0.00053257921
0.00052068133
0.00050814244
0.00049496245
0.00048116368
0.00046675132
0.00045174689
0.00043615397
0.00041998687
0.0004032451
0.00038594453
0.00036807782
0.00034966213
0.00033068643
0.00031117076
0.000291105
0.00027051319
0.00024938734
0.00022775714
0.00020561695
0.00018300224
0.00015990975
0.00013638091
0.00011241618
8.8059008e-05
6.3317672e-05
3.8225911e-05
1.2807673e-05
0.02877046
0.02858929
0.02769153
0.026112288
0.024049956
0.021797004
0.019596866
0.017549754
0.015626844
0.013744139
0.011834848
0.0098839452
0.007927725
0.0060353152
0.0042880104
0.002763035
0.0015215542
0.00060058147
8.0518692e-06
-0.00027845338
-0.00030798994
-0.00014704819
0.00013279647
0.00046669925
0.00080452845
0.001113659
0.0013773316
0.001590321
0.0017542699
0.0018742726
0.001956871
0.0020089731
0.0020372261
0.0020476213
0.0020452685
0.0020343138
0.0020179675
0.0019986073
0.0019779179
0.0019570375
0.0019366913
0.0019173012
0.001899069
0.0018820362
0.0018661304
0.0018512035
0.0018370674
0.0018235226
0.0018103787
0.0017974631
0.0017846215
0.0017717112
0.0017585984
0.0017451621
0.0017313041
0.0017169553
0.0017020749
0.0016866415
0.0016706436
0.0016540743
0.0016369305
0.0016192151
0.0016009382
0.001582114
0.0015627534
0.0015428597
0.0015224334
0.0015014832
0.0014800307
0.0014581049
0.0014357321
0.0014129293
0.0013897007
0.0013660374
0.0013419241
0.0013173511
0.0012923256
0.0012668705
0.001241016
0.0012147887
0.0011882034
0.0011612578
0.0011339311
0.0011061951
0.0010780382
0.0010494854
0.0010206016
0.00099147438
0.00096218334
0.00093277136
0.00090322929
0.00087350632
0.00084354425
0.00081332398
0.0007829029
0.00075242451
0.00072209335
0.00069212645
0.00066270438
0.00063394374
0.0006058984
0.00057858583
0.0005520268
0.00052628148
0.00050146741
0.00047775276
0.00045533199
0.00043439978
0.00041513249
0.00039767691
0.00038214852
0.00036863816
0.00035722196
0.00034796732
0.00034093084
0.00033615114
0.00033364264
0.00033338725
0.00033532635
0.00033935796
0.00034533786
0.00035307905
0.00036235475
0.00037290502
0.0003844463
0.00039668261
0.00040932369
0.00042210375
0.00043480024
0.00044724733
0.00045934426
0.00047105135
0.0004823788
0.00049336713
0.00050406751
0.00051452097
0.00052474579
0.00053472986
0.00054443473
0.00055380218
0.00056276732
0.00057126697
0.00057925009
0.00058667868
0.00059353026
0.00059979235
0.00060546289
0.0006105439
0.00061504243
0.00061896412
0.00062231522
0.00062509617
0.00062730501
0.00062893144
0.00062996292
0.00063037951
0.00063016243
0.00062928882
0.00062774149
0.00062550194
0.00062256109
0.00061890904
0.00061454644
0.00060947128
0.000603692
0.00059720989
0.00059003469
0.00058216901
0.00057361884
0.0005643862
0.00055447907
0.00054389714
0.00053265317
0.00052074541
0.00050819605
0.00049500705
0.00048120042
0.00046678152
0.0004517725
0.00043617228
0.00042000166
0.00040325657
0.00038595314
0.0003680841
0.0003496669
0.00033068927
0.00031117182
0.00029110498
0.00027051225
0.00024938587
0.00022775508
0.00020561463
0.00018299946
0.00015990689
0.00013637769
0.00011241281
8.8055305e-05
6.3314011e-05
3.8222552e-05
1.280446e-05
0.027358091
0.027167589
0.026398536
0.025071454
0.023305454
0.021297703
0.019247584
0.017279497
0.015417236
0.013619264
0.011832811
0.010034042
0.0082402042
0.0065008539
0.0048815989
0.0034487886
0.0022575667
0.0013436765
0.00071865579
0.00036838761
0.00025545672
0.00032581588
0.00051848953
0.00077574756
0.001050719
0.0013107925
0.0015372651
0.0017224684
0.0018659718
0.0019713014
0.0020437437
0.0020891008
0.0021130281
0.0021206752
0.0021164932
0.0021041552
0.0020865609
0.002065903
0.0020437707
0.0020212679
0.0019991249
0.0019777905
0.0019575034
0.0019383452
0.0019202804
0.001903193
0.0018869197
0.0018712811
0.0018561036
0.0018412299
0.0018265182
0.0018118345
0.0017970468
0.00178203
0.0017666783
0.0017509178
0.0017347081
0.0017180311
0.0017008748
0.0016832234
0.0016650602
0.0016463761
0.0016271763
0.0016074779
0.0015872972
0.0015666379
0.0015454922
0.0015238577
0.0015017503
0.0014792007
0.0014562373
0.0014328742
0.0014091104
0.001384935
0.0013603343
0.0013353016
0.001309845
0.0012839863
0.0012577507
0.0012311579
0.001204218
0.0011769309
0.0011492838
0.0011212559
0.0010928353
0.0010640415
0.0010349338
0.0010055942
0.00097609621
0.00094647806
0.00091673251
0.00088681846
0.0008566909
0.00082633955
0.00079582065
0.000765267
0.00073486846
0.00070482928
0.00067532207
0.00064646113
0.00061830391
0.00059087577
0.00056420557
0.00053835674
0.00051344375
0.00048962794
0.00046709662
0.00044603818
0.00042662432
0.00040899944
0.00039327895
0.00037955473
0.00036790375
0.00035839316
0.00035107858
0.0003459974
0.00034316306
0.00034255733
0.00034412293
0.00034776025
0.00035332876
0.00036064672
0.00036949375
0.0003796166
0.000390739
0.00040257247
0.00041483334
0.00042726038
0.00043963355
0.00045178702
0.00046361767
0.00047508154
0.00048618385
0.00049696023
0.00050745796
0.00051771563
0.00052775073
0.00053755153
0.00054708066
0.00055628095
0.00056508832
0.00057343968
0.00058128361
0.0005885812
0.00059530909
0.0006014539
0.00060701307
0.00061198825
0.00061638634
0.00062021286
0.00062347408
0.00062617032
0.00062829959
0.00062985138
0.00063081301
0.00063116424
0.0006308861
0.00062995537
0.00062835464
0.00062606517
0.00062307759
0.00061938184
0.00061497835
0.00060986508
0.00060405011
0.00059753479
0.00059032877
0.00058243423
0.00057385765
0.00056460034
0.00055467029
0.0005440671
0.00053280296
0.00052087702
0.0005083105
0.00049510614
0.00048128535
0.00046685367
0.00045183367
0.0004362228
0.00042004194
0.00040328839
0.00038597771
0.00036810284
0.00034967899
0.00033069832
0.00031117742
0.00029110802
0.00027051298
0.00024938507
0.00022775274
0.00020561144
0.00018299515
0.00015990224
0.00013637203
0.00011240751
8.8049534e-05
6.3308301e-05
3.8217364e-05
1.2799572e-05
0.026069033
0.025867285
0.025188723
0.02405162
0.022529873
0.020755305
0.018879313
0.017022521
0.015238687
0.013522488
0.011842294
0.010174812
0.0085243356
0.0069232555
0.0054222442
0.0040771737
0.0029373513
0.0020369422
0.0013899472
0.00098856384
0.00080471935
0.00079499445
0.00090817192
0.0010936473
0.0013082977
0.001520264
0.0017096148
0.0018666581
0.0019890288
0.0020787332
0.0021398905
0.0021773258
0.0021958217
0.0021997586
0.0021929526
0.0021785942
0.0021592479
0.0021368946
0.0021130063
0.0020886363
0.0020645066
0.0020410824
0.0020186295
0.0019972594
0.0019769654
0.0019576565
0.0019391913
0.0019214096
0.0019041551
0.001887285
0.0018706679
0.0018541751
0.0018376761
0.0018210433
0.0018041661
0.0017869658
0.0017694009
0.001751455
0.0017331159
0.0017143609
0.0016951601
0.0016754917
0.0016553554
0.0016347703
0.001613758
0.0015923233
0.0015704514
0.0015481275
0.0015253592
0.0015021784
0.0014786192
0.0014546956
0.0014303993
0.0014057133
0.0013806247
0.0013551328
0.0013292487
0.0013029915
0.0012763797
0.0012494264
0.0012221393
0.0011945207
0.0011665646
0.0011382563
0.001109585
0.001080565
0.0010512488
0.0010217136
0.00099202783
0.00096222525
0.00093229943
0.00090221909
0.00087195351
0.00084150186
0.00081091886
0.00078032577
0.00074989701
0.0007198234
0.00069026892
0.00066134474
0.00063311163
0.00060560336
0.00057885771
0.00055294182
0.00052796649
0.00050408494
0.00048147618
0.00046032128
0.00044078575
0.00042301028
0.00040710958
0.00039317639
0.00038128822
0.00037151144
0.00036390037
0.00035849083
0.00035529477
0.00035429344
0.00035543089
0.00035860993
0.00036369399
0.00037050749
0.00037883788
0.00038844025
0.00039904774
0.0004103819
0.00042216818
0.00043415201
0.00044611746
0.00045789961
0.00046939291
0.00048054823
0.00049136442
0.00050187063
0.00051210883
0.00052211412
0.00053190288
0.00054146398
0.00055076175
0.00055974082
0.00056833861
0.00057649262
0.00058415116
0.00059127431
0.00059783751
0.00060382616
0.00060923677
0.0006140703
0.00061833327
0.00062203094
0.00062516952
0.00062774923
0.00062976813
0.00063121562
0.00063207899
0.00063233781
0.00063197295
0.00063096089
0.00062928398
0.00062692316
0.00062386872
0.00062011034
0.00061564815
0.00061047998
0.00060461354
0.00059805015
0.00059079927
0.00058286267
0.00057424712
0.00056495334
0.00055498925
0.00054435436
0.00053306041
0.00052110725
0.00050851482
0.00049528649
0.0004814433
0.00046699093
0.00045195126
0.00043632284
0.0004201261
0.00040335834
0.00038603478
0.00036814876
0.0003497155
0.00033072608
0.00031119715
0.00029112163
0.00027052125
0.00024938947
0.00022775362
0.0002056101
0.00018299157
0.0001598976
0.00013636608
0.00011240104
8.8042336e-05
6.3301031e-05
3.8210732e-05
1.2793338e-05
0.024884951
0.024676294
0.024068205
0.023077488
0.021754261
0.020187744
0.018489541
0.016763196
0.015074328
0.013442549
0.011857555
0.010303388
0.0087781335
0.0073012101
0.0059098469
0.0046494729
0.0035630437
0.0026824145
0.0020230212
0.0015819159
0.0013386449
0.0012588722
0.0013001861
0.0014188641
0.0015758827
0.0017408112
0.001893193
0.0020217945
0.0021225132
0.0021958719
0.0022448437
0.0022733462
0.0022853876
0.0022846666
0.0022744173
0.0022573642
0.0022357272
0.0022112545
0.0021852783
0.0021587818
0.0021324641
0.0021067954
0.0020820592
0.0020583872
0.0020357917
0.0020141989
0.0019934843
0.0019735056
0.0019541252
0.0019352158
0.0019166549
0.0018983158
0.0018800657
0.0018617748
0.0018433311
0.0018246547
0.0018057025
0.001786457
0.0017669039
0.001747014
0.0017267462
0.001706068
0.0016849733
0.0016634819
0.0016416184
0.0016193883
0.001596772
0.0015737445
0.001550304
0.0015264803
0.001502313
0.0014778198
0.0014529872
0.0014277882
0.0014022074
0.0013762507
0.0013499366
0.0013232823
0.001296297
0.0012689853
0.0012413541
0.0012134109
0.0011851551
0.0011565753
0.0011276612
0.0010984244
0.0010689113
0.0010391934
0.0010093353
0.00097936723
0.00094928277
0.00091905901
0.00088867919
0.00085815185
0.00082752986
0.00079692289
0.00076649058
0.00073641104
0.00070683977
0.0006778842
0.00064960762
0.00062205169
0.00059526298
0.00056931232
0.0005443067
0.00052039072
0.00049773473
0.00047651216
0.00045688172
0.00043897913
0.00042291744
0.00040878983
0.00039667396
0.00038663482
0.00037872497
0.00037297869
0.00036940632
0.00036798847
0.00036867051
0.00037135767
0.00037591734
0.00038218036
0.00038994251
0.00039896786
0.00040899996
0.00041977188
0.00043101983
0.00044249762
0.00045399502
0.00046534923
0.00047645289
0.00048725163
0.00049773725
0.00050793127
0.00051786905
0.00052758108
0.0005370819
0.00054636077
0.00055538404
0.00056409877
0.00057244466
0.00058036053
0.00058779494
0.00059470716
0.0006010714
0.00060687158
0.00061210299
0.00061676542
0.00062086472
0.00062440553
0.00062739384
0.00062982967
0.00063171116
0.00063302773
0.00063376682
0.00063390799
0.00063343215
0.00063231561
0.00063054058
0.00062808769
0.00062494689
0.00062110754
0.00061656935
0.00061132993
0.00060539654
0.00059877038
0.00059146069
0.00058346888
0.00057480194
0.0005654601
0.00055545114
0.00054477438
0.00053344102
0.00052145136
0.00050882421
0.00049556351
0.00048168979
0.00046720898
0.00045214233
0.00043648937
0.00042026959
0.00040348068
0.00038613757
0.00036823407
0.00034978473
0.00033078134
0.00031124012
0.00029115426
0.00027054462
0.00024940556
0.0002277632
0.00020561498
0.00018299219
0.00015989555
0.00013636142
0.000112395
8.803506e-05
6.3293282e-05
3.8203544e-05
1.2786518e-05
0.023794425
0.023584343
0.023034196
0.022159046
0.020996755
0.019609836
0.018080333
0.016491993
0.014910044
0.013368225
0.011873223
0.010419179
0.0090036469
0.0076378667
0.0063479706
0.0051693188
0.0041379427
0.0032825478
0.0026190598
0.0021482372
0.0018558995
0.0017154737
0.0016923803
0.0017493781
0.0018517267
0.0019709702
0.0020867586
0.0021868081
0.0022655305
0.002322031
0.0023581387
0.0023768904
0.0023815886
0.0023753343
0.0023608488
0.0023404296
0.00231596
0.0022889429
0.0022605491
0.0022316703
0.0022029655
0.002174897
0.0021477572
0.0021216907
0.0020967207
0.0020727821
0.0020497604
0.0020275281
0.0020059667
0.0019849676
0.0019644184
0.001944192
0.0019241489
0.0019041537
0.0018840945
0.0018638952
0.0018435147
0.0018229328
0.0018021288
0.0017810647
0.0017596904
0.0017379653
0.0017158802
0.0016934545
0.001670713
0.0016476592
0.0016242698
0.0016005136
0.0015763811
0.0015518968
0.0015271017
0.0015020189
0.0014766341
0.0014509112
0.0014248279
0.0013983938
0.0013716371
0.0013445772
0.0013172134
0.0012895385
0.0012615576
0.0012332858
0.0012047301
0.0011758797
0.0011467223
0.0011172676
0.001087559
0.0010576625
0.0010276378
0.00099751215
0.00096727988
0.00093692482
0.00090644249
0.00087585062
0.00084520042
0.00081459032
0.00078416615
0.00075409454
0.00072452303
0.00069555486
0.00066725471
0.00063967119
0.00061285903
0.00058689247
0.00056187479
0.00053794231
0.00051525671
0.00049398384
0.00047427557
0.00045626204
0.00044005363
0.00042574328
0.00041340856
0.00040311262
0.00039490583
0.00038882087
0.00038486673
0.00038302343
0.00038323769
0.0003854173
0.00038943371
0.0003951242
0.00040229291
0.00041071292
0.00042013831
0.00043031395
0.00044098739
0.00045192155
0.00046291292
0.00047380194
0.00048448046
0.00049488953
0.00050501416
0.00051486799
0.00052447902
0.00053387219
0.00054305929
0.0005520293
0.00056075029
0.0005691719
0.00057723662
0.00058488522
0.00059206721
0.0005987415
0.00060488137
0.00061046929
0.00061549916
0.00061996934
0.00062388459
0.00062724864
0.0006300669
0.00063233901
0.00063406305
0.0006352285
0.00063582308
0.00063582652
0.00063522
0.00063397991
0.00063208847
0.00062952613
0.00062628259
0.00062234682
0.00061771811
0.0006123937
0.00060638035
0.00059967907
0.0005922988
0.00058424064
0.00057551171
0.00056611182
0.00055604855
0.00054532108
0.00053394009
0.00052190622
0.0005092372
0.00049593731
0.00048202648
0.00046751075
0.00045241062
0.00043672652
0.0004204772
0.00040366083
0.00038629201
0.00036836516
0.00034989418
0.00033087161
0.00031131293
0.00029121194
0.00027058864
0.00024943837
0.00022778601
0.00020563011
0.0001830005
0.00015989902
0.00013636065
0.00011239153
8.8029468e-05
6.3286444e-05
3.8196938e-05
1.2780059e-05
0.022788331
0.022581745
0.022080742
0.021299157
0.020267814
0.019033521
0.017657498
0.016205983
0.014737345
0.01329095
0.011884758
0.010522476
0.0092046142
0.0079384096
0.0067417638
0.0056410671
0.0046652989
0.0038393376
0.0031787296
0.0026869239
0.0023548574
0.0021625498
0.0020823119
0.0020829065
0.0021338999
0.0022091978
0.0022890851
0.002360698
0.0024172552
0.0024565594
0.0024793151
0.0024876863
0.0024843096
0.0024717553
0.0024523016
0.0024278709
0.0024000348
0.0023700509
0.0023389126
0.0023073988
0.0022761088
0.0022454829
0.0022158132
0.0021872517
0.0021598269
0.0021334756
0.0021080863
0.002083541
0.0020597385
0.0020365907
0.0020139998
0.0019918393
0.0019699594
0.0019482135
0.001926487
0.0019047106
0.0018828515
0.0018608899
0.0018387953
0.0018165163
0.0017939914
0.0017711755
0.0017480597
0.0017246657
0.0017010164
0.0016771092
0.0016529141
0.0016283965
0.0016035439
0.0015783766
0.0015529326
0.0015272361
0.001501275
0.0014750099
0.0014484102
0.0014214842
0.0013942673
0.0013667849
0.00133903
0.0013109824
0.0012826416
0.0012540303
0.0012251662
0.0011960403
0.0011666343
0.0011369539
0.0011070425
0.0010769634
0.0010467703
0.0010164863
0.00098610722
0.00095562354
0.00092504114
0.00089438578
0.00086370748
0.0008330942
0.00080267873
0.0007726173
0.00074305021
0.00071407632
0.00068576069
0.00065815777
0.00063132975
0.00060535388
0.0005803298
0.00055638606
0.0005336762
0.0005123584
0.00049257773
0.00047445886
0.00045810892
0.00044361978
0.00043106864
0.0004205168
0.00041201217
0.00040558562
0.00040124502
0.00039896999
0.00039870864
0.00040037142
0.00040383407
0.00040894041
0.00041550283
0.00042330325
0.00043210607
0.00044166773
0.00045174694
0.00046211576
0.00047257775
0.00048297724
0.00049320609
0.00050320168
0.00051294297
0.00052243609
0.0005317017
0.00054075877
0.00054961567
0.00055826037
0.00056666207
0.00057477267
0.00058253751
0.00058989965
0.00059681
0.00060322764
0.00060912524
0.00061448408
0.00061929668
0.00062355987
0.00062727711
0.00063045088
0.00063308575
0.00063518071
0.00063673361
0.00063773392
0.00063816965
0.00063802084
0.00063726912
0.00063589115
0.00063386937
0.00063118425
0.00062782529
0.00062378117
0.00061905074
0.0006136308
0.00060752754
0.00060074166
0.00059328173
0.00058514856
0.00057634926