/*--------------------------------*- C++ -*----------------------------------*\
| =========                 |                                                 |
| \\      /  F ield         | OpenFOAM: The Open Source CFD Toolbox           |
|  \\    /   O peration     | Version:  5.x                                   |
|   \\  /    A nd           | Web:      www.OpenFOAM.org                      |
|    \\/     M anipulation  |                                                 |
\*---------------------------------------------------------------------------*/
FoamFile
{
    version     2.0;
    format      ascii;
    class       surfaceScalarField;
    location    "0.1";
    object      phi;
}
// * * * * * * * * * * * * * * * * * * * * * * * * * * * * * * * * * * * * * //

dimensions      [0 3 -1 0 0 0 0];

internalField   nonuniform List<scalar> 
42870
(
7.8472825e-08
2.9305039e-09
-8.1403329e-08
7.4530563e-08
3.9422615e-09
7.0375037e-08
4.1555269e-09
6.6271862e-08
4.1031742e-09
6.2210893e-08
4.0609696e-09
5.8148305e-08
4.0625879e-09
5.4076135e-08
4.0721695e-09
5.0013943e-08
4.0621928e-09
4.6001509e-08
4.0124335e-09
4.2087849e-08
3.9136596e-09
3.8325666e-08
3.7621833e-09
3.4769979e-08
3.5556876e-09
3.1481237e-08
3.2887416e-09
2.8515667e-08
2.9655699e-09
2.5913794e-08
2.6018734e-09
2.3703409e-08
2.2103847e-09
2.1886922e-08
1.8164866e-09
2.04394e-08
1.4475224e-09
1.9314345e-08
1.125055e-09
1.845446e-08
8.5988506e-10
1.7800993e-08
6.5346683e-10
1.7300229e-08
5.0076451e-10
1.6906675e-08
3.9355366e-10
1.6583972e-08
3.227031e-10
1.6305705e-08
2.782666e-10
1.6053094e-08
2.5261089e-10
1.5812873e-08
2.4022177e-10
1.5576726e-08
2.3614633e-10
1.5340389e-08
2.3633708e-10
1.5102422e-08
2.3796725e-10
1.48631e-08
2.393222e-10
1.4623592e-08
2.3950801e-10
1.4385415e-08
2.381762e-10
1.4150101e-08
2.3531416e-10
1.3919006e-08
2.3109572e-10
1.3693225e-08
2.2578022e-10
1.3473576e-08
2.1964952e-10
1.3260604e-08
2.1297147e-10
1.3054623e-08
2.0598104e-10
1.2855751e-08
1.9887196e-10
1.2663956e-08
1.9179552e-10
1.2479092e-08
1.8486351e-10
1.2300938e-08
1.78154e-10
1.2129221e-08
1.7171769e-10
1.1963636e-08
1.655844e-10
1.1803869e-08
1.5976771e-10
1.1649598e-08
1.5427016e-10
1.150051e-08
1.4908816e-10
1.1356298e-08
1.4421201e-10
1.1216671e-08
1.3962675e-10
1.1081357e-08
1.3531433e-10
1.0950102e-08
1.3125525e-10
1.0822672e-08
1.2743032e-10
1.069885e-08
1.2382139e-10
1.0578438e-08
1.2041173e-10
1.0461253e-08
1.171852e-10
1.0347127e-08
1.1412587e-10
1.023591e-08
1.1121772e-10
1.0127464e-08
1.0844543e-10
1.0021669e-08
1.0579528e-10
9.9184127e-09
1.0325627e-10
9.8175927e-09
1.0082003e-10
9.7191125e-09
9.8480204e-11
9.6228815e-09
9.6230928e-11
9.5288156e-09
9.4065949e-11
9.4368375e-09
9.1978049e-11
9.3468777e-09
8.9959843e-11
9.2588731e-09
8.8004588e-11
9.172766e-09
8.610708e-11
9.0885027e-09
8.4263288e-11
9.0060324e-09
8.2470309e-11
8.9253064e-09
8.0726015e-11
8.8462771e-09
7.9029254e-11
8.7688981e-09
7.7379044e-11
8.6931243e-09
7.5773799e-11
8.6189142e-09
7.421012e-11
8.5462313e-09
7.2682867e-11
8.4750455e-09
7.1185839e-11
8.4053313e-09
6.9714117e-11
8.3370654e-09
6.8265964e-11
8.2702217e-09
6.6843657e-11
8.2047707e-09
6.5451004e-11
8.1406807e-09
6.4090012e-11
8.0779226e-09
6.2758044e-11
8.0164744e-09
6.1448258e-11
7.956323e-09
6.0151405e-11
7.8974638e-09
5.8859201e-11
7.8398969e-09
5.7566885e-11
7.7836215e-09
5.627545e-11
7.7286302e-09
5.4991262e-11
7.6749063e-09
5.3723877e-11
7.6224255e-09
5.2480767e-11
7.571163e-09
5.1262538e-11
7.521103e-09
5.0060044e-11
7.4722455e-09
4.8857483e-11
7.424607e-09
4.7638506e-11
7.3782138e-09
4.6393172e-11
7.3330932e-09
4.5120579e-11
7.2892652e-09
4.3828007e-11
7.2467386e-09
4.2526612e-11
7.2055111e-09
4.1227502e-11
7.165574e-09
3.9937124e-11
7.1269187e-09
3.8655247e-11
7.0895435e-09
3.7375258e-11
7.0534553e-09
3.60882e-11
7.0186683e-09
3.4786949e-11
6.9851993e-09
3.3468997e-11
6.9530638e-09
3.2135564e-11
6.922273e-09
3.0790823e-11
6.8928324e-09
2.9440505e-11
6.8647417e-09
2.8090739e-11
6.8379955e-09
2.6746192e-11
6.8125856e-09
2.5409878e-11
6.788502e-09
2.4083612e-11
6.7657321e-09
2.2769885e-11
6.7442602e-09
2.1471953e-11
6.724066e-09
2.0194133e-11
6.7051242e-09
1.8941895e-11
6.687402e-09
1.7722125e-11
6.6708604e-09
1.6541678e-11
6.6554528e-09
1.5407608e-11
6.6411258e-09
1.432697e-11
6.6278194e-09
1.3306376e-11
6.6154684e-09
1.2351053e-11
6.6040032e-09
1.1465192e-11
6.5933523e-09
1.0650847e-11
6.5834452e-09
9.9071105e-12
6.5742155e-09
9.2297007e-12
6.5656039e-09
8.6115617e-12
6.5575608e-09
8.0431458e-12
6.550047e-09
7.5138038e-12
6.5430336e-09
7.0133477e-12
6.5365e-09
6.5336633e-12
6.5304306e-09
6.069375e-12
6.5248122e-09
5.6183616e-12
6.5196309e-09
5.1812867e-12
6.5148701e-09
4.7608877e-12
6.5105096e-09
4.3605043e-12
6.5065265e-09
3.9830411e-12
6.5028964e-09
3.6300928e-12
6.4995946e-09
3.3018131e-12
6.4965976e-09
2.9970357e-12
6.4938839e-09
2.7136869e-12
6.4914343e-09
2.4495655e-12
6.4892317e-09
2.2026094e-12
6.4872604e-09
1.9713288e-12
6.485506e-09
1.7543658e-12
6.4839551e-09
1.5508843e-12
6.4825952e-09
1.3599663e-12
6.481414e-09
1.1811743e-12
6.4804002e-09
1.0138262e-12
6.4795423e-09
8.5782753e-13
6.4788296e-09
7.1271154e-13
6.4782509e-09
5.7869392e-13
6.4777956e-09
4.5530905e-13
6.4774528e-09
3.4284209e-13
6.4772122e-09
2.4056093e-13
6.4770635e-09
1.4875027e-13
6.4769972e-09
6.6231985e-14
6.4770041e-09
-6.8632206e-15
6.4770755e-09
-7.1387861e-14
6.4772033e-09
-1.2780533e-13
6.4773808e-09
-1.7753459e-13
6.4776008e-09
-2.1999529e-13
6.4778576e-09
-2.5677006e-13
6.4781449e-09
-2.8731082e-13
6.4784581e-09
-3.1317187e-13
6.4787917e-09
-3.335858e-13
6.4791409e-09
-3.4920606e-13
6.4795007e-09
-3.5986516e-13
6.4798681e-09
-3.6737474e-13
6.4802379e-09
-3.6983973e-13
6.4806084e-09
-3.704306e-13
6.4809747e-09
-3.6636486e-13
6.4813362e-09
-3.614049e-13
6.4816892e-09
-3.5300033e-13
6.482034e-09
-3.4481134e-13
6.4823673e-09
-3.3337794e-13
6.4826909e-09
-3.2354959e-13
6.4830005e-09
-3.0963205e-13
6.4832988e-09
-2.9829422e-13
6.4835821e-09
-2.8326834e-13
6.483853e-09
-2.7090887e-13
6.4841076e-09
-2.5457774e-13
6.4843494e-09
-2.4181509e-13
6.4845734e-09
-2.2404527e-13
6.4847843e-09
-2.1090546e-13
6.4849768e-09
-1.9242726e-13
6.4851561e-09
-1.7930539e-13
6.4853161e-09
-1.6006073e-13
6.4854635e-09
-1.4738219e-13
6.4855911e-09
-1.2760388e-13
6.4857068e-09
-1.1569416e-13
6.4858023e-09
-9.5513336e-14
6.4858871e-09
-8.4820718e-14
6.4859518e-09
-6.4670746e-14
6.4860075e-09
-5.5688362e-14
6.486044e-09
-3.6532123e-14
6.4860739e-09
-2.981262e-14
-1.1909532e-14
8.5802421e-08
2.591863e-09
-8.546378e-08
8.5946163e-08
3.7985194e-09
8.5599206e-08
4.5024842e-09
8.4970783e-08
4.7315968e-09
8.4202562e-08
4.8291911e-09
8.3312607e-08
4.9525432e-09
8.2260775e-08
5.1240011e-09
8.102422e-08
5.2987479e-09
7.9608273e-08
5.4283804e-09
7.803374e-08
5.4881927e-09
7.6325937e-08
5.4699863e-09
7.4512242e-08
5.3693826e-09
7.2619967e-08
5.1810165e-09
7.0678267e-08
4.9072702e-09
6.872197e-08
4.5581699e-09
6.6784589e-08
4.147766e-09
6.4898453e-08
3.7026228e-09
6.3090506e-08
3.2554687e-09
6.1378389e-08
2.8371725e-09
5.976925e-08
2.4690238e-09
5.826188e-08
2.1608374e-09
5.6850472e-08
1.9121718e-09
5.5527084e-08
1.716942e-09
5.4281256e-08
1.5685312e-09
5.310602e-08
1.4535019e-09
5.1994953e-08
1.3636786e-09
5.0940393e-08
1.2947815e-09
4.9935737e-08
1.240802e-09
4.8975596e-08
1.196478e-09
4.805576e-08
1.1578036e-09
4.7172984e-08
1.1220978e-09
4.6324744e-08
1.0877485e-09
4.5509033e-08
1.053887e-09
4.4724219e-08
1.0201286e-09
4.3968922e-08
9.8639286e-10
4.3241923e-08
9.5277838e-10
4.2542098e-08
9.194755e-10
4.1868361e-08
8.8670765e-10
4.1219647e-08
8.5469524e-10
4.0594886e-08
8.2363284e-10
3.9993005e-08
7.9367695e-10
3.9412927e-08
7.6494131e-10
3.8853582e-08
7.3749928e-10
3.8313912e-08
7.1138787e-10
3.7792881e-08
6.8661464e-10
3.7289489e-08
6.6316025e-10
3.6802771e-08
6.40988e-10
3.6331805e-08
6.2005402e-10
3.5875714e-08
6.0030305e-10
3.5433671e-08
5.8167029e-10
3.50049e-08
5.6408539e-10
3.4588679e-08
5.4747561e-10
3.418434e-08
5.3176969e-10
3.3791261e-08
5.1689997e-10
3.3408869e-08
5.0280392e-10
3.3036632e-08
4.8942239e-10
3.2674059e-08
4.7669832e-10
3.2320701e-08
4.6457567e-10
3.1976146e-08
4.5300112e-10
3.1640015e-08
4.4192651e-10
3.1311959e-08
4.3131175e-10
3.0991655e-08
4.2112453e-10
3.0678796e-08
4.1133857e-10
3.0373098e-08
4.0192877e-10
3.0074296e-08
3.9286869e-10
2.9782144e-08
3.8413006e-10
2.9496417e-08
3.7568589e-10
2.9216909e-08
3.6751276e-10
2.8943424e-08
3.5959199e-10
2.867578e-08
3.5190793e-10
2.8413802e-08
3.4444759e-10
2.8157329e-08
3.3719959e-10
2.7906204e-08
3.3015462e-10
2.7660279e-08
3.2330382e-10
2.7419415e-08
3.1663734e-10
2.7183484e-08
3.1014147e-10
2.6952368e-08
3.0379884e-10
2.6725963e-08
2.9759058e-10
2.6504175e-08
2.9150237e-10
2.6286913e-08
2.8552815e-10
2.6074086e-08
2.7967007e-10
2.5865606e-08
2.7393128e-10
2.5661387e-08
2.6830901e-10
2.5461355e-08
2.627898e-10
2.5265451e-08
2.5735229e-10
2.507363e-08
2.5197214e-10
2.488586e-08
2.4662958e-10
2.4702113e-08
2.4131417e-10
2.452236e-08
2.3602859e-10
2.4346565e-08
2.3078585e-10
2.4174686e-08
2.2560279e-10
2.400668e-08
2.2048727e-10
2.3842513e-08
2.1542904e-10
2.3682177e-08
2.1039644e-10
2.3525687e-08
2.0534686e-10
2.3373084e-08
2.0024158e-10
2.3224417e-08
1.9506053e-10
2.3079732e-08
1.8980577e-10
2.2939062e-08
1.8449763e-10
2.2802426e-08
1.7916305e-10
2.2669827e-08
1.7382587e-10
2.2541268e-08
1.684964e-10
2.2416754e-08
1.6316884e-10
2.2296306e-08
1.57824e-10
2.2179954e-08
1.524403e-10
2.2067738e-08
1.470029e-10
2.1959697e-08
1.415097e-10
2.1855864e-08
1.3596831e-10
2.1756261e-08
1.3039419e-10
2.1660895e-08
1.2480614e-10
2.1569762e-08
1.1922393e-10
2.1482845e-08
1.1366373e-10
2.1400115e-08
1.0813891e-10
2.1321538e-08
1.0266088e-10
2.1247064e-08
9.7243959e-11
2.1176631e-08
9.190501e-11
2.111016e-08
8.6664759e-11
2.1047556e-08
8.1546502e-11
2.0988701e-08
7.6576956e-11
2.0933461e-08
7.1781904e-11
2.0881681e-08
6.7187021e-11
2.0833193e-08
6.2815414e-11
2.0787812e-08
5.8687329e-11
2.0745346e-08
5.4816539e-11
2.07056e-08
5.1211703e-11
2.0668379e-08
4.7872275e-11
2.0633497e-08
4.4788646e-11
2.0600786e-08
4.1940626e-11
2.0570096e-08
3.9301414e-11
2.0541301e-08
3.6837972e-11
2.0514298e-08
3.4517251e-11
2.0489003e-08
3.2308738e-11
2.0465346e-08
3.0190347e-11
2.0443267e-08
2.8147748e-11
2.0422709e-08
2.6177019e-11
2.040361e-08
2.4280343e-11
2.0385905e-08
2.246576e-11
2.0369525e-08
2.0740681e-11
2.0354396e-08
1.9111843e-11
2.0340445e-08
1.7580666e-11
2.0327601e-08
1.6146058e-11
2.0315796e-08
1.4802121e-11
2.0304967e-08
1.3542653e-11
2.0295057e-08
1.2359805e-11
2.0286011e-08
1.1248191e-11
2.027778e-08
1.0202143e-11
2.0270316e-08
9.2184698e-12
2.0263574e-08
8.2932217e-12
2.0257509e-08
7.4244769e-12
2.0252081e-08
6.6091783e-12
2.0247249e-08
5.8460879e-12
2.0242974e-08
5.1328309e-12
2.0239218e-08
4.4687533e-12
2.0235945e-08
3.8520139e-12
2.0233118e-08
3.2820369e-12
2.0230704e-08
2.7570395e-12
2.0228669e-08
2.2759475e-12
2.022698e-08
1.8367709e-12
2.0225609e-08
1.4377549e-12
2.0224526e-08
1.0764827e-12
2.0223703e-08
7.5128799e-13
2.0223116e-08
4.5939574e-13
2.022274e-08
1.9834433e-13
2.0222553e-08
-3.2893968e-14
2.0222533e-08
-2.370366e-13
2.0222661e-08
-4.1522334e-13
2.0222917e-08
-5.6940128e-13
2.0223284e-08
-7.0066147e-13
2.0223744e-08
-8.0901778e-13
2.0224281e-08
-8.9702012e-13
2.0224881e-08
-9.6694271e-13
2.0225529e-08
-1.0177533e-12
2.0226213e-08
-1.0546457e-12
2.0226921e-08
-1.0747135e-12
2.0227644e-08
-1.0845501e-12
2.0228373e-08
-1.0815402e-12
2.02291e-08
-1.0719734e-12
2.0229818e-08
-1.0512584e-12
2.0230523e-08
-1.0281785e-12
2.0231206e-08
-9.9328531e-13
2.0231868e-08
-9.5950228e-13
2.02325e-08
-9.1561945e-13
2.0233103e-08
-8.7438442e-13
2.0233672e-08
-8.2315216e-13
2.0234208e-08
-7.7782238e-13
2.0234705e-08
-7.2076573e-13
2.0235167e-08
-6.7326947e-13
2.0235588e-08
-6.1335505e-13
2.0235975e-08
-5.6600476e-13
2.0236319e-08
-5.0402911e-13
2.023663e-08
-4.5886053e-13
2.0236898e-08
-3.9575388e-13
2.0237137e-08
-3.5429331e-13
2.0237332e-08
-2.903394e-13
2.0237501e-08
-2.543485e-13
2.0237627e-08
-1.900071e-13
2.0237732e-08
-1.6161855e-13
2.0237794e-08
-9.7832272e-14
2.0237844e-08
-8.0552984e-14
-1.8077252e-14
8.936306e-08
2.5204088e-09
-8.9291606e-08
8.9726241e-08
3.4353387e-09
8.9974243e-08
4.2544824e-09
9.0054876e-08
4.6509635e-09
9.0069636e-08
4.8144313e-09
9.0070963e-08
4.9512163e-09
9.0059678e-08
5.135286e-09
9.0005039e-08
5.3533865e-09
8.9882802e-08
5.5506174e-09
8.9681746e-08
5.6892491e-09
8.9397869e-08
5.7538635e-09
8.9029172e-08
5.7380795e-09
8.8571522e-08
5.6386661e-09
8.8023909e-08
5.4548838e-09
8.7391303e-08
5.1907754e-09
8.6681292e-08
4.857777e-09
8.5906803e-08
4.4771121e-09
8.5084884e-08
4.0773874e-09
8.4233324e-08
3.6887322e-09
8.3366837e-08
3.3355116e-09
8.2495587e-08
3.0320872e-09
8.1625331e-08
2.7824274e-09
8.0758774e-08
2.5834993e-09
7.9898583e-08
2.4287222e-09
7.9044534e-08
2.3075512e-09
7.8196282e-08
2.2119304e-09
7.7354075e-08
2.1369882e-09
7.6517409e-08
2.0774685e-09
7.5685665e-08
2.0282213e-09
7.4858463e-08
1.9850059e-09
7.403576e-08
1.9448012e-09
7.3217815e-08
1.9056927e-09
7.2405114e-08
1.8665886e-09
7.159829e-08
1.8269526e-09
7.0798072e-08
1.7866103e-09
7.0005235e-08
1.7456152e-09
6.9220557e-08
1.7041543e-09
6.8444783e-08
1.6624817e-09
6.7678604e-08
1.6208734e-09
6.6922642e-08
1.5795956e-09
6.6177432e-08
1.5388865e-09
6.5443428e-08
1.4989451e-09
6.4720998e-08
1.4599291e-09
6.4010431e-08
1.4219557e-09
6.3311937e-08
1.3851088e-09
6.262566e-08
1.3494371e-09
6.1951683e-08
1.314965e-09
6.1290028e-08
1.2817086e-09
6.0640668e-08
1.249663e-09
6.0003531e-08
1.2188071e-09
5.9378509e-08
1.1891073e-09
5.8765465e-08
1.1605204e-09
5.8164234e-08
1.133e-09
5.7574635e-08
1.1064991e-09
5.6996466e-08
1.0809734e-09
5.642951e-08
1.0563783e-09
5.5873541e-08
1.0326671e-09
5.5328327e-08
1.0097898e-09
5.4793633e-08
9.8769484e-10
5.4269226e-08
9.6633402e-10
5.375487e-08
9.456671e-10
5.3250333e-08
9.2566213e-10
5.2755378e-08
9.0629351e-10
5.2269772e-08
8.8753464e-10
5.1793286e-08
8.6935422e-10
5.1325701e-08
8.5171571e-10
5.0866804e-08
8.345829e-10
5.0416392e-08
8.1792402e-10
4.9974271e-08
8.0171339e-10
4.9540251e-08
7.8592826e-10
4.911415e-08
7.7054826e-10
4.8695795e-08
7.5555432e-10
4.828502e-08
7.4093018e-10
4.7881663e-08
7.2666043e-10
4.7485572e-08
7.1272848e-10
4.7096602e-08
6.9911182e-10
4.6714619e-08
6.8578173e-10
4.6339503e-08
6.7270611e-10
4.5971146e-08
6.5985947e-10
4.5609445e-08
6.4722908e-10
4.52543e-08
6.3481511e-10
4.4905613e-08
6.226187e-10
4.4563291e-08
6.1063117e-10
4.4227253e-08
5.9882727e-10
4.3897435e-08
5.8717055e-10
4.3573786e-08
5.7562095e-10
4.325627e-08
5.6414602e-10
4.2944856e-08
5.5272727e-10
4.2639519e-08
5.4136607e-10
4.2340226e-08
5.3007902e-10
4.2046941e-08
5.1888781e-10
4.175963e-08
5.0779826e-10
4.1478273e-08
4.9678619e-10
4.1202876e-08
4.8579355e-10
4.0933475e-08
4.747471e-10
4.0670135e-08
4.6358218e-10
4.041293e-08
4.5226541e-10
4.0161937e-08
4.4079856e-10
3.9917222e-08
4.292127e-10
3.9678836e-08
4.1754947e-10
3.9446816e-08
4.0584554e-10
3.9221197e-08
3.9411483e-10
3.9002021e-08
3.823454e-10
3.8789341e-08
3.7050421e-10
3.8583225e-08
3.5855644e-10
3.8383749e-08
3.4647894e-10
3.8190988e-08
3.3427024e-10
3.8005011e-08
3.2194551e-10
3.782587e-08
3.0953468e-10
3.7653603e-08
2.970737e-10
3.7488225e-08
2.8460138e-10
3.7329738e-08
2.7215114e-10
3.7178123e-08
2.5975377e-10
3.7033346e-08
2.4743774e-10
3.6895352e-08
2.3523779e-10
3.6764064e-08
2.2319318e-10
3.6639377e-08
2.1135158e-10
3.6521159e-08
1.9976448e-10
3.6409247e-08
1.8848959e-10
3.6303446e-08
1.7758213e-10
3.6203536e-08
1.6709744e-10
3.6109268e-08
1.5708343e-10
3.6020373e-08
1.4758189e-10
3.593657e-08
1.3862029e-10
3.5857566e-08
1.3021556e-10
3.5783074e-08
1.2236459e-10
3.5712814e-08
1.1504779e-10
3.564653e-08
1.0822462e-10
3.5583988e-08
1.018437e-10
3.5524985e-08
9.5841366e-11
3.5469346e-08
9.0156352e-11
3.5416923e-08
8.4731032e-11
3.5367589e-08
7.9525139e-11
3.5321226e-08
7.4510757e-11
3.5277722e-08
6.9680592e-11
3.5236966e-08
6.5035957e-11
3.5198842e-08
6.0590344e-11
3.5163229e-08
5.6353593e-11
3.5130004e-08
5.2336721e-11
3.5099046e-08
4.8538926e-11
3.5070234e-08
4.4957849e-11
3.5043456e-08
4.1580126e-11
3.5018603e-08
3.8395238e-11
3.4995576e-08
3.538679e-11
3.4974278e-08
3.2546146e-11
3.495462e-08
2.9860652e-11
3.4936513e-08
2.732577e-11
3.4919874e-08
2.4931682e-11
3.4904622e-08
2.2676162e-11
3.4890681e-08
2.0550582e-11
3.4877973e-08
1.8553941e-11
3.4866428e-08
1.6678382e-11
3.4855972e-08
1.4923956e-11
3.4846541e-08
1.3283324e-11
3.4838066e-08
1.1756869e-11
3.4830486e-08
1.0337098e-11
3.4823738e-08
9.0239583e-12
3.4817766e-08
7.8093962e-12
3.4812511e-08
6.6927331e-12
3.4807922e-08
5.6652097e-12
3.4803947e-08
4.7262766e-12
3.4800539e-08
3.8668544e-12
3.4797652e-08
3.0860925e-12
3.4795242e-08
2.376401e-12
3.4793268e-08
1.7374915e-12
3.479169e-08
1.162227e-12
3.479047e-08
6.511317e-13
3.4789572e-08
1.9672372e-13
3.478896e-08
-1.9660983e-13
3.4788602e-08
-5.3912979e-13
3.4788465e-08
-8.2968129e-13
3.478852e-08
-1.0731117e-12
3.4788738e-08
-1.272622e-12
3.4789094e-08
-1.4304473e-12
3.4789561e-08
-1.5519568e-12
3.479012e-08
-1.6399544e-12
3.4790747e-08
-1.6991546e-12
3.4791425e-08
-1.7296635e-12
3.4792137e-08
-1.7400117e-12
3.4792867e-08
-1.722929e-12
3.4793601e-08
-1.693595e-12
3.4794327e-08
-1.6418207e-12
3.4795036e-08
-1.582924e-12
3.4795717e-08
-1.5039792e-12
3.4796365e-08
-1.4259318e-12
3.4796971e-08
-1.3270279e-12
3.4797535e-08
-1.2377125e-12
3.479805e-08
-1.1277287e-12
3.4798519e-08
-1.0350051e-12
3.4798933e-08
-9.1840273e-13
3.4799303e-08
-8.2879173e-13
3.4799616e-08
-7.0901545e-13
3.4799889e-08
-6.2726887e-13
3.4800104e-08
-5.0552979e-13
3.4800286e-08
-4.3607796e-13
3.4800409e-08
-3.1272769e-13
3.4800508e-08
-2.6026406e-13
3.4800545e-08
-1.3565326e-13
3.4800571e-08
-1.0658935e-13
1.4888731e-14
9.3116501e-08
2.5157925e-09
-9.3111884e-08
9.3343442e-08
3.2083971e-09
9.3631269e-08
3.9666554e-09
9.3839415e-08
4.4428176e-09
9.3969598e-08
4.6842487e-09
9.4090017e-08
4.8307974e-09
9.4239827e-08
4.9854757e-09
9.4414355e-08
5.1788587e-09
9.4594246e-08
5.3707265e-09
9.4761572e-08
5.5219229e-09
9.4905241e-08
5.6101941e-09
9.5018321e-08
5.625e-09
9.509152e-08
5.5654665e-09
9.5115514e-08
5.4308899e-09
9.5082988e-08
5.2233018e-09
9.4988654e-08
4.9521107e-09
9.4831955e-08
4.6338111e-09
9.4617894e-08
4.291449e-09
9.4355874e-08
3.9507516e-09
9.4056721e-08
3.6346644e-09
9.3730191e-08
3.3586172e-09
9.3383405e-08
3.1292143e-09
9.3021358e-08
2.9455457e-09
9.264804e-08
2.8020408e-09
9.226467e-08
2.6909213e-09
9.1871738e-08
2.6048623e-09
9.1470259e-08
2.5384665e-09
9.1060641e-08
2.4870868e-09
9.0642642e-08
2.4462199e-09
9.0215753e-08
2.4118956e-09
8.9779503e-08
2.3810513e-09
8.9333604e-08
2.3515916e-09
8.887797e-08
2.3222219e-09
8.84127e-08
2.2922234e-09
8.7938044e-08
2.2612659e-09
8.7454385e-08
2.2292739e-09
8.6962207e-08
2.1963324e-09
8.6462069e-08
2.1626196e-09
8.5954582e-08
2.1283605e-09
8.5440386e-08
2.0937922e-09
8.4920132e-08
2.0591404e-09
8.4394472e-08
2.0246046e-09
8.3864049e-08
1.9903522e-09
8.3329489e-08
1.9565159e-09
8.27914e-08
1.9231984e-09
8.2250365e-08
1.8904717e-09
8.1706943e-08
1.8583867e-09
8.1161669e-08
1.826983e-09
8.0615049e-08
1.7962825e-09
8.0067567e-08
1.7662894e-09
7.951968e-08
1.7369944e-09
7.8971824e-08
1.7083766e-09
7.8424412e-08
1.6804114e-09
7.7877838e-08
1.6530735e-09
7.7332471e-08
1.6263408e-09
7.6788658e-08
1.6001906e-09
7.6246728e-08
1.5745974e-09
7.5706987e-08
1.5495302e-09
7.5169727e-08
1.5249556e-09
7.4635218e-08
1.5008424e-09
7.4103717e-08
1.4771681e-09
7.357546e-08
1.4539195e-09
7.3050663e-08
1.4310901e-09
7.2529527e-08
1.408671e-09
7.2012235e-08
1.3866466e-09
7.1498957e-08
1.3649932e-09
7.0989853e-08
1.3436869e-09
7.0485069e-08
1.3227085e-09
6.9984736e-08
1.3020458e-09
6.9488976e-08
1.2816884e-09
6.8997898e-08
1.2616264e-09
6.8511602e-08
1.2418498e-09
6.8030181e-08
1.222351e-09
6.7553719e-08
1.2031231e-09
6.7082289e-08
1.1841583e-09
6.661596e-08
1.1654407e-09
6.6154796e-08
1.1469458e-09
6.5698859e-08
1.1286432e-09
6.524821e-08
1.1105084e-09
6.4802908e-08
1.0925314e-09
6.4363005e-08
1.0747176e-09
6.3928552e-08
1.0570722e-09
6.3499595e-08
1.0395879e-09
6.3076186e-08
1.0222366e-09
6.2658379e-08
1.0049774e-09
6.2246235e-08
9.8776529e-10
6.1839816e-08
9.7056409e-10
6.1439191e-08
9.533524e-10
6.1044426e-08
9.3613146e-10
6.0655585e-08
9.1891993e-10
6.0272729e-08
9.0174348e-10
5.989592e-08
8.8460811e-10
5.9525223e-08
8.6748265e-10
5.9160724e-08
8.5029219e-10
5.8802529e-08
8.3294244e-10
5.8450763e-08
8.1534848e-10
5.8105564e-08
7.9746429e-10
5.7767076e-08
7.7928638e-10
5.743544e-08
7.60849e-10
5.7110788e-08
7.4220137e-10
5.6793243e-08
7.2339004e-10
5.6482924e-08
7.0443381e-10
5.617995e-08
6.8531946e-10
5.5884449e-08
6.6600532e-10
5.5596558e-08
6.4644793e-10
5.5316419e-08
6.2661779e-10
5.5044175e-08
6.0651385e-10
5.4779964e-08
5.8615634e-10
5.4523911e-08
5.65588e-10
5.4276124e-08
5.4486085e-10
5.4036691e-08
5.240342e-10
5.3805681e-08
5.0316098e-10
5.3583141e-08
4.822938e-10
5.3369096e-08
4.6148268e-10
5.3163546e-08
4.407886e-10
5.2966461e-08
4.2027777e-10
5.2777782e-08
4.0003085e-10
5.2597413e-08
3.8013323e-10
5.2425222e-08
3.6068079e-10
5.2261039e-08
3.4176466e-10
5.2104658e-08
3.2347834e-10
5.195584e-08
3.0590199e-10
5.1814314e-08
2.8910744e-10
5.1679792e-08
2.7314289e-10
5.1551965e-08
2.5804216e-10
5.1430524e-08
2.438061e-10
5.1315158e-08
2.3041312e-10
5.1205575e-08
2.1780802e-10
5.1101497e-08
2.0592172e-10
5.1002675e-08
1.9466347e-10
5.0908883e-08
1.8394788e-10
5.0819924e-08
1.7369041e-10
5.0735616e-08
1.6383331e-10
5.0655794e-08
1.5433204e-10
5.05803e-08
1.4517452e-10
5.0508979e-08
1.3635699e-10
5.0441673e-08
1.2789711e-10
5.0378223e-08
1.1980362e-10
5.0318467e-08
1.1209192e-10
5.026225e-08
1.0475673e-10
5.0209412e-08
9.7795746e-11
5.0159806e-08
9.1186283e-11
5.0113286e-08
8.4915151e-11
5.0069717e-08
7.8955456e-11
5.0028966e-08
7.3297104e-11
4.9990908e-08
6.791842e-11
4.9955418e-08
6.2815674e-11
4.9922379e-08
5.7971181e-11
4.989167e-08
5.3384815e-11
4.9863181e-08
4.9040071e-11
4.9836796e-08
4.4938467e-11
4.9812411e-08
4.1063726e-11
4.9789916e-08
3.7418615e-11
4.9769213e-08
3.3986672e-11
4.9750199e-08
3.0771108e-11
4.9732781e-08
2.775458e-11
4.9716865e-08
2.4940041e-11
4.9702365e-08
2.2308945e-11
4.9689194e-08
1.9863951e-11
4.9677274e-08
1.7585416e-11
4.9666524e-08
1.5476589e-11
4.9656873e-08
1.3517397e-11
4.9648248e-08
1.1711716e-11
4.9640583e-08
1.0040778e-11
4.9633811e-08
8.5100776e-12
4.9627871e-08
7.1016095e-12
4.96227e-08
5.8224763e-12
4.9618242e-08
4.6544915e-12
4.9614437e-08
3.6082325e-12
4.9611234e-08
2.6637323e-12
4.9608575e-08
1.8292859e-12
4.9606413e-08
1.0888702e-12
4.9604694e-08
4.4663664e-13
4.9603374e-08
-1.1003976e-13
4.9602402e-08
-5.7981725e-13
4.9601738e-08
-9.7679569e-13
4.9601338e-08
-1.2982887e-12
4.9601163e-08
-1.5554316e-12
4.9601174e-08
-1.7508831e-12
4.9601338e-08
-1.8862556e-12
4.9601618e-08
-1.9738265e-12
4.9601988e-08
-2.0115263e-12
4.9602417e-08
-2.0124277e-12
4.9602884e-08
-1.9706622e-12
4.9603366e-08
-1.9081113e-12
4.9603845e-08
-1.805888e-12
4.9604307e-08
-1.7003658e-12
4.9604739e-08
-1.5592994e-12
4.9605135e-08
-1.4312592e-12
4.9605483e-08
-1.2660443e-12
4.9605787e-08
-1.1330449e-12
4.9606033e-08
-9.5523163e-13
4.9606236e-08
-8.3046479e-13
4.9606377e-08
-6.4615087e-13
4.9606481e-08
-5.401243e-13
4.960652e-08
-3.5190263e-13
4.9606533e-08
-2.7336101e-13
4.960648e-08
-8.2464286e-14
4.9606414e-08
-3.9863819e-14
1.4321662e-13
9.7029758e-08
2.5154632e-09
-9.7029429e-08
9.7163429e-08
3.0747263e-09
9.7412758e-08
3.7173264e-09
9.7648905e-08
4.2066704e-09
9.7821117e-08
4.5120368e-09
9.795988e-08
4.6920343e-09
9.811454e-08
4.8308157e-09
9.8303712e-08
4.9896865e-09
9.8517054e-08
5.1573848e-09
9.8739307e-08
5.2996698e-09
9.8958151e-08
5.3913501e-09
9.9165063e-08
5.4180884e-09
9.9353538e-08
5.3769911e-09
9.9516404e-08
5.2680235e-09
9.964578e-08
5.0939267e-09
9.9734882e-08
4.8630086e-09
9.9779856e-08
4.588837e-09
9.978104e-08
4.2902646e-09
9.9743139e-08
3.9886527e-09
9.9673692e-08
3.704111e-09
9.9580711e-08
3.4515988e-09
9.9470951e-08
3.2389738e-09
9.9349514e-08
3.0669833e-09
9.9219936e-08
2.931618e-09
9.9083919e-08
2.8269384e-09
9.8942253e-08
2.7465286e-09
9.879578e-08
2.6849393e-09
9.8645021e-08
2.6378461e-09
9.8489847e-08
2.6013941e-09
9.8329626e-08
2.5721159e-09
9.8163526e-08
2.5471515e-09
9.799073e-08
2.524388e-09
9.7810533e-08
2.5024191e-09
9.7622363e-08
2.4803929e-09
9.7425779e-08
2.4578497e-09
9.722046e-08
2.4345931e-09
9.7006195e-08
2.4105981e-09
9.6782867e-08
2.3859473e-09
9.6550442e-08
2.3607851e-09
9.6308951e-08
2.3352828e-09
9.6058478e-08
2.309614e-09
9.5799145e-08
2.2839377e-09
9.5531106e-08
2.2583905e-09
9.5254541e-08
2.2330815e-09
9.4969645e-08
2.208094e-09
9.4676629e-08
2.1834875e-09
9.4375712e-08
2.1593045e-09
9.406712e-08
2.1355746e-09
9.3751089e-08
2.1123137e-09
9.3427858e-08
2.0895206e-09
9.3097671e-08
2.0671806e-09
9.276078e-08
2.0452677e-09
9.2417439e-08
2.0237522e-09
9.2067908e-08
2.0026047e-09
9.171245e-08
1.9817995e-09
9.1351329e-08
1.961311e-09
9.0984816e-08
1.9411112e-09
9.0613179e-08
1.9211664e-09
9.0236694e-08
1.9014404e-09
8.9855638e-08
1.8818992e-09
8.9470286e-08
1.8625192e-09
8.9080919e-08
1.8432868e-09
8.8687813e-08
1.8241966e-09
8.8291242e-08
1.8052413e-09
8.7891483e-08
1.7864064e-09
8.7488807e-08
1.7676691e-09
8.7083487e-08
1.7490071e-09
8.6675791e-08
1.7304038e-09
8.6265985e-08
1.7118518e-09
8.5854329e-08
1.6933445e-09
8.544108e-08
1.6748756e-09
8.5026493e-08
1.6564369e-09
8.461082e-08
1.6380237e-09
8.419431e-08
1.6196331e-09
8.3777206e-08
1.6012623e-09
8.3359746e-08
1.5829007e-09
8.2942164e-08
1.5645283e-09
8.2524689e-08
1.5461173e-09
8.2107552e-08
1.5276463e-09
8.1690975e-08
1.509108e-09
8.127518e-08
1.4905122e-09
8.0860385e-08
1.4718672e-09
8.0446805e-08
1.4531678e-09
8.0034657e-08
1.4343849e-09
7.9624157e-08
1.4154777e-09
7.9215521e-08
1.3964006e-09
7.8808967e-08
1.3771185e-09
7.840471e-08
1.3576097e-09
7.8002965e-08
1.3378758e-09
7.7603949e-08
1.3179358e-09
7.7207875e-08
1.2978178e-09
7.6814954e-08
1.2775289e-09
7.64254e-08
1.2570368e-09
7.6039432e-08
1.2362599e-09
7.5657279e-08
1.2150955e-09
7.5279179e-08
1.1934491e-09
7.4905374e-08
1.171269e-09
7.4536114e-08
1.1485468e-09
7.4171647e-08
1.1253159e-09
7.3812222e-08
1.1016259e-09
7.3458085e-08
1.0775275e-09
7.3109477e-08
1.0530414e-09
7.2766641e-08
1.0281554e-09
7.2429823e-08
1.0028237e-09
7.209927e-08
9.7700065e-10
7.1775233e-08
9.5065506e-10
7.1457957e-08
9.2378959e-10
7.1147684e-08
8.9642901e-10
7.0844645e-08
8.6862756e-10
7.0549056e-08
8.4045007e-10
7.0261115e-08
8.1197439e-10
6.9981006e-08
7.8327064e-10
6.9708887e-08
7.5441275e-10
6.9444898e-08
7.2547098e-10
6.9189154e-08
6.9653294e-10
6.8941741e-08
6.6769058e-10
6.8702714e-08
6.3905774e-10
6.8472095e-08
6.1075316e-10
6.8249862e-08
5.8291291e-10
6.8035962e-08
5.5566543e-10
6.7830293e-08
5.2914708e-10
6.763272e-08
5.0347442e-10
6.7443072e-08
4.7875632e-10
6.7261147e-08
4.5506717e-10
6.7086723e-08
4.3246594e-10
6.6919566e-08
4.1096399e-10
6.6759431e-08
3.9054723e-10
6.6606086e-08
3.7115388e-10
6.6459299e-08
3.5270862e-10
6.6318859e-08
3.3510319e-10
6.6184566e-08
3.1824037e-10
6.6056239e-08
3.0201762e-10
6.5933702e-08
2.8637027e-10
6.5816792e-08
2.7124284e-10
6.5705341e-08
2.5662527e-10
6.5599187e-08
2.4251028e-10
6.5498162e-08
2.2892296e-10
6.5402096e-08
2.1586947e-10
6.5310817e-08
2.0337105e-10
6.5224158e-08
1.914152e-10
6.5141953e-08
1.8000085e-10
6.5064046e-08
1.6909312e-10
6.4990284e-08
1.5867773e-10
6.4920524e-08
1.4871472e-10
6.4854626e-08
1.3919515e-10
6.4792458e-08
1.3008676e-10
6.4733883e-08
1.213909e-10
6.4678772e-08
1.1308175e-10
6.462699e-08
1.0516698e-10
6.4578408e-08
9.762248e-11
6.4532888e-08
9.0458275e-11
6.4490302e-08
8.3649161e-11
6.4450515e-08
7.7205837e-11
6.4413401e-08
7.1100617e-11
6.4378829e-08
6.5343596e-11
6.4346679e-08
5.9903868e-11
6.4316829e-08
5.4790641e-11
6.4289168e-08
4.9970085e-11
6.426358e-08
4.5451268e-11
6.4239967e-08
4.1198392e-11
6.4218222e-08
3.7222e-11
6.4198254e-08
3.3485595e-11
6.4179964e-08
3.0001864e-11
6.4163269e-08
2.6735381e-11
6.4148077e-08
2.3702015e-11
6.4134312e-08
2.0867093e-11
6.4121885e-08
1.8249362e-11
6.4110725e-08
1.5813844e-11
6.410075e-08
1.3583295e-11
6.4091893e-08
1.1521302e-11
6.4084072e-08
9.6497953e-12
6.4077226e-08
7.9354634e-12
6.4071275e-08
6.3976809e-12
6.4066159e-08
5.0053103e-12
6.4061803e-08
3.7763615e-12
6.4058147e-08
2.6792137e-12
6.4055116e-08
1.7325387e-12
6.4052653e-08
9.0742415e-13
6.4050686e-08
2.1631515e-13
6.4049158e-08
-3.584537e-13
6.4048002e-08
-8.175672e-13
6.4047166e-08
-1.1755017e-12
6.4046588e-08
-1.4343973e-12
6.4046223e-08
-1.6051713e-12
6.4046017e-08
-1.7025387e-12
6.4045932e-08
-1.721297e-12
6.4045928e-08
-1.6962062e-12
6.4045974e-08
-1.6049094e-12
6.4046042e-08
-1.4992444e-12
6.4046109e-08
-1.3326909e-12
6.4046161e-08
-1.1857137e-12
6.404618e-08
-9.744933e-13
6.4046168e-08
-8.1847111e-13
6.4046106e-08
-5.8363287e-13
6.404601e-08
-4.4370432e-13
6.4045855e-08
-1.97721e-13
6.4045674e-08
-9.2083984e-14
6.4045434e-08
1.5810419e-13
6.4045177e-08
2.1687919e-13
4.5313752e-13
1.0108211e-07
2.5101198e-09
-1.0107677e-07
1.0117368e-07
2.9831606e-09
1.013745e-07
3.5165021e-09
1.0159955e-07
3.9816243e-09
1.0179401e-07
4.3175779e-09
1.0195227e-07
4.5337756e-09
1.0210606e-07
4.6770234e-09
1.022831e-07
4.812646e-09
1.0248666e-07
4.9538207e-09
1.0270568e-07
5.0806571e-09
1.0292732e-07
5.1697069e-09
1.0314141e-07
5.2039936e-09
1.0334195e-07
5.1764572e-09
1.035235e-07
5.0864766e-09
1.0367984e-07
4.9375787e-09
1.0380551e-07
4.7373399e-09
1.0389672e-07
4.4976312e-09
1.0395281e-07
4.2341739e-09
1.0397672e-07
3.9647378e-09
1.0397428e-07
3.7065506e-09
1.0395246e-07
3.473422e-09
1.0391776e-07
3.273673e-09
1.038752e-07
3.1095472e-09
1.0382811e-07
2.9787027e-09
1.0377857e-07
2.8764837e-09
1.0372773e-07
2.7973684e-09
1.0367645e-07
2.7362198e-09
1.0362536e-07
2.6889349e-09
1.0357462e-07
2.6521294e-09
1.035239e-07
2.6228403e-09
1.0347252e-07
2.598527e-09
1.0341973e-07
2.5771847e-09
1.0336476e-07
2.5573831e-09
1.0330696e-07
2.5381945e-09
1.0324574e-07
2.5190727e-09
1.0318059e-07
2.4997367e-09
1.0311111e-07
2.480083e-09
1.0303693e-07
2.4601219e-09
1.0295779e-07
2.4399341e-09
1.0287343e-07
2.4196369e-09
1.0278369e-07
2.3993594e-09
1.026884e-07
2.3792252e-09
1.0258745e-07
2.3593421e-09