/*--------------------------------*- C++ -*----------------------------------*\
| =========                 |                                                 |
| \\      /  F ield         | OpenFOAM: The Open Source CFD Toolbox           |
|  \\    /   O peration     | Version:  5.x                                   |
|   \\  /    A nd           | Web:      www.OpenFOAM.org                      |
|    \\/     M anipulation  |                                                 |
\*---------------------------------------------------------------------------*/
FoamFile
{
    version     2.0;
    format      ascii;
    class       volVectorField;
    location    "0.1";
    object      U;
}
// * * * * * * * * * * * * * * * * * * * * * * * * * * * * * * * * * * * * * //

dimensions      [0 1 -1 0 0 0 0];

internalField   nonuniform List<vector> 
21600
(
(0.94213381 0.0081612346 0)
(0.89559543 0.012244103 0)
(0.85119751 0.013930549 0)
(0.80615696 0.014098915 0)
(0.75962298 0.013744635 0)
(0.711781 0.013387241 0)
(0.66324634 0.013117402 0)
(0.61465645 0.012836443 0)
(0.56655385 0.012427187 0)
(0.51944839 0.011824273 0)
(0.47386453 0.011004929 0)
(0.43041214 0.0099731188 0)
(0.38975353 0.0087352865 0)
(0.35267492 0.0073188463 0)
(0.31976793 0.0057412991 0)
(0.29148405 0.0040863285 0)
(0.2679737 0.0025055809 0)
(0.24902861 0.001161061 0)
(0.23413491 0.00015845328 0)
(0.22262704 -0.0004863501 0)
(0.21382161 -0.00083122075 0)
(0.20707585 -0.00096173819 0)
(0.20183475 -0.00095326455 0)
(0.19762546 -0.00085442428 0)
(0.19408877 -0.00070534742 0)
(0.19096582 -0.00053952946 0)
(0.18806522 -0.00037838165 0)
(0.18525948 -0.00023539249 0)
(0.18247529 -0.00011735186 0)
(0.17967929 -2.5383542e-05 0)
(0.17686457 4.291005e-05 0)
(0.17403979 9.1378357e-05 0)
(0.17122111 0.00012408351 0)
(0.16842683 0.00014474459 0)
(0.1656742 0.00015652929 0)
(0.16297783 0.00016200234 0)
(0.16034907 0.00016315573 0)
(0.15779599 0.00016147951 0)
(0.15532369 0.00015804622 0)
(0.15293469 0.00015359529 0)
(0.15062948 0.00014861532 0)
(0.148407 0.00014341697 0)
(0.14626507 0.00013819142 0)
(0.14420073 0.00013305213 0)
(0.14221058 0.0001280651 0)
(0.14029093 0.00012326171 0)
(0.13843804 0.00011865177 0)
(0.13664815 0.00011423937 0)
(0.13491759 0.00011002422 0)
(0.13324282 0.00010600501 0)
(0.13162053 0.00010218059 0)
(0.1300476 9.8546396e-05 0)
(0.12852115 9.5093868e-05 0)
(0.12703855 9.1813478e-05 0)
(0.12559733 8.8697258e-05 0)
(0.12419524 8.5736833e-05 0)
(0.12283022 8.2921595e-05 0)
(0.12150038 8.0238936e-05 0)
(0.12020405 7.7676509e-05 0)
(0.11893969 7.522317e-05 0)
(0.11770594 7.2870412e-05 0)
(0.11650154 7.0612986e-05 0)
(0.11532531 6.8448167e-05 0)
(0.11417614 6.637221e-05 0)
(0.11305302 6.4378988e-05 0)
(0.11195498 6.2461145e-05 0)
(0.11088116 6.0612257e-05 0)
(0.10983079 5.8826028e-05 0)
(0.10880315 5.7096402e-05 0)
(0.10779759 5.5419142e-05 0)
(0.10681348 5.3793603e-05 0)
(0.10585025 5.2220505e-05 0)
(0.10490731 5.0699635e-05 0)
(0.10398413 4.9229348e-05 0)
(0.10308016 4.7808148e-05 0)
(0.10219488 4.6433486e-05 0)
(0.10132784 4.5099914e-05 0)
(0.10047865 4.3799409e-05 0)
(0.099646973 4.2526463e-05 0)
(0.098832535 4.1281569e-05 0)
(0.098035032 4.0070373e-05 0)
(0.09725414 3.8898759e-05 0)
(0.096489489 3.7769209e-05 0)
(0.09574073 3.667838e-05 0)
(0.095007555 3.5617773e-05 0)
(0.094289768 3.4576147e-05 0)
(0.09358726 3.3544307e-05 0)
(0.092900012 3.2518384e-05 0)
(0.092228012 3.1501948e-05 0)
(0.091571216 3.050506e-05 0)
(0.090929468 2.9541142e-05 0)
(0.09030253 2.8620203e-05 0)
(0.089690101 2.7743012e-05 0)
(0.089091955 2.6898397e-05 0)
(0.088507997 2.6067793e-05 0)
(0.087938341 2.5232904e-05 0)
(0.087383234 2.4383459e-05 0)
(0.086843004 2.3519662e-05 0)
(0.086317919 2.265064e-05 0)
(0.085808153 2.1789401e-05 0)
(0.085313731 2.0948322e-05 0)
(0.084834595 2.0134226e-05 0)
(0.084370632 1.9346354e-05 0)
(0.083921795 1.8577027e-05 0)
(0.083488108 1.7816179e-05 0)
(0.083069712 1.7055913e-05 0)
(0.082666782 1.629301e-05 0)
(0.082279521 1.552778e-05 0)
(0.081908076 1.4763158e-05 0)
(0.081552557 1.4003452e-05 0)
(0.081212984 1.3252923e-05 0)
(0.080889332 1.2514066e-05 0)
(0.080581513 1.1787402e-05 0)
(0.08028943 1.1072229e-05 0)
(0.080012944 1.0368289e-05 0)
(0.079751894 9.6759044e-06 0)
(0.079506064 8.9961931e-06 0)
(0.07927519 8.3314971e-06 0)
(0.079058921 7.685358e-06 0)
(0.078856837 7.0614535e-06 0)
(0.078668425 6.463856e-06 0)
(0.078493094 5.8971847e-06 0)
(0.078330168 5.3659974e-06 0)
(0.078178902 4.8743392e-06 0)
(0.078038497 4.4258549e-06 0)
(0.077908111 4.0230022e-06 0)
(0.077786909 3.6659258e-06 0)
(0.07767407 3.3523411e-06 0)
(0.077568866 3.0775484e-06 0)
(0.077470641 2.8348644e-06 0)
(0.077378891 2.6163276e-06 0)
(0.077293202 2.4143438e-06 0)
(0.077213307 2.2225609e-06 0)
(0.077138971 2.0368563e-06 0)
(0.077070055 1.8553524e-06 0)
(0.077006368 1.6785698e-06 0)
(0.076947763 1.508403e-06 0)
(0.076893982 1.3474982e-06 0)
(0.076844814 1.1979353e-06 0)
(0.076799928 1.0611215e-06 0)
(0.076759089 9.3712133e-07 0)
(0.07672195 8.2533036e-07 0)
(0.076688314 7.2416084e-07 0)
(0.076657867 6.3227147e-07 0)
(0.076630477 5.4807032e-07 0)
(0.076605863 4.7072976e-07 0)
(0.076583941 3.991279e-07 0)
(0.076564447 3.3290263e-07 0)
(0.076547336 2.7122367e-07 0)
(0.076532344 2.1400378e-07 0)
(0.076519462 1.6054628e-07 0)
(0.076508414 1.1099768e-07 0)
(0.07649922 6.4877104e-08 0)
(0.076491589 2.2883374e-08 0)
(0.076485566 -1.4592638e-08 0)
(0.076480836 -4.5392192e-08 0)
(0.076477476 -6.9551077e-08 0)
(0.07647515 -8.7104901e-08 0)
(0.076473969 -9.8989296e-08 0)
(0.076473579 -1.1055837e-07 0)
(0.076474135 -1.3083558e-07 0)
(0.076475259 -1.4417591e-07 0)
(0.076477163 -1.541557e-07 0)
(0.076479445 -1.5689007e-07 0)
(0.076482368 -1.6123843e-07 0)
(0.076485502 -1.6452518e-07 0)
(0.076489165 -1.668337e-07 0)
(0.076492891 -1.6728988e-07 0)
(0.076497049 -1.6674286e-07 0)
(0.076501128 -1.6504243e-07 0)
(0.07650556 -1.6309341e-07 0)
(0.076509788 -1.5934625e-07 0)
(0.076514309 -1.5604227e-07 0)
(0.076518517 -1.5082831e-07 0)
(0.076522978 -1.4607459e-07 0)
(0.076527035 -1.3987302e-07 0)
(0.076531335 -1.347104e-07 0)
(0.076535158 -1.2815715e-07 0)
(0.076539234 -1.2324117e-07 0)
(0.076542771 -1.1635797e-07 0)
(0.076546576 -1.1151651e-07 0)
(0.076549787 -1.0486852e-07 0)
(0.076553293 -1.0009997e-07 0)
(0.076556153 -9.3341516e-08 0)
(0.076559337 -8.8758647e-08 0)
(0.076561824 -8.1641018e-08 0)
(0.076564664 -7.7056909e-08 0)
(0.076566763 -6.983307e-08 0)
(0.076569246 -6.532109e-08 0)
(0.076570952 -5.790449e-08 0)
(0.076573068 -5.3567208e-08 0)
(0.076574384 -4.6060084e-08 0)
(0.076576126 -4.1974023e-08 0)
(0.076577067 -3.446054e-08 0)
(0.076578428 -3.0741585e-08 0)
(0.076579024 -2.3517295e-08 0)
(0.076579998 -2.0281771e-08 0)
(0.076580307 -1.3948246e-08 0)
(0.076580879 -1.1067398e-08 0)
(0.07658102 -5.4637867e-09 0)
(0.97223953 0.015463839 0)
(0.97110821 0.022659345 0)
(0.96976002 0.026237281 0)
(0.9668185 0.027255229 0)
(0.9612743 0.027265603 0)
(0.9528382 0.027204653 0)
(0.94169354 0.027312487 0)
(0.92818748 0.027467636 0)
(0.91261988 0.027482474 0)
(0.89526819 0.027236889 0)
(0.87635523 0.026669448 0)
(0.85614892 0.025755491 0)
(0.83492371 0.024474571 0)
(0.8130701 0.022822567 0)
(0.79093938 0.02080796 0)
(0.76892757 0.018495294 0)
(0.74740027 0.016016302 0)
(0.72663249 0.013539204 0)
(0.70680561 0.011226784 0)
(0.68800806 0.0091932337 0)
(0.67028516 0.0074905978 0)
(0.65362381 0.0061153797 0)
(0.63799613 0.0050361007 0)
(0.6233239 0.004207777 0)
(0.60952105 0.0035886774 0)
(0.59651126 0.0031427089 0)
(0.58420448 0.0028320461 0)
(0.57251509 0.0026187096 0)
(0.56137013 0.002469158 0)
(0.55071125 0.0023575851 0)
(0.5404932 0.0022663575 0)
(0.53068119 0.002184549 0)
(0.52124844 0.0021060055 0)
(0.51217395 0.002027698 0)
(0.50344063 0.0019485317 0)
(0.49503394 0.0018685336 0)
(0.48694082 0.0017883183 0)
(0.47914899 0.0017087426 0)
(0.47164648 0.0016306968 0)
(0.46442137 0.0015549766 0)
(0.45746164 0.0014822145 0)
(0.45075521 0.0014128526 0)
(0.44428998 0.0013471543 0)
(0.4380539 0.0012852318 0)
(0.43203514 0.0012270817 0)
(0.42622215 0.0011726168 0)
(0.42060379 0.00112169 0)
(0.41516935 0.001074117 0)
(0.40990863 0.0010296812 0)
(0.40481195 0.00098814184 0)
(0.39987021 0.00094925378 0)
(0.39507494 0.0009127859 0)
(0.39041822 0.00087852959 0)
(0.38589276 0.00084629446 0)
(0.38149176 0.00081590441 0)
(0.37720898 0.00078719558 0)
(0.3730386 0.00076001713 0)
(0.36897531 0.00073422825 0)
(0.36501421 0.00070970049 0)
(0.36115083 0.00068632202 0)
(0.35738104 0.00066400174 0)
(0.35370104 0.00064266433 0)
(0.35010726 0.00062224533 0)
(0.34659635 0.00060268568 0)
(0.34316516 0.00058392879 0)
(0.33981084 0.00056591518 0)
(0.3365307 0.00054858627 0)
(0.33332231 0.00053189201 0)
(0.33018337 0.00051579523 0)
(0.32711176 0.00050026352 0)
(0.32410545 0.00048526541 0)
(0.32116253 0.00047077378 0)
(0.31828118 0.00045677155 0)
(0.31545969 0.00044324415 0)
(0.31269643 0.00043017019 0)
(0.30998989 0.00041751729 0)
(0.30733865 0.00040524994 0)
(0.30474148 0.00039333486 0)
(0.30219724 0.000381746 0)
(0.29970491 0.00037046824 0)
(0.29726342 0.00035950234 0)
(0.29487178 0.00034885533 0)
(0.29252896 0.00033852454 0)
(0.29023408 0.00032848635 0)
(0.28798639 0.00031870252 0)
(0.2857853 0.0003091299 0)
(0.28363037 0.0002997329 0)
(0.28152129 0.00029049211 0)
(0.2794577 0.00028141166 0)
(0.27743926 0.00027251465 0)
(0.2754655 0.0002638316 0)
(0.27353592 0.0002553798 0)
(0.27165007 0.00024714796 0)
(0.26980774 0.00023908982 0)
(0.26800897 0.00023114003 0)
(0.26625412 0.00022323831 0)
(0.26454367 0.00021535358 0)
(0.2628782 0.0002074895 0)
(0.26125814 0.00019967769 0)
(0.2596838 0.00019195968 0)
(0.25815526 0.00018437249 0)
(0.25667258 0.00017693292 0)
(0.25523577 0.00016963341 0)
(0.25384501 0.00016244617 0)
(0.25250058 0.00015533924 0)
(0.25120292 0.00014829005 0)
(0.24995245 0.00014129356 0)
(0.24874962 0.00013435776 0)
(0.24759471 0.00012750032 0)
(0.24648792 0.00012074276 0)
(0.24542924 0.00011410662 0)
(0.24441856 0.00010760758 0)
(0.24345563 0.00010125593 0)
(0.24254009 9.5058327e-05 0)
(0.24167145 8.9024085e-05 0)
(0.24084911 8.3164879e-05 0)
(0.24007224 7.7495726e-05 0)
(0.23933987 7.2034445e-05 0)
(0.23865078 6.6802312e-05 0)
(0.23800354 6.1819139e-05 0)
(0.2373965 5.7104123e-05 0)
(0.23682781 5.2674412e-05 0)
(0.23629545 4.8544042e-05 0)
(0.23579728 4.472086e-05 0)
(0.23533108 4.1207956e-05 0)
(0.2348946 3.8000146e-05 0)
(0.23448572 3.5082875e-05 0)
(0.23410237 3.2431563e-05 0)
(0.23374279 3.0014777e-05 0)
(0.23340537 2.7795474e-05 0)
(0.23308887 2.5736222e-05 0)
(0.23279218 2.3803233e-05 0)
(0.23251452 2.19711e-05 0)
(0.23225506 2.0223417e-05 0)
(0.23201325 1.8553934e-05 0)
(0.2317883 1.6963731e-05 0)
(0.23157962 1.5459216e-05 0)
(0.2313863 1.4047147e-05 0)
(0.23120768 1.2732651e-05 0)
(0.23104275 1.1516464e-05 0)
(0.23089089 1.0395774e-05 0)
(0.23075108 9.3640865e-06 0)
(0.23062282 8.4134469e-06 0)
(0.23050518 7.5356033e-06 0)
(0.2303978 6.7235526e-06 0)
(0.23029979 5.9715065e-06 0)
(0.23021093 5.2747401e-06 0)
(0.23013032 4.629402e-06 0)
(0.23005785 4.0321122e-06 0)
(0.22999263 3.4801289e-06 0)
(0.22993462 2.9707839e-06 0)
(0.22988292 2.5021722e-06 0)
(0.22983757 2.0722516e-06 0)
(0.22979763 1.6801017e-06 0)
(0.22976327 1.3247129e-06 0)
(0.22973345 1.0069807e-06 0)
(0.22970846 7.254388e-07 0)
(0.22968723 4.7900908e-07 0)
(0.22967015 2.6526582e-07 0)
(0.22965608 7.7150534e-08 0)
(0.22964556 -9.7970114e-08 0)
(0.22963739 -2.4528783e-07 0)
(0.22963225 -3.7000392e-07 0)
(0.22962885 -4.8252534e-07 0)
(0.22962803 -5.7977592e-07 0)
(0.22962839 -6.539245e-07 0)
(0.22963096 -7.1424305e-07 0)
(0.2296342 -7.6103715e-07 0)
(0.22963931 -7.9328414e-07 0)
(0.22964463 -8.1209325e-07 0)
(0.22965154 -8.2304823e-07 0)
(0.22965823 -8.2279461e-07 0)
(0.22966628 -8.1684468e-07 0)
(0.22967374 -8.007283e-07 0)
(0.2296824 -7.8280829e-07 0)
(0.22969013 -7.5848274e-07 0)
(0.22969898 -7.340833e-07 0)
(0.22970662 -7.0389326e-07 0)
(0.22971533 -6.7645704e-07 0)
(0.22972258 -6.4204699e-07 0)
(0.2297309 -6.1215195e-07 0)
(0.22973754 -5.7606068e-07 0)
(0.2297453 -5.44846e-07 0)
(0.2297512 -5.0718037e-07 0)
(0.22975827 -4.7602507e-07 0)
(0.22976331 -4.3689327e-07 0)
(0.22976961 -4.0620675e-07 0)
(0.22977374 -3.670565e-07 0)
(0.22977923 -3.3763217e-07 0)
(0.22978245 -2.9849754e-07 0)
(0.22978711 -2.7116802e-07 0)
(0.22978944 -2.3246928e-07 0)
(0.22979327 -2.0779417e-07 0)
(0.22979478 -1.6976482e-07 0)
(0.22979777 -1.485406e-07 0)
(0.22979856 -1.1169904e-07 0)
(0.22980068 -9.4730582e-08 0)
(0.22980092 -6.0288449e-08 0)
(0.22980211 -4.9109532e-08 0)
(0.22980208 -1.6940615e-08 0)
(0.97556379 0.015371402 0)
(0.9759813 0.020899211 0)
(0.97791863 0.0246294 0)
(0.98054244 0.026383297 0)
(0.98285138 0.027054789 0)
(0.9842754 0.027485295 0)
(0.98466599 0.02805138 0)
(0.98411676 0.028732699 0)
(0.98274625 0.029355991 0)
(0.9806209 0.029759594 0)
(0.97772843 0.02983797 0)
(0.97402402 0.029525018 0)
(0.96945151 0.02878151 0)
(0.96398199 0.027588653 0)
(0.95762111 0.025970688 0)
(0.95042157 0.023999174 0)
(0.94248809 0.021798173 0)
(0.93394564 0.019523382 0)
(0.92493993 0.017332899 0)
(0.91560702 0.015348818 0)
(0.90608373 0.013640169 0)
(0.8964767 0.012220765 0)
(0.88687798 0.011069169 0)
(0.87733659 0.01014364 0)
(0.86788155 0.0094026407 0)
(0.85852924 0.0088120457 0)
(0.84927117 0.008339 0)
(0.84009247 0.0079518732 0)
(0.83097958 0.007622821 0)
(0.82192331 0.0073300432 0)
(0.81291918 0.0070583678 0)
(0.8039668 0.0067983555 0)
(0.79506904 0.006544795 0)
(0.78623129 0.0062952752 0)
(0.77746064 0.0060491062 0)
(0.76876525 0.0058065792 0)
(0.76015369 0.0055684883 0)
(0.75163448 0.0053358293 0)
(0.74321568 0.0051096168 0)
(0.73490462 0.0048907685 0)
(0.72670781 0.0046800399 0)
(0.71863078 0.0044779875 0)
(0.71067809 0.0042849666 0)
(0.7028534 0.0041011439 0)
(0.69515948 0.0039265305 0)
(0.68759829 0.0037610159 0)
(0.68017109 0.0036044087 0)
(0.67287845 0.003456438 0)
(0.66572034 0.0033167601 0)
(0.65869621 0.0031849679 0)
(0.65180505 0.0030606111 0)
(0.64504553 0.0029432208 0)
(0.63841599 0.0028323387 0)
(0.63191452 0.00272753 0)
(0.62553902 0.0026283836 0)
(0.6192872 0.0025345005 0)
(0.61315662 0.0024454924 0)
(0.60714479 0.0023609855 0)
(0.60124913 0.00228063 0)
(0.59546708 0.002204108 0)
(0.58979608 0.0021311438 0)
(0.58423358 0.0020615008 0)
(0.57877699 0.0019949703 0)
(0.57342377 0.001931352 0)
(0.56817136 0.0018704484 0)
(0.56301733 0.001812067 0)
(0.55795931 0.0017560269 0)
(0.55299505 0.0017021631 0)
(0.54812236 0.0016503357 0)
(0.54333916 0.001600429 0)
(0.53864339 0.0015523425 0)
(0.53403314 0.0015059766 0)
(0.52950652 0.0014612387 0)
(0.52506178 0.0014180476 0)
(0.52069719 0.0013763286 0)
(0.51641113 0.0013359925 0)
(0.51220207 0.0012969333 0)
(0.50806865 0.0012590459 0)
(0.50400958 0.0012222549 0)
(0.50002376 0.0011865175 0)
(0.49611003 0.00115181 0)
(0.49226735 0.0011181064 0)
(0.48849463 0.0010853663 0)
(0.48479097 0.0010535192 0)
(0.48115554 0.0010224712 0)
(0.47758776 0.00099212359 0)
(0.47408711 0.00096240029 0)
(0.47065328 0.0009332575 0)
(0.46728591 0.00090469112 0)
(0.46398472 0.00087672631 0)
(0.46074928 0.00084939496 0)
(0.45757925 0.00082269555 0)
(0.45447427 0.00079657035 0)
(0.45143432 0.00077090349 0)
(0.44845961 0.00074555788 0)
(0.44555075 0.00072041875 0)
(0.44270845 0.000695433 0)
(0.4399336 0.00067061338 0)
(0.43722694 0.00064602282 0)
(0.43458913 0.00062173717 0)
(0.43202062 0.00059781714 0)
(0.42952182 0.00057428101 0)
(0.42709312 0.00055110219 0)
(0.42473508 0.00052822022 0)
(0.42244833 0.00050557464 0)
(0.42023372 0.00048312856 0)
(0.41809203 0.00046088236 0)
(0.4160241 0.00043886255 0)
(0.41403057 0.00041711625 0)
(0.41211194 0.00039569739 0)
(0.41026851 0.00037466002 0)
(0.40850037 0.00035404665 0)
(0.40680743 0.00033389249 0)
(0.40518941 0.00031422744 0)
(0.40364583 0.000295089 0)
(0.40217596 0.00027651995 0)
(0.40077884 0.00025857228 0)
(0.39945314 0.00024130152 0)
(0.39819727 0.00022476877 0)
(0.39700925 0.00020902903 0)
(0.39588684 0.00019413387 0)
(0.39482741 0.0001801237 0)
(0.39382817 0.00016702844 0)
(0.39288604 0.0001548581 0)
(0.39199794 0.00014360756 0)
(0.39116058 0.00013324657 0)
(0.39037098 0.00012372367 0)
(0.38962607 0.0001149631 0)
(0.3889233 0.00010687741 0)
(0.38826014 9.9368331e-05 0)
(0.3876347 9.23437e-05 0)
(0.38704506 8.5721287e-05 0)
(0.38648993 7.9442877e-05 0)
(0.38596774 7.3469461e-05 0)
(0.38547752 6.7787356e-05 0)
(0.38501777 6.2395142e-05 0)
(0.38458755 5.7304164e-05 0)
(0.38418523 5.2521989e-05 0)
(0.38380985 4.8054855e-05 0)
(0.38345966 4.3895984e-05 0)
(0.38313377 4.0034694e-05 0)
(0.38283045 3.6449616e-05 0)
(0.38254899 3.3121129e-05 0)
(0.38228772 3.0025737e-05 0)
(0.38204614 2.7147264e-05 0)
(0.38182262 2.4467955e-05 0)
(0.38161687 2.1977146e-05 0)
(0.38142722 1.9661287e-05 0)
(0.38125355 1.7512884e-05 0)
(0.38109417 1.5520606e-05 0)
(0.38094913 1.3678817e-05 0)
(0.38081668 1.1977842e-05 0)
(0.38069703 1.0413518e-05 0)
(0.38058837 8.9773078e-06 0)
(0.3804911 7.665351e-06 0)
(0.3804033 6.4693852e-06 0)
(0.38032559 5.3852715e-06 0)
(0.38025594 4.4050333e-06 0)
(0.38019519 3.524442e-06 0)
(0.38014118 2.7370358e-06 0)
(0.38009501 2.037469e-06 0)
(0.38005437 1.4169917e-06 0)
(0.38002062 8.7118598e-07 0)
(0.37999131 3.7953946e-07 0)
(0.37996804 -4.8157386e-08 0)
(0.37994819 -4.0903168e-07 0)
(0.37993363 -7.1308095e-07 0)
(0.37992153 -9.6646505e-07 0)
(0.37991406 -1.2107207e-06 0)
(0.37990814 -1.3963268e-06 0)
(0.37990628 -1.5348573e-06 0)
(0.37990513 -1.634144e-06 0)
(0.37990753 -1.7028304e-06 0)
(0.37990986 -1.7370513e-06 0)
(0.37991535 -1.7477353e-06 0)
(0.37992004 -1.7376269e-06 0)
(0.37992759 -1.7136834e-06 0)
(0.3799337 -1.671445e-06 0)
(0.37994246 -1.6219856e-06 0)
(0.3799492 -1.5554063e-06 0)
(0.37995845 -1.4892487e-06 0)
(0.37996518 -1.4096916e-06 0)
(0.37997437 -1.3329757e-06 0)
(0.37998059 -1.2439033e-06 0)
(0.3799893 -1.1628908e-06 0)
(0.37999468 -1.0676186e-06 0)
(0.38000261 -9.8581478e-07 0)
(0.38000693 -8.8931624e-07 0)
(0.38001391 -8.1066636e-07 0)
(0.38001709 -7.1446017e-07 0)
(0.38002304 -6.420336e-07 0)
(0.38002508 -5.4756175e-07 0)
(0.38002997 -4.8344123e-07 0)
(0.38003095 -3.9079796e-07 0)
(0.38003475 -3.3734675e-07 0)
(0.38003483 -2.4709569e-07 0)
(0.38003751 -2.0704514e-07 0)
(0.38003693 -1.1927613e-07 0)
(0.38003837 -9.7083722e-08 0)
(0.38003751 -1.398919e-08 0)
(0.97814075 0.01480211 0)
(0.97833616 0.018881383 0)
(0.97976085 0.022239788 0)
(0.98214419 0.024337737 0)
(0.98488091 0.025449304 0)
(0.98743921 0.026131828 0)
(0.98959894 0.02678438 0)
(0.99139856 0.027516668 0)
(0.99297629 0.02823991 0)
(0.99443763 0.028804699 0)
(0.99580188 0.029084668 0)
(0.99700963 0.02899521 0)
(0.99795618 0.028490894 0)
(0.99851789 0.027560425 0)
(0.99858253 0.026234988 0)
(0.99806346 0.024586059 0)
(0.99691609 0.022721177 0)
(0.99513725 0.020771537 0)
(0.99276872 0.018869556 0)
(0.98988562 0.017124682 0)
(0.98658727 0.015604621 0)
(0.98297702 0.014333986 0)
(0.9791491 0.013301674 0)
(0.97517587 0.012478262 0)
(0.97110554 0.011825765 0)
(0.96696467 0.011306009 0)
(0.96275981 0.010886403 0)
(0.95848648 0.010539527 0)
(0.95413623 0.010242566 0)
(0.9497004 0.0099773817 0)
(0.94517167 0.0097305759 0)
(0.94054475 0.0094930657 0)
(0.93581655 0.009259261 0)
(0.93098625 0.0090261324 0)
(0.92605513 0.0087923951 0)
(0.92102627 0.0085578746 0)
(0.91590421 0.0083230575 0)
(0.91069456 0.0080887865 0)
(0.90540365 0.0078560631 0)
(0.90003825 0.0076259067 0)
(0.89460532 0.0073992675 0)
(0.88911186 0.007176968 0)
(0.88356477 0.0069596769 0)
(0.87797082 0.0067478981 0)
(0.87233653 0.0065419917 0)
(0.86666821 0.0063421973 0)
(0.86097191 0.0061486699 0)
(0.85525342 0.0059614794 0)
(0.84951819 0.0057806171 0)
(0.84377145 0.0056059991 0)
(0.83801811 0.0054374775 0)
(0.83226289 0.0052748565 0)
(0.82651023 0.0051179227 0)
(0.82076439 0.0049664689 0)
(0.81502935 0.004820302 0)
(0.80930891 0.0046792269 0)
(0.80360658 0.0045430349 0)
(0.79792571 0.0044115007 0)
(0.79226941 0.0042843991 0)
(0.78664066 0.0041615201 0)
(0.78104221 0.0040426849 0)
(0.77547665 0.0039277468 0)
(0.76994634 0.0038165795 0)
(0.76445349 0.0037090507 0)
(0.75900006 0.0036050102 0)
(0.75358797 0.0035042931 0)
(0.7482189 0.0034067406 0)
(0.74289449 0.0033122059 0)
(0.73761617 0.0032205574 0)
(0.73238529 0.0031316766 0)
(0.727203 0.0030454615 0)
(0.72207046 0.0029618157 0)
(0.71698863 0.0028806445 0)
(0.71195846 0.0028018522 0)
(0.70698077 0.0027253468 0)
(0.70205633 0.0026510239 0)
(0.6971858 0.0025787569 0)
(0.69236988 0.0025084022 0)
(0.68760916 0.0024398397 0)
(0.68290431 0.0023730001 0)
(0.67825586 0.0023078577 0)
(0.6736644 0.0022443819 0)
(0.66913038 0.0021825081 0)
(0.66465438 0.0021221287 0)
(0.66023692 0.0020631101 0)
(0.65587865 0.0020053076 0)
(0.65158017 0.0019486011 0)
(0.6473422 0.0018929169 0)
(0.64316539 0.0018382404 0)
(0.63905044 0.0017845979 0)
(0.63499799 0.0017320281 0)
(0.63100871 0.0016805225 0)
(0.62708324 0.0016299868 0)
(0.62322242 0.0015802353 0)
(0.61942723 0.0015310494 0)
(0.61569893 0.0014822436 0)
(0.61203885 0.0014337255 0)
(0.6084485 0.0013855004 0)
(0.60492934 0.0013376526 0)
(0.60148284 0.001290292 0)
(0.59811032 0.0012435122 0)
(0.59481307 0.0011973426 0)
(0.59159234 0.0011517453 0)
(0.58844943 0.00110663 0)
(0.58538573 0.001061906 0)
(0.58240273 0.001017516 0)
(0.57950191 0.00097346117 0)
(0.57668477 0.00092978513 0)
(0.57395268 0.00088656802 0)
(0.57130687 0.00084390318 0)
(0.56874841 0.00080188974 0)
(0.56627808 0.00076061006 0)
(0.56389656 0.00072013885 0)
(0.56160416 0.00068054287 0)
(0.55940109 0.00064190262 0)
(0.55728712 0.00060430539 0)
(0.55526188 0.00056785624 0)
(0.55332445 0.00053266454 0)
(0.55147374 0.00049884983 0)
(0.54970804 0.00046651929 0)
(0.54802551 0.00043577592 0)
(0.54642363 0.00040669861 0)
(0.54489989 0.00037934826 0)
(0.54345114 0.00035374801 0)
(0.54207444 0.00032989518 0)
(0.54076628 0.00030773888 0)
(0.53952366 0.00028719376 0)
(0.53834312 0.00026812948 0)
(0.53722196 0.00025039781 0)
(0.53615708 0.00023382778 0)
(0.53514638 0.00021826142 0)
(0.5341872 0.00020355242 0)
(0.53327804 0.00018959729 0)
(0.53241658 0.00017631967 0)
(0.53160167 0.00016368944 0)
(0.53083109 0.00015169256 0)
(0.53010381 0.00014034124 0)
(0.52941751 0.00012963761 0)
(0.52877121 0.00011958798 0)
(0.52816249 0.00011017307 0)
(0.52759049 0.00010137357 0)
(0.52705275 9.3147304e-05 0)
(0.52654865 8.5461542e-05 0)
(0.52607572 7.8270896e-05 0)
(0.52563362 7.1548571e-05 0)
(0.52521987 6.5258174e-05 0)
(0.52483436 5.9382234e-05 0)
(0.52447453 5.3891039e-05 0)
(0.52414049 4.8772552e-05 0)
(0.5238296 4.4000206e-05 0)
(0.52354219 3.9565041e-05 0)
(0.52327548 3.544265e-05 0)
(0.52303008 3.162665e-05 0)
(0.52280306 2.8094207e-05 0)
(0.5225953 2.4840282e-05 0)
(0.52240373 2.1842533e-05 0)
(0.52222952 1.9096142e-05 0)
(0.52206946 1.6578654e-05 0)
(0.52192503 1.4285143e-05 0)
(0.52179283 1.2192948e-05 0)
(0.52167472 1.0297789e-05 0)
(0.52156706 8.5774566e-06 0)
(0.52147208 7.0292772e-06 0)
(0.5213859 5.6360735e-06 0)
(0.52131116 4.3936433e-06 0)
(0.52124366 3.2845366e-06 0)
(0.52118646 2.3115223e-06 0)
(0.52113504 1.4577111e-06 0)
(0.52109289 6.8158353e-07 0)
(0.52105512 2.0378443e-08 0)
(0.52102568 -5.2837629e-07 0)
(0.52099926 -9.8283133e-07 0)
(0.52098033 -1.3481744e-06 0)
(0.52096312 -1.6708525e-06 0)
(0.52095265 -1.9256548e-06 0)
(0.52094268 -2.107025e-06 0)
(0.52093879 -2.2290973e-06 0)
(0.52093422 -2.3009235e-06 0)
(0.52093519 -2.3306379e-06 0)
(0.5209344 -2.3131808e-06 0)
(0.52093869 -2.2701854e-06 0)
(0.52094023 -2.1960115e-06 0)
(0.52094653 -2.1069143e-06 0)
(0.52094918 -1.9907849e-06 0)
(0.52095641 -1.8724394e-06 0)
(0.52095923 -1.7289638e-06 0)
(0.52096655 -1.5966292e-06 0)
(0.52096886 -1.4407894e-06 0)
(0.5209757 -1.3070366e-06 0)
(0.52097709 -1.1466704e-06 0)
(0.52098309 -1.0212067e-06 0)
(0.52098338 -8.6158638e-07 0)
(0.52098836 -7.5117811e-07 0)
(0.52098754 -5.9410697e-07 0)
(0.52099141 -5.0315929e-07 0)
(0.52098963 -3.4833101e-07 0)
(0.52099232 -2.832056e-07 0)
(0.52098983 -1.3141995e-07 0)
(0.52099125 -9.7754313e-08 0)
(0.52098844 4.5466696e-08 0)
(0.98020289 0.014453031 0)
(0.98033748 0.017707211 0)
(0.98139585 0.02068123 0)
(0.98329519 0.022922679 0)
(0.98569284 0.024349898 0)
(0.98816674 0.025241364 0)
(0.99045236 0.025927032 0)
(0.99250679 0.026588573 0)
(0.99442677 0.027227243 0)
(0.9963292 0.027739872 0)
(0.99827682 0.028007059 0)
(1.0002584 0.027941055 0)
(1.0022057 0.027497165 0)
(1.0040191 0.026671158 0)
(1.0055926 0.025497448 0)
(1.006831 0.024043326 0)
(1.0076632 0.022402036 0)
(1.0080509 0.020682888 0)
(1.0079933 0.018995721 0)
(1.0075263 0.017434024 0)
(1.0067151 0.016060355 0)
(1.0056407 0.014902429 0)
(1.0043841 0.013957197 0)
(1.0030142 0.013202275 0)
(1.0015806 0.012605022 0)
(1.0001118 0.0121306 0)
(0.99861876 0.011748769 0)
(0.99710048 0.011435133 0)
(0.99554996 0.011170095 0)
(0.99395768 0.010937921 0)
(0.99231351 0.010726365 0)
(0.99060773 0.010526447 0)
(0.98883166 0.010332074 0)
(0.98697798 0.010139486 0)
(0.98504092 0.0099466629 0)
(0.98301627 0.0097527851 0)
(0.9809012 0.0095578063 0)
(0.97869414 0.0093621416 0)
(0.97639444 0.0091664564 0)
(0.97400228 0.0089715134 0)
(0.97151838 0.0087780709 0)
(0.96894394 0.0085868159 0)
(0.96628046 0.0083983268 0)
(0.96352969 0.0082130551 0)
(0.96069359 0.0080313316 0)
(0.95777429 0.0078533858 0)
(0.95477398 0.0076793658 0)
(0.95169498 0.0075093534 0)
(0.94853963 0.0073433742 0)
(0.94531035 0.007181396 0)
(0.94200954 0.0070233342 0)
(0.93863975 0.0068690584 0)
(0.9352035 0.0067184204 0)
(0.93170344 0.0065712785 0)
(0.92814218 0.0064275141 0)
(0.92452242 0.0062870176 0)
(0.92084684 0.0061496698 0)
(0.91711817 0.0060153273 0)
(0.91333913 0.0058838388 0)
(0.90951254 0.0057550666 0)
(0.90564118 0.0056289107 0)
(0.90172787 0.0055053087 0)
(0.89777539 0.0053842236 0)
(0.89378656 0.0052656096 0)
(0.88976412 0.0051493948 0)
(0.88571087 0.005035481 0)
(0.88162955 0.0049237763 0)
(0.87752291 0.0048142088 0)
(0.87339363 0.0047067253 0)
(0.86924437 0.004601273 0)
(0.86507772 0.0044978055 0)
(0.86089629 0.0043962848 0)
(0.8567026 0.0042966827 0)
(0.85249924 0.0041989632 0)
(0.84828864 0.0041030843 0)
(0.84407329 0.0040089873 0)
(0.83985554 0.003916594 0)
(0.83563774 0.0038258021 0)
(0.83142219 0.003736521 0)
(0.82721119 0.0036487052 0)
(0.82300696 0.0035623662 0)
(0.81881174 0.0034775162 0)
(0.81462768 0.0033941205 0)
(0.81045702 0.0033120806 0)
(0.80630192 0.00323127 0)
(0.8021646 0.003151555 0)
(0.79804722 0.0030728266 0)
(0.79395197 0.0029950185 0)
(0.78988098 0.0029181322 0)
(0.78583644 0.0028422173 0)
(0.7818205 0.0027673393 0)
(0.77783534 0.0026935083 0)
(0.7738831 0.002620633 0)
(0.769966 0.002548505 0)
(0.76608632 0.002476869 0)
(0.76224639 0.0024055008 0)
(0.75844864 0.002334285 0)
(0.75469551 0.0022632187 0)
(0.75098952 0.0021923969 0)
(0.74733316 0.0021219509 0)
(0.74372897 0.0020520053 0)
(0.74017939 0.0019826121 0)
(0.73668692 0.0019137441 0)
(0.733254 0.0018453045 0)
(0.72988317 0.001777196 0)
(0.72657689 0.0017093554 0)
(0.72333772 0.0016417905 0)
(0.72016805 0.001574559 0)
(0.71707036 0.0015077717 0)
(0.7140468 0.0014415575 0)
(0.71109961 0.0013760618 0)
(0.70823057 0.0013114115 0)
(0.70544159 0.0012477319 0)
(0.70273399 0.0011851375 0)
(0.70010927 0.001123767 0)
(0.69756823 0.0010637642 0)
(0.69511182 0.001005302 0)
(0.69274016 0.00094855642 0)
(0.69045356 0.00089372196 0)
(0.68825132 0.00084097229 0)
(0.68613298 0.00079048061 0)
(0.68409697 0.0007423808 0)
(0.68214213 0.00069678421 0)
(0.68026613 0.00065374411 0)
(0.67846728 0.0006132822 0)
(0.67674275 0.00057534613 0)
(0.67509065 0.00053984012 0)
(0.67350799 0.00050659903 0)
(0.67199304 0.00047543649 0)
(0.67054291 0.00044612434 0)
(0.66915623 0.00041845411 0)
(0.66783032 0.00039222093 0)
(0.66656419 0.00036728046 0)
(0.66535526 0.00034351378 0)
(0.66420279 0.00032087045 0)
(0.66310414 0.00029931326 0)
(0.66205867 0.00027884988 0)
(0.66106355 0.00025946731 0)
(0.66011826 0.00024116951 0)
(0.6592198 0.00022391864 0)
(0.65836785 0.00020768793 0)
(0.65755934 0.0001924104 0)
(0.65679423 0.00017804272 0)
(0.65606942 0.00016451385 0)
(0.6553852 0.00015178929 0)
(0.65473838 0.00013981023 0)
(0.65412952 0.00012855572 0)
(0.65355526 0.00011797606 0)
(0.6530164 0.00010805824 0)
(0.65250935 9.8756067e-05 0)
(0.65203515 9.0060399e-05 0)
(0.65158994 8.1926487e-05 0)
(0.65117503 7.4348061e-05 0)
(0.6507863 6.7281032e-05 0)
(0.65042542 6.0720748e-05 0)
(0.650088 5.4622802e-05 0)
(0.64977609 4.8983298e-05 0)
(0.64948506 4.3757244e-05 0)
(0.64921742 3.8941616e-05 0)
(0.64896824 3.4491429e-05 0)
(0.64874051 3.0406044e-05 0)
(0.64852902 2.6641601e-05 0)
(0.64833724 2.3199728e-05 0)
(0.64815959 2.003937e-05 0)
(0.64800009 1.7165365e-05 0)
(0.64785273 1.4539155e-05 0)
(0.64772211 1.2168998e-05 0)
(0.64760172 1.0020603e-05 0)
(0.64749677 8.1110765e-06 0)
(0.64740023 6.3979758e-06 0)
(0.64731793 4.8906674e-06 0)
(0.64724225 3.5602817e-06 0)
(0.64717971 2.4153019e-06 0)
(0.64712203 1.3875978e-06 0)
(0.64707646 5.1287082e-07 0)
(0.64703402 -2.1712379e-07 0)
(0.64700269 -8.0555965e-07 0)
(0.64697277 -1.2785059e-06 0)
(0.64695303 -1.639328e-06 0)
(0.64693298 -1.9479562e-06 0)
(0.64692226 -2.1468645e-06 0)
(0.64690956 -2.2599938e-06 0)
(0.64690546 -2.305352e-06 0)
(0.64689781 -2.2860124e-06 0)
(0.64689817 -2.2244879e-06 0)
(0.64689357 -2.1065236e-06 0)
(0.64689656 -1.9759128e-06 0)
(0.64689339 -1.8017005e-06 0)
(0.64689758 -1.6387791e-06 0)
(0.64689466 -1.4331533e-06 0)
(0.64689904 -1.2645223e-06 0)
(0.64689561 -1.0462221e-06 0)
(0.64689954 -8.9098054e-07 0)
(0.64689525 -6.7125853e-07 0)
(0.64689839 -5.4435028e-07 0)
(0.64689319 -3.2531989e-07 0)
(0.64689538 -2.3363966e-07 0)
(0.64688944 -1.9511625e-08 0)
(0.64689058 2.737958e-08 0)
(0.64688424 2.2646535e-07 0)
(0.98196611 0.014254929 0)
(0.98210011 0.016994963 0)
(0.98295661 0.019627738 0)
(0.98450587 0.021828135 0)
(0.98655141 0.023415792 0)
(0.98879566 0.024464582 0)
(0.9909886 0.025196408 0)
(0.99302536 0.025797902 0)
(0.99493398 0.02633222 0)
(0.99679982 0.026752438 0)
(0.99869131 0.026966972 0)
(1.0006238 0.026893976 0)
(1.0025601 0.026487934 0)
(1.0044289 0.025744224 0)
(1.0061461 0.024694176 0)
(1.0076315 0.023397418 0)
(1.0088209 0.021933975 0)
(1.0096748 0.020395267 0)
(1.0101832 0.018873266 0)
(1.0103668 0.017448329 0)
(1.0102733 0.016178177 0)