/*--------------------------------*- C++ -*----------------------------------*\
| =========                 |                                                 |
| \\      /  F ield         | OpenFOAM: The Open Source CFD Toolbox           |
|  \\    /   O peration     | Version:  1.4.1-dev                             |
|   \\  /    A nd           | Web:      http://www.openfoam.org               |
|    \\/     M anipulation  |                                                 |
\*---------------------------------------------------------------------------*/

FoamFile
{
    version 2.0;
    format ascii;

    root "/home/mjaworsk/OpenFOAM/mjaworsk-1.4.1-dev/run/FlatPlate-Blasius";
    case "icoHeatFoam-flatPlate2";
    instance "0.3";
    local "";

    class volScalarField;
    object p;
}

// * * * * * * * * * * * * * * * * * * * * * * * * * * * * * * * * * * * * * //

dimensions      [0 2 -2 0 0 0 0];

internalField   nonuniform List<scalar> 
2475
(
0.00436968
0.00182272
0.000193303
-0.000221179
-0.000189132
-0.000123451
-9.4364e-05
-8.4644e-05
-8.08111e-05
-7.85727e-05
-7.64027e-05
-7.34318e-05
-6.94743e-05
-6.51293e-05
-6.15583e-05
-5.99246e-05
-6.09281e-05
-6.4464e-05
-6.98065e-05
-7.61378e-05
-8.30188e-05
-9.05711e-05
-9.90132e-05
-0.000108206
-0.000117346
-0.000125929
-0.000132916
-0.000137836
-0.00013932
-0.000136186
-0.000125347
-0.000106232
-8.04425e-05
-5.00939e-05
-1.90875e-05
0.00381316
0.00181968
0.00029024
-0.000160378
-0.000153353
-0.00010163
-8.08115e-05
-7.53009e-05
-7.37181e-05
-7.29731e-05
-7.19047e-05
-6.97559e-05
-6.64113e-05
-6.25249e-05
-5.93023e-05
-5.79436e-05
-5.91768e-05
-6.29155e-05
-6.84419e-05
-7.49396e-05
-8.19687e-05
-8.9651e-05
-9.82087e-05
-0.000107507
-0.000116743
-0.000125415
-0.000132484
-0.000137482
-0.000139042
-0.000135981
-0.000125214
-0.000106152
-8.04011e-05
-5.00662e-05
-1.90675e-05
0.00330863
0.00183496
0.000436718
-7.76864e-05
-0.000111352
-7.39002e-05
-6.21328e-05
-6.29547e-05
-6.50003e-05
-6.63842e-05
-6.67572e-05
-6.56464e-05
-6.30516e-05
-5.97078e-05
-5.6886e-05
-5.58374e-05
-5.7327e-05
-6.12897e-05
-6.70159e-05
-7.36902e-05
-8.08739e-05
-8.86917e-05
-9.73717e-05
-0.000106782
-0.000116122
-0.000124887
-0.000132044
-0.000137124
-0.000138764
-0.000135783
-0.000125088
-0.000106078
-8.03609e-05
-5.00394e-05
-1.90514e-05
0.00292067
0.00184908
0.0006088
3.23113e-05
-5.69428e-05
-3.76195e-05
-3.58849e-05
-4.53063e-05
-5.29341e-05
-5.75318e-05
-5.99905e-05
-6.03874e-05
-5.88944e-05
-5.63429e-05
-5.40894e-05
-5.34576e-05
-5.527e-05
-5.94984e-05
-6.54516e-05
-7.23215e-05
-7.96744e-05
-8.76414e-05
-9.64572e-05
-0.000105994
-0.000115446
-0.000124314
-0.000131565
-0.000136734
-0.000138462
-0.000135567
-0.00012495
-0.000105994
-8.03133e-05
-5.00113e-05
-1.90386e-05
0.00260727
0.00182963
0.000768093
0.000157494
8.11238e-06
6.07588e-06
-1.29234e-06
-2.02535e-05
-3.55011e-05
-4.48018e-05
-5.02512e-05
-5.28326e-05
-5.30182e-05
-5.17304e-05
-5.03972e-05
-5.04208e-05
-5.27051e-05
-5.72893e-05
-6.35263e-05
-7.06338e-05
-7.81922e-05
-8.63428e-05
-9.53257e-05
-0.000105015
-0.000114604
-0.000123594
-0.000130956
-0.000136228
-0.000138057
-0.000135266
-0.000124744
-0.000105862
-8.02347e-05
-4.99711e-05
-1.90252e-05
0.00234413
0.00177122
0.000894571
0.000284958
7.90887e-05
5.20093e-05
3.75303e-05
1.08294e-05
-1.26077e-05
-2.77443e-05
-3.7e-05
-4.23903e-05
-4.4839e-05
-4.53537e-05
-4.53867e-05
-4.63944e-05
-4.93683e-05
-5.44419e-05
-6.10453e-05
-6.84477e-05
-7.62606e-05
-8.46402e-05
-9.38318e-05
-0.000103712
-0.000113468
-0.000122608
-0.000130102
-0.000135497
-0.000137446
-0.000134781
-0.000124387
-0.000105619
-8.00863e-05
-4.98998e-05
-1.90042e-05
0.0021233
0.00168778
0.000984177
0.000407361
0.000155034
9.82336e-05
7.66445e-05
4.49579e-05
1.4257e-05
-7.14944e-06
-2.07065e-05
-2.92542e-05
-3.4327e-05
-3.70507e-05
-3.88424e-05
-4.11585e-05
-4.50584e-05
-5.0779e-05
-5.78508e-05
-6.56169e-05
-7.37373e-05
-8.23907e-05
-9.18282e-05
-0.000101932
-0.000111888
-0.000121207
-0.000128859
-0.000134397
-0.000136486
-0.000133978
-0.000123762
-0.000105174
-7.98083e-05
-4.97645e-05
-1.89615e-05
0.00193834
0.0015949
0.00103937
0.000518492
0.000235397
0.000145658
0.000114421
7.97677e-05
4.35493e-05
1.5991e-05
-2.2084e-06
-1.41117e-05
-2.19428e-05
-2.70596e-05
-3.08373e-05
-3.46842e-05
-3.96965e-05
-4.62061e-05
-5.38507e-05
-6.20559e-05
-7.05397e-05
-7.95051e-05
-8.92097e-05
-9.95499e-05
-0.000109723
-0.00011924
-0.00012707
-0.000132769
-0.000135017
-0.000132696
-0.000122723
-0.000104413
-7.93198e-05
-4.95163e-05
-1.88725e-05
0.00178199
0.00150266
0.0010653
0.000612538
0.000317387
0.000195588
0.000150844
0.000113735
7.40145e-05
4.09897e-05
1.79308e-05
2.44259e-06
-8.22514e-06
-1.57871e-05
-2.16381e-05
-2.71257e-05
-3.33591e-05
-4.07542e-05
-4.90545e-05
-5.77665e-05
-6.66679e-05
-7.59792e-05
-8.59572e-05
-9.65195e-05
-0.000106895
-0.000116607
-0.000124618
-0.000130483
-0.000132898
-0.00013079
-0.000121134
-0.000103215
-7.85313e-05
-4.90956e-05
-1.87034e-05
0.00164778
0.00141593
0.00106889
0.000685937
0.000396471
0.000248422
0.000186868
0.000146133
0.000104562
6.72954e-05
3.94553e-05
2.01282e-05
6.49205e-06
-3.54651e-06
-1.14989e-05
-1.86788e-05
-2.6197e-05
-3.45406e-05
-4.35549e-05
-5.28245e-05
-6.21893e-05
-7.18782e-05
-8.21335e-05
-9.28887e-05
-0.000103429
-0.000113299
-0.000121472
-0.000127487
-0.000130065
-0.00012818
-0.000118908
-0.000101496
-7.7371e-05
-4.8448e-05
-1.84191e-05
0.00153082
0.00133635
0.00105726
0.000738367
0.000468044
0.00030319
0.000223716
0.000177065
0.000134344
9.42987e-05
6.21912e-05
3.88802e-05
2.20867e-05
9.50325e-06
-5.69775e-07
-9.47448e-06
-1.83301e-05
-2.7679e-05
-3.74575e-05
-4.73247e-05
-5.71891e-05
-6.72856e-05
-7.78302e-05
-8.87559e-05
-9.94177e-05
-0.000109395
-0.000117693
-0.000123825
-0.000126551
-0.000124883
-0.000116043
-9.92356e-05
-7.58108e-05
-4.75451e-05
-1.79975e-05
0.0014277
0.00126377
0.00103624
0.000772132
0.000528742
0.000357629
0.000262075
0.000207238
0.000162923
0.00012133
8.58586e-05
5.86791e-05
3.8556e-05
2.33118e-05
1.10829e-05
4.28015e-07
-9.81324e-06
-2.0229e-05
-3.0827e-05
-4.13323e-05
-5.17271e-05
-6.22587e-05
-7.3113e-05
-8.4206e-05
-9.49665e-05
-0.00010501
-0.000113395
-0.000119609
-0.000122464
-0.000120998
-0.000112624
-9.6489e-05
-7.38776e-05
-4.63958e-05
-1.74422e-05
0.00133595
0.00119741
0.00100986
0.000790826
0.000576963
0.000408881
0.000301645
0.000237481
0.000190339
0.000147809
0.000110022
7.94189e-05
5.59236e-05
3.78873e-05
2.34407e-05
1.10101e-05
-6.56474e-07
-1.22e-05
-2.36785e-05
-3.48677e-05
-4.58251e-05
-5.68186e-05
-6.80066e-05
-7.92798e-05
-9.01396e-05
-0.000100231
-0.000108685
-0.000114956
-0.000117931
-0.000116657
-0.00010877
-9.33518e-05
-7.16352e-05
-4.50397e-05
-1.67823e-05
0.00125375
0.00113643
0.0009806
0.000798121
0.000612842
0.000454418
0.000341156
0.000268231
0.000216982
0.000173412
0.000134181
0.00010085
7.41612e-05
5.32552e-05
3.65106e-05
2.22696e-05
9.14592e-06
-3.57759e-06
-1.59959e-05
-2.79185e-05
-3.9474e-05
-5.09591e-05
-6.25063e-05
-7.39813e-05
-8.49572e-05
-9.51033e-05
-0.000103626
-0.000109949
-0.000113048
-0.00011197
-0.000104587
-8.99172e-05
-6.91513e-05
-4.35253e-05
-1.60568e-05
0.00117968
0.00108015
0.000949916
0.000797094
0.000637658
0.000492595
0.000378807
0.000299274
0.000243279
0.000198115
0.000157913
0.000122607
9.31357e-05
6.94119e-05
5.03059e-05
3.42093e-05
1.95979e-05
5.65258e-06
-7.75588e-06
-2.04589e-05
-3.26496e-05
-4.46592e-05
-5.65932e-05
-6.82967e-05
-7.94129e-05
-8.96346e-05
-9.82399e-05
-0.000104628
-0.000107865
-0.000106998
-0.000100138
-8.62471e-05
-6.64733e-05
-4.18896e-05
-1.52981e-05
0.00111265
0.00102809
0.000918712
0.000790074
0.000653164
0.000522803
0.000412866
0.000329792
0.000269395
0.000222084
0.000180969
0.000144294
0.000112596
8.62815e-05
6.48184e-05
4.68281e-05
3.06977e-05
1.54949e-05
1.05726e-06
-1.2464e-05
-2.53249e-05
-3.78935e-05
-5.02446e-05
-6.22058e-05
-7.34895e-05
-8.38137e-05
-9.25234e-05
-9.89979e-05
-0.000102393
-0.000101764
-9.54482e-05
-8.23697e-05
-6.3624e-05
-4.01521e-05
-1.45243e-05
0.00105181
0.000979878
0.000887583
0.000778756
0.000661114
0.000545277
0.000442074
0.000358654
0.000295113
0.00024548
0.000203277
0.00016558
0.000132217
0.000103698
7.99936e-05
6.0106e-05
4.24358e-05
2.59443e-05
1.04462e-05
-3.91916e-06
-1.74774e-05
-3.0638e-05
-4.34383e-05
-5.56876e-05
-6.71669e-05
-7.76226e-05
-8.64602e-05
-9.30474e-05
-9.66264e-05
-9.62679e-05
-9.05194e-05
-7.82919e-05
-6.06103e-05
-3.83184e-05
-1.37423e-05
0.000996375
0.00093517
0.000856931
0.000764366
0.000663033
0.000560726
0.000465782
0.000384754
0.000319887
0.000268298
0.000224861
0.000186253
0.000151668
0.000121419
9.57219e-05
7.39911e-05
5.47852e-05
3.69891e-05
2.04034e-05
5.17701e-06
-9.09367e-06
-2.28733e-05
-3.61552e-05
-4.8723e-05
-6.04255e-05
-7.10425e-05
-8.00331e-05
-8.67618e-05
-9.05528e-05
-9.05036e-05
-8.53479e-05
-7.40123e-05
-5.7433e-05
-3.63876e-05
-1.29528e-05
0.000945544
0.000893601
0.000827019
0.000747814
0.000660174
0.000570022
0.000483857
0.000407214
0.000342975
0.000290306
0.000245721
0.000206208
0.000170671
0.000139164
0.000111844
8.84021e-05
6.76927e-05
4.86054e-05
3.09172e-05
1.48147e-05
-1.72792e-07
-1.45871e-05
-2.83804e-05
-4.12969e-05
-5.32486e-05
-6.4057e-05
-7.32282e-05
-8.01299e-05
-8.41625e-05
-8.44641e-05
-7.993e-05
-6.95288e-05
-5.40929e-05
-3.43578e-05
-1.21545e-05
0.000898486
0.000854734
0.000797989
0.000729827
0.000653599
0.000574078
0.000496517
0.000425467
0.000363614
0.00031108
0.000265759
0.000225387
0.000189021
0.000156629
0.000128143
0.00010323
8.10752e-05
6.07394e-05
4.19688e-05
2.49799e-05
9.27428e-06
-5.77768e-06
-2.0105e-05
-3.34005e-05
-4.56256e-05
-5.66534e-05
-6.60358e-05
-7.31458e-05
-7.74518e-05
-7.81472e-05
-7.42661e-05
-6.48405e-05
-5.05917e-05
-3.22278e-05
-1.13457e-05
0.000854332
0.000817971
0.000769791
0.000710948
0.000644252
0.000573832
0.000504229
0.000439278
0.000381151
0.000330093
0.00028477
0.000243737
0.000206586
0.000173535
0.000144342
0.000118334
9.4839e-05
7.32957e-05
5.35088e-05
3.56537e-05
1.92283e-05
3.54313e-06
-1.13289e-05
-2.503e-05
-3.7553e-05
-4.88257e-05
-5.84497e-05
-6.58071e-05
-7.0422e-05
-7.15558e-05
-6.83614e-05
-5.99509e-05
-4.69331e-05
-2.99966e-05
-1.05234e-05
0.000812191
0.000782501
0.000742072
0.000691456
0.000632924
0.000570227
0.00050764
0.000448691
0.000395108
0.000346769
0.00030243
0.000261167
0.0002233
0.000189669
0.000160135
0.000133525
0.000108909
8.61714e-05
6.54408e-05
4.67987e-05
2.96674e-05
1.33494e-05
-2.06767e-06
-1.619e-05
-2.90343e-05
-4.05763e-05
-5.04689e-05
-5.81135e-05
-6.30765e-05
-6.46948e-05
-6.22247e-05
-5.48677e-05
-4.31261e-05
-2.76666e-05
-9.68368e-06
0.000771367
0.000747429
0.000714205
0.000671303
0.000620177
0.000564161
0.000507547
0.000454025
0.000405231
0.000360556
0.000318294
0.00027751
0.000239125
0.000204899
0.000175211
0.000148513
0.000123188
9.92939e-05
7.76295e-05
5.83316e-05
4.05681e-05
2.3613e-05
7.64568e-06
-6.89833e-06
-2.00803e-05
-3.19186e-05
-4.21035e-05
-5.00708e-05
-5.54231e-05
-5.75707e-05
-5.58634e-05
-4.95975e-05
-3.91793e-05
-2.52455e-05
-8.82596e-06
0.000731709
0.000712126
0.0006855
0.000650154
0.000606241
0.000556349
0.000504816
0.000455869
0.000411555
0.000371026
0.000331839
0.000292477
0.000254015
0.000219185
0.00018933
0.00016293
0.000137481
0.000112625
8.99469e-05
7.00986e-05
5.18732e-05
3.43076e-05
1.77652e-05
2.80889e-06
-1.0709e-05
-2.28734e-05
-3.33773e-05
-4.1696e-05
-4.7479e-05
-5.02005e-05
-4.92895e-05
-4.41471e-05
-3.50955e-05
-2.2736e-05
-7.95291e-06
0.000693759
0.000676571
0.000655533
0.000627543
0.00059098
0.000547174
0.00050022
0.000455001
0.000414445
0.000377983
0.000342544
0.00030563
0.000267838
0.000232555
0.000202402
0.000176439
0.000151471
0.000126111
0.000102349
8.19201e-05
6.34646e-05
4.54032e-05
2.82449e-05
1.28735e-05
-9.53512e-07
-1.34655e-05
-2.43224e-05
-3.30172e-05
-3.92689e-05
-4.26139e-05
-4.25319e-05
-3.85353e-05
-3.08852e-05
-2.01354e-05
-7.05708e-06
0.000658514
0.000641469
0.000624444
0.000603159
0.000574018
0.000536604
0.000494239
0.000452222
0.000414572
0.000381592
0.000350061
0.000316441
0.000280298
0.00024502
0.000214468
0.000188825
0.000164735
0.000139552
0.000114847
9.36592e-05
7.51456e-05
5.68297e-05
3.90512e-05
2.32299e-05
9.13413e-06
-3.72123e-06
-1.49702e-05
-2.40658e-05
-3.08165e-05
-3.48366e-05
-3.56285e-05
-3.27963e-05
-2.65789e-05
-1.74614e-05
-6.12605e-06
0.000626941
0.000608109
0.000593144
0.000577218
0.000555057
0.000524295
0.000486926
0.000448092
0.00041273
0.000382378
0.000354347
0.000324417
0.000290894
0.000256432
0.000225628
0.000200073
0.000176909
0.000152563
0.000127415
0.000105302
8.66946e-05
6.84274e-05
5.01381e-05
3.38114e-05
1.94668e-05
6.30834e-06
-5.35781e-06
-1.48834e-05
-2.21492e-05
-2.6882e-05
-2.85979e-05
-2.69578e-05
-2.22014e-05
-1.47503e-05
-5.18125e-06
0.000599385
0.000577935
0.000563201
0.000550689
0.000534256
0.000509887
0.00047794
0.000442726
0.000409529
0.000381059
0.000355714
0.000329284
0.000299029
0.000266401
0.000235888
0.000210306
0.000187819
0.000164658
0.000139841
0.000116937
9.79914e-05
7.99665e-05
6.14308e-05
4.45813e-05
2.99517e-05
1.65403e-05
4.46917e-06
-5.52344e-06
-1.3313e-05
-1.87695e-05
-2.14405e-05
-2.10212e-05
-1.77414e-05
-1.20004e-05
-4.26454e-06
0.000575018
0.000551687
0.00053613
0.000524988
0.000512353
0.000493365
0.000466887
0.000435888
0.000405235
0.000378317
0.000354787
0.000331175
0.000304291
0.000274367
0.000245008
0.000219585
0.000197468
0.00017541
0.000151613
0.000128505
0.000109014
9.11682e-05
7.27414e-05
5.54976e-05
4.05111e-05
2.68667e-05
1.44416e-05
3.95353e-06
-4.38976e-06
-1.05618e-05
-1.41957e-05
-1.50048e-05
-1.31962e-05
-9.16444e-06
-3.31648e-06
0.000552296
0.000528909
0.000512495
0.000501253
0.000490436
0.000475312
0.000453778
0.000427325
0.000399766
0.000374506
0.000352208
0.00033058
0.00030668
0.000279871
0.000252528
0.000227755
0.000205906
0.000184681
0.000162182
0.000139629
0.000119724
0.000101803
8.37151e-05
6.63694e-05
5.10106e-05
3.71188e-05
2.44147e-05
1.34522e-05
4.51568e-06
-2.36973e-06
-6.96341e-06
-9.00248e-06
-8.65338e-06
-6.28787e-06
-2.27061e-06
0.000500981
0.000480701
0.00046348
0.000450847
0.000441579
0.000432574
0.00042065
0.000404337
0.00038455
0.000363745
0.000344073
0.000325898
0.000307741
0.000287879
0.000266072
0.000243895
0.000223025
0.000203472
0.000183908
0.000163604
0.000143703
0.000125465
0.000108183
9.11851e-05
7.52018e-05
6.06983e-05
4.74372e-05
3.54832e-05
2.51524e-05
1.65758e-05
9.76018e-06
4.83983e-06
1.78146e-06
2.9016e-07
1.91508e-08
0.000433462
0.000423061
0.000411497
0.00040077
0.000391861
0.000384256
0.000376361
0.00036655
0.000354178
0.000339924
0.000325169
0.000310907
0.000296994
0.000282424
0.000266378
0.000249109
0.000231697
0.000214875
0.00019833
0.000181337
0.000163976
0.00014716
0.000131145
0.000115462
0.000100163
8.5695e-05
7.21487e-05
5.94898e-05
4.78652e-05
3.74139e-05
2.81429e-05
2.0055e-05
1.31601e-05
7.28594e-06
2.27238e-06
0.000376356
0.000370904
0.00036418
0.000356946
0.000349841
0.000343026
0.000336145
0.000328595
0.000319934
0.000310148
0.000299601
0.000288712
0.000277619
0.00026611
0.000253872
0.000240854
0.000227339
0.00021367
0.000199908
0.000185884
0.000171548
0.000157155
0.000142945
0.000128888
0.00011496
0.000101333
8.81498e-05
7.54615e-05
6.33333e-05
5.18504e-05
4.10464e-05
3.09156e-05
2.14664e-05
1.26332e-05
4.26656e-06
0.000328962
0.000325171
0.000320808
0.000315913
0.000310617
0.000305057
0.000299278
0.00029321
0.000286705
0.000279636
0.000271968
0.00026377
0.000255145
0.000246139
0.000236711
0.000226785
0.000216352
0.00020549
0.000194298
0.000182811
0.000171005
0.000158904
0.000146618
0.000134232
0.000121776
0.000109306
9.69192e-05
8.46852e-05
7.26559e-05
6.08728e-05
4.93705e-05
3.81376e-05
2.71478e-05
1.63186e-05
5.50497e-06
0.000288594
0.000285483
0.000282125
0.000278459
0.000274476
0.000270208
0.000265685
0.000260906
0.000255828
0.000250386
0.000244535
0.000238273
0.000231626
0.000224614
0.000217223
0.000209413
0.00020116
0.000192479
0.00018341
0.000173974
0.00016417
0.000154006
0.000143528
0.000132788
0.000121822
0.000110656
9.93402e-05
8.79137e-05
7.64137e-05
6.48565e-05
5.32632e-05
4.16146e-05
2.9893e-05
1.80489e-05
6.05169e-06
0.000252577
0.000250016
0.000247322
0.000244453
0.000241375
0.000238069
0.000234526
0.000230741
0.000226706
0.000222401
0.000217809
0.00021291
0.000207691
0.000202138
0.00019624
0.000189979
0.000183343
0.000176326
0.000168928
0.000161153
0.000153005
0.000144488
0.000135616
0.000126402
0.000116862
0.000107008
9.68621e-05
8.64395e-05
7.57625e-05
6.48358e-05
5.3669e-05
4.22467e-05
3.05603e-05
1.85792e-05
6.27293e-06
0.000219853
0.000217793
0.00021563
0.000213335
0.000210884
0.000208255
0.000205437
0.00020242
0.000199199
0.00019576
0.000192089
0.000188166
0.000183978
0.000179507
0.000174742
0.000169667
0.000164271
0.000158544
0.000152478
0.000146064
0.000139299
0.000132174
0.000124687
0.000116832
0.000108613
0.000100025
9.1078e-05
8.17689e-05
7.21053e-05
6.20789e-05
5.16909e-05
4.0922e-05
2.97625e-05
1.81809e-05
6.147e-06
0.000190021
0.000188368
0.000186624
0.000184774
0.000182798
0.000180683
0.000178416
0.000175988
0.00017339
0.000170612
0.000167642
0.000164466
0.000161073
0.000157447
0.000153578
0.000149448
0.000145046
0.000140358
0.000135372
0.000130073
0.000124449
0.000118486
0.000112175
0.000105503
9.8463e-05
9.10432e-05
8.32408e-05
7.50429e-05
6.64471e-05
5.7438e-05
4.80112e-05
3.81456e-05
2.78322e-05
1.70454e-05
5.7671e-06
0.000163042
0.000161713
0.000160307
0.00015881
0.00015721
0.000155496
0.00015366
0.000151693
0.000149589
0.000147336
0.000144927
0.000142348
0.000139589
0.000136637
0.000133481
0.000130103
0.000126491
0.00012263
0.000118506
0.000114103
0.000109408
0.000104407
9.90883e-05
9.34332e-05
8.74315e-05
8.10658e-05
7.43277e-05
6.71992e-05
5.96722e-05
5.17275e-05
4.33566e-05
3.45382e-05
2.52623e-05
1.55066e-05
5.25398e-06
0.000139058
0.000137983
0.000136844
0.000135627
0.000134326
0.00013293
0.000131435
0.000129832
0.000128117
0.00012628
0.000124312
0.000122202
0.000119941
0.000117518
0.000114921
0.000112137
0.000109155
0.000105958
0.000102536
9.88704e-05
9.49507e-05
9.07598e-05
8.62858e-05
8.15096e-05
7.64187e-05
7.09939e-05
6.52239e-05
5.90887e-05
5.25773e-05
4.56692e-05
3.83538e-05
3.06103e-05
2.24287e-05
1.3789e-05
4.676e-06
0.000118223
0.000117346
0.000116414
0.000115418
0.00011435
0.000113204
0.000111976
0.000110659
0.000109249
0.000107737
0.000106117
0.000104376
0.00010251
0.000100506
9.83578e-05
9.60511e-05
9.35767e-05
9.09204e-05
8.80715e-05
8.50138e-05
8.17363e-05
7.82223e-05
7.44595e-05
7.04291e-05
6.61183e-05
6.15082e-05
5.65873e-05
5.13361e-05
4.57427e-05
3.97873e-05
3.34589e-05
2.67382e-05
1.96153e-05
1.20728e-05
4.09705e-06
0.000100755
0.000100031
9.92599e-05
9.84334e-05
9.7547e-05
9.65951e-05
9.55745e-05
9.44799e-05
9.33075e-05
9.20498e-05
9.07005e-05
8.92505e-05
8.76936e-05
8.60208e-05
8.42249e-05
8.22948e-05
8.02219e-05
7.79936e-05
7.56002e-05
7.30274e-05
7.0265e-05
6.72981e-05
6.41151e-05
6.06988e-05
5.70367e-05
5.3111e-05
4.89101e-05
4.44154e-05
3.96154e-05
3.44917e-05
2.90336e-05
2.32237e-05
1.70527e-05
1.05047e-05
3.56721e-06
8.6928e-05
8.63178e-05
8.56657e-05
8.49661e-05
8.42151e-05
8.34082e-05
8.25429e-05
8.16149e-05
8.06206e-05
7.95535e-05
7.84081e-05
7.71762e-05
7.58526e-05
7.44293e-05
7.29e-05
7.12551e-05
6.94871e-05
6.75847e-05
6.55394e-05
6.33383e-05
6.09726e-05
5.84286e-05
5.56961e-05
5.27593e-05
4.96067e-05
4.62219e-05
4.25942e-05
3.87063e-05
3.45474e-05
3.01003e-05
2.5355e-05
2.02954e-05
1.49126e-05
9.19255e-06
3.12356e-06
7.70935e-05
7.65607e-05
7.59902e-05
7.53772e-05
7.47186e-05
7.40109e-05
7.3252e-05
7.24381e-05
7.1566e-05
7.06298e-05
6.96245e-05
6.85429e-05
6.738e-05
6.61289e-05
6.4784e-05
6.33367e-05
6.17802e-05
6.01044e-05
5.83015e-05
5.63601e-05
5.42718e-05
5.20244e-05
4.96087e-05
4.70101e-05
4.42181e-05
4.12176e-05
3.79986e-05
3.45452e-05
3.08472e-05
2.68887e-05
2.26601e-05
1.81464e-05
1.33393e-05
8.22585e-06
2.79558e-06
7.17777e-05
7.12862e-05
7.07588e-05
7.01913e-05
6.95814e-05
6.89258e-05
6.82231e-05
6.74695e-05
6.66623e-05
6.57957e-05
6.48649e-05
6.3863e-05
6.27857e-05
6.16263e-05
6.03797e-05
5.90378e-05
5.75943e-05
5.60396e-05
5.43665e-05
5.25641e-05
5.06247e-05
4.85367e-05
4.62914e-05
4.38751e-05
4.12779e-05
3.84853e-05
3.54878e-05
3.22705e-05
2.88235e-05
2.51318e-05
2.11858e-05
1.69714e-05
1.24802e-05
7.69943e-06
2.61847e-06
0.00057583
0.000781284
0.000705991
0.000855292
0.000740395
0.000933446
0.000883313
0.00102932
0.00103611
0.00118113
0.00120743
0.00138263
0.00143176
0.00164878
0.00173725
0.00202242
0.00219465
0.00263717
0.00302903
0.00384976
0.000575937
0.00078096
0.000706704
0.00085414
0.000741619
0.00093218
0.000884138
0.00102808
0.00103667
0.00117908
0.00120783
0.00137847
0.00143181
0.00164066
0.00173721
0.00200671
0.00219319
0.0025939
0.00297784
0.00353084
0.000576153
0.000780309
0.000708008
0.000852033
0.000743943
0.000929466
0.000886087
0.00102528
0.00103825
0.00117476
0.0012095
0.0013704
0.0014345
0.00162438
0.00173978
0.00197516
0.00218734
0.00251208
0.00286531
0.00316827
0.000576458
0.000779631
0.000709528
0.000849875
0.000746611
0.000926456
0.00088844
0.0010219
0.00104024
0.0011694
0.00121162
0.00136029
0.0014368
0.00160485
0.00173932
0.00193933
0.00216454
0.00241691
0.00271011
0.00286511
0.000576956
0.000778953
0.000711328
0.000847755
0.000749665
0.00092325
0.000891068
0.0010179
0.00104244
0.00116288
0.0012138
0.00134801
0.00143769
0.00158294
0.00173236
0.00190162
0.0021211
0.00231573
0.00253815
0.00261963
0.000577749
0.000778191
0.000713505
0.000845505
0.00075322
0.000919525
0.000893953
0.00101293
0.00104473
0.00115489
0.00121542
0.00133374
0.00143579
0.00156129
0.00171639
0.0018622
0.00205886
0.00221072
0.00236573
0.0024074
0.000578872
0.000777234
0.000716085
0.000842943
0.000757237
0.000914998
0.000897038
0.00100681
0.00104694
0.00114562
0.00121578
0.00131941
0.00142939
0.00154029
0.00169039
0.00181962
0.00198319
0.00210219
0.00220081
0.00221541
0.000580294
0.000775968
0.000719066
0.000839899
0.000761638
0.00090952
0.000900268
0.000999605
0.00104873
0.00113578
0.00121384
0.00130589
0.00141733
0.00151912
0.00165555
0.00177167
0.00190011
0.00199087
0.0020469
0.00204082
0.000581955
0.000774288
0.000722458
0.000836249
0.000766386
0.000903071
0.000903545
0.000991594
0.00104957
0.00112616
0.00120866
0.00129301
0.00139971
0.0014957
0.0016143
0.00171703
0.00181389
0.00187884
0.00190506
0.00188377
0.000583804
0.000772101
0.000726286
0.000831937
0.000771441
0.000895744
0.000906669
0.000983233
0.00104873
0.00111718
0.00119978
0.00127973
0.00137771
0.00146816
0.00156852
0.00165588
0.00172673
0.00176882
0.00177495
0.00174379
0.000585838
0.000769308
0.000730566
0.000826975
0.000776704
0.000887719
0.000909152
0.000975043
0.00104558
0.00110875
0.00118751
0.00126459
0.0013525
0.00143559
0.00151903
0.0015898
0.00163981
0.00166303
0.00165576
0.00161925
0.000588102
0.000765782
0.000735274
0.000821445
0.00078197
0.000879275
0.000910437
0.000967407
0.00103981
0.00110016
0.00117264
0.00124643
0.00132447
0.00139803
0.00146619
0.00152076
0.00155401
0.00156276
0.00154664
0.00150802
0.000590685
0.000761367
0.000740311
0.000815505
0.000786902
0.000870807
0.000910029
0.00096041
0.00103156
0.00109048
0.00115579
0.00122469
0.00129346
0.00135624
0.00141046
0.00145037
0.0014702
0.00146847
0.00144677
0.00140815
0.000593704
0.000755903
0.000745461
0.000809413
0.000791059
0.000862707
0.000907615
0.000953673
0.00102128
0.00107895
0.0011371
0.00119922
0.00125913
0.00131108
0.0013526
0.00137986
0.00138914
0.00138015
0.00135533
0.00131808
0.000597274
0.00074926
0.000750384
0.000803525
0.000794003
0.000855212
0.000903188
0.000946537
0.00100935
0.00106508
0.00111641
0.00117032
0.00122139
0.00126323
0.00129355
0.00131024
0.00131146
0.00129767
0.00127157
0.00123654
0.00060148
0.000741375
0.000754588
0.000798244
0.000795461
0.000848289
0.000897051
0.000938438
0.000995845
0.00104857
0.00109347
0.00113842
0.00118049
0.00121322
0.00123411
0.00124234
0.00123757
0.00122083
0.00119478
0.00116255
0.000606394
0.000732268
0.00075737
0.000793908
0.000795433
0.00084149
0.000889465
0.000929026
0.000980686
0.00102931
0.00106806
0.00110403
0.00113707
0.00116164
0.0011749
0.00117668
0.00116768
0.00114939
0.00112431
0.00109523
0.000612054
0.00072232
0.000758228
0.00079066
0.000794368
0.000834319
0.000880427
0.000918011
0.000963698
0.00100725
0.00104009
0.00106763
0.00109202
0.00110932
0.00111654
0.00111362
0.00110179
0.00108292
0.00105943
0.00103373
0.000618371
0.000712
0.000755766
0.000787917
0.000793029
0.000826724
0.000869907
0.000905181
0.000944696
0.000982342
0.00100948
0.00102964
0.00104628
0.00105725
0.00105974
0.00105345
0.0010398
0.00102098
0.000999394
0.000977169
0.000625111
0.000701921
0.000749814
0.000784551
0.000791531
0.000819022
0.000858024
0.000890404
0.000923558
0.000954581
0.000976157
0.000990257
0.0010006
0.00100643
0.00100535
0.00099668
0.000981805
0.000963219
0.000943516
0.000924684
0.000631869
0.000692638
0.000740631
0.000779376
0.000789616
0.000811435
0.000845105
0.000873742
0.000900362
0.000924186
0.000940126
0.000949382
0.000955235
0.000957625
0.000954234
0.000943975
0.000928146
0.0009096
0.000891353
0.000875524
0.000638077
0.000684543
0.000729327
0.000771475
0.000786137
0.0008038
0.000831544
0.000855624
0.000875516
0.000891676
0.000901638
0.00090694
0.000910224
0.000911108
0.000906913
0.000895979
0.000879405
0.000860451
0.000842831
0.000829153
0.000643175
0.000677907
0.00071724
0.000760296
0.000779744
0.00079526
0.00081735
0.000836705
0.000849892
0.000858
0.000861424
0.000862976
0.0008651
0.000866446
0.000863302
0.000853015
0.000836205
0.000816453
0.000798368
0.000785461
0.000646773
0.000672557
0.000705276
0.000746205
0.000769637
0.000784505
0.000802201
0.000817248
0.000824616
0.000824715
0.000820875
0.000817901
0.000819134
0.00082242
0.000822401
0.000814685
0.000798814
0.00077835
0.000758804
0.000744929
0.00064863
0.00066778
0.000693833
0.000730406
0.000755472
0.000770407
0.000785046
0.00079696
0.000800204
0.000793581
0.000782039
0.000773229
0.000772328
0.000777685
0.000782356
0.000779469
0.000766513
0.000746296
0.00072491
0.000708445
0.000648606
0.000662837
0.000683066
0.000713956
0.000738065
0.00075255
0.000764802
0.000774918
0.000776133
0.000765224
0.000746937
0.00073132
0.000726325
0.000732156
0.000741459
0.000744947
0.000737199
0.000719135
0.0006966
0.00067669
0.00064673
0.000657117
0.00067219
0.00069728
0.000718744
0.000731376
0.000741389
0.000750051
0.000751297
0.000738838
0.000716142
0.000694234
0.000683795
0.000687651
0.000699597
0.00070913
0.000707983
0.000694273
0.000672377
0.000649492
0.000642817
0.000650379
0.000660699
0.000680226
0.000698366
0.000708327
0.000715422
0.000722345
0.000724173
0.000712932
0.000688784
0.000662547
0.000646702
0.000646666
0.000658359
0.000671659
0.00067661
0.00066855
0.000649453
0.00062543
0.000636753
0.000642281
0.00064868
0.000662367
0.000676773
0.00068432
0.000688319
0.000692829
0.00069441
0.0006855
0.000663302
0.000635781
0.000615772
0.000611014
0.000619816
0.000633578
0.000642247
0.00063941
0.000624597
0.00060201
0.00062852
0.00063243
0.000635795
0.000644051
0.000654123
0.000659364
0.000660902
0.000662584
0.000663154
0.000656111
0.000637783
0.000612514
0.000590878
0.000581579
0.000585575
0.000596629
0.000605902
0.00060653
0.000596264
0.000577269
0.000604084
0.000604657
0.000602162
0.000599677
0.000599621
0.000599061
0.000595527
0.00059116
0.000588341
0.000584981
0.000576208
0.000560029
0.000539972
0.000522949
0.000514499
0.000515416
0.00052171
0.000527201
0.000526642
0.000517725
0.000549936
0.00054745
0.000541625
0.000534121
0.000527366
0.000521355
0.000514762
0.000508066
0.000503022
0.000499936
0.000496277
0.000488888
0.000476965
0.000462859
0.000450432
0.000442601
0.000439835
0.000440265
0.000440918
0.00043923
0.000490332
0.000486962
0.00048094
0.000473336
0.000465365
0.000457779
0.000450581
0.00044373
0.000437558
0.00043229
0.000427388
0.000421712
0.000414525
0.000406195
0.000397944
0.00039105
0.000386173
0.000383138
0.000381184
0.000379409
0.000431309
0.000428114
0.000422728
0.000415984
0.000408575
0.00040117
0.000394049
0.000387217
0.000380745
0.000374826
0.000369553
0.000364761
0.000360116
0.000355363
0.00035049
0.000345711
0.000341317
0.000337523
0.000334392
0.00033184
0.000375416
0.000372675
0.000368169
0.000362501
0.00035621
0.00034973
0.00034335
0.000337242
0.000331552
0.000326397
0.000321807
0.000317691
0.000313872
0.000310173
0.000306504
0.000302894
0.000299454
0.000296312
0.000293551
0.000291189
0.000324106
0.000321854
0.000318156
0.000313552
0.000308451
0.000303164
0.000297928
0.0002929
0.000288176
0.000283802
0.00027978
0.000276084
0.000272671
0.000269497
0.000266527
0.000263748
0.000261167
0.000258797
0.000256651
0.000254734
0.000277887
0.000276074
0.000273107
0.000269425
0.000265355
0.000261127
0.00025691
0.000252815
0.000248915
0.000245256
0.000241859
0.000238731
0.000235864
0.000233243
0.000230842
0.00022864
0.000226621
0.000224774
0.000223095
0.000221578
0.000236782
0.000235333
0.000232964
0.000230027
0.000226776
0.000223392
0.000220006
0.000216709
0.00021356
0.000210597
0.000207836
0.000205283
0.000202938
0.000200792
0.000198833
0.000197047
0.000195421
0.000193944
0.000192606
0.000191399
0.000200663
0.000199506
0.000197613
0.000195267
0.00019267
0.000189965
0.000187257
0.000184617
0.000182093
0.00017971
0.000177482
0.000175414
0.000173507
0.000171758
0.00017016
0.000168705
0.000167384
0.00016619
0.000165113
0.000164145
0.00016939
0.000168462
0.000166944
0.000165063
0.00016298
0.000160809
0.000158634
0.000156513
0.000154482
0.000152562
0.000150763
0.00014909
0.000147543
0.000146122
0.000144822
0.000143639
0.000142566
0.000141597
0.000140726
0.000139946
0.000142853
0.000142104
0.000140876
0.000139354
0.000137669
0.000135911
0.00013415
0.000132432
0.000130786
0.000129229
0.000127769
0.000126408
0.000125147
0.000123988
0.000122926
0.000121959
0.000121082
0.000120291
0.000119581
0.000118946
0.00012102
0.000120405
0.000119398
0.00011815
0.000116767
0.000115324
0.000113879
0.000112468
0.000111117
0.000109837
0.000108635
0.000107514
0.000106475
0.000105517
0.000104639
0.000103839
0.000103114
0.00010246
0.000101874
0.000101351
0.000103971
0.000103455
0.00010261
0.000101562