/*--------------------------------*- C++ -*----------------------------------*\
| =========                 |                                                 |
| \\      /  F ield         | OpenFOAM: The Open Source CFD Toolbox           |
|  \\    /   O peration     | Version:  1.4.1-dev                             |
|   \\  /    A nd           | Web:      http://www.openfoam.org               |
|    \\/     M anipulation  |                                                 |
\*---------------------------------------------------------------------------*/

FoamFile
{
    version 2.0;
    format ascii;

    root "/home/mjaworsk/OpenFOAM/mjaworsk-1.4.1-dev/run/FlatPlate-Blasius";
    case "icoHeatFoam-flatPlate2";
    instance "0.3";
    local "";

    class surfaceScalarField;
    object phi;
}

// * * * * * * * * * * * * * * * * * * * * * * * * * * * * * * * * * * * * * //

dimensions      [0 3 -1 0 0 0 0];

internalField   nonuniform List<scalar> 
4850
(
9.44535e-09
5.43905e-09
-1.48844e-08
5.65412e-09
3.79123e-09
3.84657e-09
1.80755e-09
2.98843e-09
8.58145e-10
2.52649e-09
4.61933e-10
2.23774e-09
2.88751e-10
2.02919e-09
2.08553e-10
1.86448e-09
1.64711e-10
1.72909e-09
1.35385e-10
1.61555e-09
1.13539e-10
1.51892e-09
9.66299e-11
1.43559e-09
8.33347e-11
1.36269e-09
7.2895e-11
1.29785e-09
6.48399e-11
1.23909e-09
5.8764e-11
1.18491e-09
5.41791e-11
1.13435e-09
5.05574e-11
1.08697e-09
4.73813e-11
1.04269e-09
4.42802e-11
1.00156e-09
4.11376e-11
9.63544e-10
3.80113e-11
9.28457e-10
3.50868e-11
8.96066e-10
3.23909e-11
8.66202e-10
2.98642e-11
8.38929e-10
2.72737e-11
8.14198e-10
2.47306e-11
7.92198e-10
2.19996e-11
7.72911e-10
1.9287e-11
7.56645e-10
1.62663e-11
7.43494e-10
1.3151e-11
7.34088e-10
9.40603e-12
7.28055e-10
6.03254e-12
7.2475e-10
3.30552e-12
7.22665e-10
2.08479e-12
2.05017e-12
1.6264e-08
6.11881e-09
-1.69438e-08
1.38562e-08
6.19903e-09
1.15984e-08
4.06535e-09
9.83041e-09
2.62615e-09
8.48933e-09
1.80301e-09
7.51145e-09
1.26663e-09
6.79072e-09
9.2928e-10
6.2307e-09
7.24734e-10
5.77496e-09
5.91119e-10
5.39414e-09
4.94358e-10
5.07061e-09
4.20161e-10
4.7918e-09
3.6215e-10
4.54778e-09
3.16915e-10
4.3304e-09
2.82212e-10
4.13315e-09
2.56015e-10
3.95127e-09
2.36062e-10
3.7818e-09
2.20031e-10
3.62332e-09
2.05861e-10
3.47542e-09
1.92175e-10
3.338e-09
1.78559e-10
3.21083e-09
1.65186e-10
3.0933e-09
1.52612e-10
2.98487e-09
1.40822e-10
2.88515e-09
1.29583e-10
2.79424e-09
1.18184e-10
2.71207e-09
1.06902e-10
2.63912e-09
9.49463e-11
2.57554e-09
8.28741e-11
2.52232e-09
6.94782e-11
2.48004e-09
5.54391e-11
2.45006e-09
3.93821e-11
2.43064e-09
2.54498e-11
2.41969e-09
1.42549e-11
2.41227e-09
9.51297e-12
8.13925e-12
1.91586e-08
5.38013e-09
-1.84199e-08
1.86067e-08
6.75093e-09
1.73834e-08
5.28871e-09
1.60427e-08
3.96679e-09
1.46777e-08
3.16806e-09
1.34093e-08
2.53497e-09
1.23181e-08
2.02051e-09
1.14e-08
1.64286e-09
1.06223e-08
1.36876e-09
9.95688e-09
1.15982e-09
9.38246e-09
9.94582e-10
8.88203e-09
8.62581e-10
8.44086e-09
7.58084e-10
8.04604e-09
6.77032e-10
7.68676e-09
6.15298e-10
7.35484e-09
5.67977e-10
7.04505e-09
5.29819e-10
6.75471e-09
4.96207e-10
6.48285e-09
4.64031e-10
6.22917e-09
4.32241e-10
5.99335e-09
4.01008e-10
5.77463e-09
3.71325e-10
5.57243e-09
3.43024e-10
5.38631e-09
3.15701e-10
5.21647e-09
2.88028e-10
5.06288e-09
2.60494e-10
4.92638e-09
2.31445e-10
4.8074e-09
2.01857e-10
4.70787e-09
1.69006e-10
4.62888e-09
1.34429e-10
4.57244e-09
9.58239e-11
4.53488e-09
6.30021e-11
4.51277e-09
3.63705e-11
4.49711e-09
2.51753e-11
1.97385e-11
2.09158e-08
4.59037e-09
-2.0126e-08
2.12671e-08
6.39968e-09
2.094e-08
5.61577e-09
2.03622e-08
4.54463e-09
1.95812e-08
3.94899e-09
1.86422e-08
3.47401e-09
1.76595e-08
3.00322e-09
1.67074e-08
2.59494e-09
1.58137e-08
2.26251e-09
1.4989e-08
1.98444e-09
1.42376e-08
1.74602e-09
1.35574e-08
1.54274e-09
1.29418e-08
1.37375e-09
1.23809e-08
1.23791e-09
1.18644e-08
1.1318e-09
1.13831e-08
1.04929e-09
1.09304e-08
9.82498e-10
1.05027e-08
9.23953e-10
1.00985e-08
8.68245e-10
9.71749e-09
8.13207e-10
9.35988e-09
7.58615e-10
9.02542e-09
7.0579e-10
8.71419e-09
6.54251e-10
8.42632e-09
6.03573e-10
8.1625e-09
5.51842e-10
7.92299e-09
5.00003e-10
7.70922e-09
4.45224e-10
7.52198e-09
3.89093e-10
7.36444e-09
3.26545e-10
7.23819e-09
2.60676e-10
7.14619e-09
1.87827e-10
7.08257e-09
1.26622e-10
7.04313e-09
7.58165e-11
7.01415e-09
5.41541e-11
3.99678e-11
2.25934e-08
4.01411e-09
-2.20171e-08
2.31948e-08
5.79829e-09
2.32894e-08
5.52116e-09
2.31838e-08
4.65019e-09
2.29421e-08
4.19069e-09
2.25096e-08
3.90654e-09
2.1928e-08
3.5848e-09
2.12634e-08
3.25948e-09
2.05542e-08
2.97179e-09
1.98247e-08
2.71393e-09
1.90969e-08
2.47375e-09
1.83887e-08
2.25101e-09
1.77107e-08
2.05173e-09
1.70669e-08
1.88173e-09
1.64559e-08
1.74275e-09
1.58738e-08
1.63139e-09
1.53163e-08
1.53999e-09
1.47805e-08
1.45981e-09
1.42651e-08
1.3836e-09
1.37704e-08
1.30786e-09
1.32977e-08
1.23133e-09
1.28483e-08
1.15521e-09
1.24243e-08
1.07825e-09
1.20278e-08
1.00014e-09
1.1661e-08
9.18613e-10
1.13252e-08
8.35771e-10
1.1023e-08
7.47432e-10
1.07557e-08
6.56356e-10
1.05282e-08
5.54093e-10
1.03424e-08
4.46427e-10
1.02032e-08
3.27052e-10
1.01024e-08
2.27418e-10
1.00365e-08
1.41699e-10
9.98625e-09
1.04446e-10
7.39416e-11
2.44341e-08
3.61449e-09
-2.40345e-08
2.50535e-08
5.1789e-09
2.5298e-08
5.27666e-09
2.53602e-08
4.58805e-09
2.53845e-08
4.16633e-09
2.52983e-08
3.99272e-09
2.5077e-08
3.80619e-09
2.47539e-08
3.58256e-09
2.43534e-08
3.3723e-09
2.38865e-08
3.1808e-09
2.33662e-08
2.994e-09
2.28093e-08
2.80796e-09
2.22319e-08
2.6291e-09
2.1647e-08
2.46667e-09
2.10629e-08
2.32683e-09
2.04838e-08
2.21047e-09
1.99111e-08
2.11274e-09
1.93446e-08
2.02632e-09
1.87842e-08
1.94392e-09
1.82307e-08
1.8614e-09
1.76861e-08
1.77595e-09
1.71536e-08
1.68773e-09
1.66384e-08
1.59336e-09
1.61465e-08
1.49211e-09
1.56837e-08
1.38136e-09
1.52539e-08
1.26564e-09
1.48617e-08
1.13958e-09
1.45096e-08
1.00844e-09
1.42047e-08
8.59061e-10
1.39493e-08
7.01817e-10
1.37513e-08
5.2497e-10
1.36008e-08
3.77999e-10
1.34972e-08
2.45227e-10
1.34149e-08
1.86777e-10
1.28983e-10
2.64519e-08
3.32838e-09
-2.61658e-08
2.70246e-08
4.60616e-09
2.73373e-08
4.96405e-09
2.74423e-08
4.48296e-09
2.75413e-08
4.06736e-09
2.76067e-08
3.92739e-09
2.75848e-08
3.82804e-09
2.74855e-08
3.6819e-09
2.73265e-08
3.53127e-09
2.71094e-08
3.39792e-09
2.68327e-08
3.27071e-09
2.65005e-08
3.1401e-09
2.61216e-08
3.00807e-09
2.57057e-08
2.88257e-09
2.52622e-08
2.77027e-09
2.47986e-08
2.67413e-09
2.43195e-08
2.5918e-09
2.38272e-08
2.51867e-09
2.33218e-08
2.44925e-09
2.28028e-08
2.38049e-09
2.22704e-08
2.30831e-09
2.17271e-08
2.23103e-09
2.11798e-08
2.14066e-09
2.06381e-08
2.03378e-09
2.01138e-08
1.90565e-09
1.9615e-08
1.76445e-09
1.91506e-08
1.60397e-09
1.87246e-08
1.43444e-09
1.83473e-08
1.23643e-09
1.80211e-08
1.02797e-09
1.7759e-08
7.87094e-10
1.7549e-08
5.88002e-10
1.73976e-08
3.96656e-10
1.72718e-08
3.1253e-10
2.13778e-10
2.86443e-08
3.1054e-09
-2.84213e-08
2.91424e-08
4.10812e-09
2.94987e-08
4.60772e-09
2.96324e-08
4.3493e-09
2.97365e-08
3.96321e-09
2.98469e-08
3.81697e-09
2.9909e-08
3.76593e-09
2.9914e-08
3.67692e-09
2.98804e-08
3.56488e-09
2.9813e-08
3.46529e-09
2.97062e-08
3.37755e-09
2.95557e-08
3.29054e-09
2.93623e-08
3.20156e-09
2.91292e-08
3.11567e-09
2.88616e-08
3.03779e-09
2.8565e-08
2.97076e-09
2.82438e-08
2.91303e-09
2.79001e-08
2.86231e-09
2.75337e-08
2.81571e-09
2.71406e-08
2.77352e-09
2.67166e-08
2.73229e-09
2.62579e-08
2.68974e-09
2.57672e-08
2.63138e-09
2.52536e-08
2.54743e-09
2.47332e-08
2.42599e-09
2.42194e-08
2.27832e-09
2.37266e-08
2.09669e-09
2.3261e-08
1.9001e-09
2.28368e-08
1.66061e-09
2.24561e-08
1.4087e-09
2.21381e-08
1.10506e-09
2.18693e-08
8.56782e-10
2.16664e-08
5.99521e-10
2.14901e-08
4.88853e-10
3.35628e-10
3.10197e-08
2.91223e-09
-3.08265e-08
3.14334e-08
3.69446e-09
3.18072e-08
4.23386e-09
3.19795e-08
4.17706e-09
3.20797e-08
3.86295e-09
3.2196e-08
3.70075e-09
3.22918e-08
3.67011e-09
3.23415e-08
3.6272e-09
3.23591e-08
3.54727e-09
3.23573e-08
3.46715e-09
3.23345e-08
3.40026e-09
3.22858e-08
3.33929e-09
3.22087e-08
3.27862e-09
3.21037e-08
3.22069e-09
3.19731e-08
3.16846e-09
3.18198e-08
3.124e-09
3.16474e-08
3.08542e-09
3.14579e-08
3.05188e-09
3.1251e-08
3.02261e-09
3.10217e-08
3.00282e-09
3.07615e-08
2.99243e-09
3.04586e-08
2.99267e-09
3.01056e-08
2.98435e-09
2.97031e-08
2.94995e-09
2.92658e-08
2.86329e-09
2.88088e-08
2.73528e-09
2.83523e-08
2.55328e-09
2.7903e-08
2.34931e-09
2.74797e-08
2.08396e-09
2.70821e-08
1.80633e-09
2.67362e-08
1.45091e-09
2.64268e-08
1.16624e-09
2.61824e-08
8.43914e-10
2.59595e-08
7.11718e-10
4.95738e-10
3.35945e-08
2.7338e-09
-3.3416e-08
3.39314e-08
3.35751e-09
3.4294e-08
3.87123e-09
3.45049e-08
3.96615e-09
3.46103e-08
3.75764e-09
3.47198e-08
3.59117e-09
3.48292e-08
3.56071e-09
3.49037e-08
3.55272e-09
3.49447e-08
3.5063e-09
3.49681e-08
3.44371e-09
3.49792e-08
3.38917e-09
3.49751e-08
3.34338e-09
3.49537e-08
3.3e-09
3.49151e-08
3.25928e-09
3.48614e-08
3.22218e-09
3.47952e-08
3.19022e-09
3.47199e-08
3.16069e-09
3.46382e-08
3.13358e-09
3.45521e-08
3.10873e-09
3.44587e-08
3.09623e-09
3.43506e-08
3.10052e-09
3.42121e-08
3.13117e-09
3.4027e-08
3.16945e-09
3.37825e-08
3.19439e-09
3.34851e-08
3.16069e-09
3.31458e-08
3.07463e-09
3.2787e-08
2.91208e-09
3.24144e-08
2.72186e-09
3.2049e-08
2.4494e-09
3.16861e-08
2.16919e-09
3.13565e-08
1.78057e-09
3.10425e-08
1.48025e-09
3.07825e-08
1.10385e-09
3.05332e-08
9.6105e-10
6.846e-10
3.6392e-08
2.56732e-09
-3.62255e-08
3.66688e-08
3.08067e-09
3.69993e-08
3.54073e-09
3.72357e-08
3.7297e-09
3.73573e-08
3.63612e-09
3.74586e-08
3.48985e-09
3.75695e-08
3.44977e-09
3.76601e-08
3.46211e-09
3.77176e-08
3.44882e-09
3.77539e-08
3.40745e-09
3.77791e-08
3.36394e-09
3.77938e-08
3.32868e-09
3.77965e-08
3.29733e-09
3.77872e-08
3.26856e-09
3.77684e-08
3.24099e-09
3.77429e-08
3.21568e-09
3.77147e-08
3.18887e-09
3.76871e-08
3.16122e-09
3.76645e-08
3.13135e-09
3.76479e-08
3.11281e-09
3.76355e-08
3.11297e-09
3.76146e-08
3.15205e-09
3.75676e-08
3.21645e-09
3.74715e-08
3.29045e-09
3.73222e-08
3.31007e-09
3.71216e-08
3.27517e-09
3.68912e-08
3.14247e-09
3.66332e-08
2.97988e-09
3.63682e-08
2.71437e-09
3.60858e-08
2.45157e-09
3.58166e-08
2.0498e-09
3.55411e-08
1.75574e-09
3.53009e-08
1.34409e-09
3.50579e-08
1.20403e-09
8.81744e-10
3.94384e-08
2.41391e-09
-3.9285e-08
3.96715e-08
2.84753e-09
3.99616e-08
3.25071e-09
4.02058e-08
3.48547e-09
4.0349e-08
3.4929e-09
4.04471e-08
3.39176e-09
4.05521e-08
3.34477e-09
4.0651e-08
3.36321e-09
4.07226e-08
3.37725e-09
4.07694e-08
3.36065e-09
4.0803e-08
3.3303e-09
4.08276e-08
3.30413e-09
4.08426e-08
3.28228e-09
4.08477e-08
3.26349e-09
4.08448e-08
3.24386e-09
4.08366e-08
3.22389e-09
4.0827e-08
3.1985e-09
4.08189e-08
3.16935e-09
4.08177e-08
3.13249e-09
4.08272e-08
3.10328e-09
4.08514e-08
3.08877e-09
4.08847e-08
3.11879e-09
4.09154e-08
3.18571e-09
4.09185e-08
3.28744e-09
4.08823e-08
3.3462e-09
4.07997e-08
3.35781e-09
4.0688e-08
3.25412e-09
4.05457e-08
3.12218e-09
4.03913e-08
2.86877e-09
4.02094e-08
2.63351e-09
4.00255e-08
2.23365e-09
3.982e-08
1.96127e-09
3.96291e-08
1.53501e-09
3.9425e-08
1.40815e-09
1.06269e-09
4.27574e-08
2.27387e-09
-4.26174e-08
4.29589e-08
2.64606e-09
4.32101e-08
2.99945e-09
4.34473e-08
3.24826e-09
4.361e-08
3.33022e-09
4.3713e-08
3.28873e-09
4.38107e-08
3.24707e-09
4.39108e-08
3.26311e-09
4.39932e-08
3.29485e-09
4.40508e-08
3.30313e-09
4.40919e-08
3.28919e-09
4.41234e-08
3.27257e-09
4.41469e-08
3.25876e-09
4.41616e-08
3.24881e-09
4.41686e-08
3.23688e-09
4.41695e-08
3.22298e-09
4.41676e-08
3.20036e-09
4.41648e-08
3.17221e-09
4.41658e-08
3.1315e-09
4.41746e-08
3.09444e-09
4.41987e-08
3.06465e-09
4.42388e-08
3.07875e-09
4.42923e-08
3.13222e-09
4.4339e-08
3.2407e-09
4.43663e-08
3.31894e-09
4.436e-08
3.36406e-09
4.43325e-08
3.28158e-09
4.42793e-08
3.17538e-09
4.42158e-08
2.93231e-09
4.41248e-08
2.72454e-09
4.4024e-08
2.3344e-09
4.3896e-08
2.08934e-09
4.37658e-08
1.66517e-09
4.3618e-08
1.55591e-09
1.20986e-09
4.63685e-08
2.14598e-09
-4.62406e-08
4.6546e-08
2.46858e-09
4.67648e-08
2.78061e-09
4.69866e-08
3.02646e-09
4.7161e-08
3.15587e-09
4.7276e-08
3.17373e-09
4.73704e-08
3.15266e-09
4.74675e-08
3.16599e-09
4.75566e-08
3.20581e-09
4.76247e-08
3.23499e-09
4.76741e-08
3.2398e-09
4.7712e-08
3.23466e-09
4.77423e-08
3.22844e-09
4.77648e-08
3.22631e-09
4.77798e-08
3.22185e-09
4.77878e-08
3.21502e-09
4.77911e-08
3.19704e-09
4.77903e-08
3.17301e-09
4.77888e-08
3.13303e-09
4.77893e-08
3.09396e-09
4.77999e-08
3.05404e-09
4.78247e-08
3.05398e-09
4.78688e-08
3.08807e-09
4.79206e-08
3.18892e-09
4.79707e-08
3.26882e-09
4.80026e-08
3.33215e-09
4.80229e-08
3.26135e-09
4.8025e-08
3.17322e-09
4.80207e-08
2.9366e-09
4.79944e-08
2.75087e-09
4.79559e-08
2.37292e-09
4.78915e-08
2.15367e-09
4.78147e-08
1.74201e-09
4.77209e-08
1.64969e-09
1.31931e-09
5.02899e-08
2.02844e-09
-5.01724e-08
5.04484e-08
2.31013e-09
5.06414e-08
2.58752e-09
5.08451e-08
2.82276e-09
5.10226e-08
2.97838e-09
5.11515e-08
3.04482e-09
5.12489e-08
3.05531e-09
5.13427e-08
3.07215e-09
5.14345e-08
3.11401e-09
5.15118e-08
3.15776e-09
5.15705e-08
3.18107e-09
5.16153e-08
3.18985e-09
5.16517e-08
3.19208e-09
5.16808e-08
3.19719e-09
5.1703e-08
3.19969e-09
5.17175e-08
3.20053e-09
5.17258e-08
3.18866e-09
5.17277e-08
3.17118e-09
5.1725e-08
3.13574e-09
5.17188e-08
3.10011e-09
5.17163e-08
3.05652e-09
5.17225e-08
3.04784e-09
5.17468e-08
3.06369e-09
5.1786e-08
3.1498e-09
5.18361e-08
3.21864e-09
5.18819e-08
3.28645e-09
5.19244e-08
3.21875e-09
5.19559e-08
3.14176e-09
5.19838e-08
2.90866e-09
5.19955e-08
2.73919e-09
5.19948e-08
2.3737e-09
5.1972e-08
2.17643e-09
5.19315e-08
1.78253e-09
5.18764e-08
1.70474e-09
1.39876e-09
5.4542e-08
1.91964e-09
-5.44332e-08
5.46849e-08
2.1672e-09
5.48574e-08
2.41505e-09
5.50435e-08
2.63663e-09
5.52177e-08
2.80414e-09
5.53574e-08
2.90515e-09
5.54628e-08
2.94991e-09
5.5556e-08
2.97892e-09
5.56482e-08
3.02188e-09
5.57319e-08
3.07408e-09
5.57999e-08
3.11297e-09
5.58527e-08
3.13711e-09
5.58951e-08
3.14962e-09
5.593e-08
3.16231e-09
5.59585e-08
3.17127e-09
5.59791e-08
3.17985e-09
5.59928e-08
3.17501e-09
5.59984e-08
3.16556e-09
5.59971e-08
3.13701e-09
5.59887e-08
3.10853e-09
5.59788e-08
3.06641e-09
5.59719e-08
3.05473e-09
5.59792e-08
3.05646e-09
5.60029e-08
3.12607e-09
5.6045e-08
3.17656e-09
5.60928e-08
3.2386e-09
5.61442e-08
3.16736e-09
5.61896e-08
3.09633e-09
5.6233e-08
2.86529e-09
5.62639e-08
2.70826e-09
5.62825e-08
2.35516e-09
5.6282e-08
2.17689e-09
5.62614e-08
1.80317e-09
5.6228e-08
1.73811e-09
1.46018e-09
5.91492e-08
1.81826e-09
-5.90478e-08
5.92793e-08
2.03712e-09
5.94348e-08
2.25952e-09
5.9605e-08
2.46641e-09
5.97722e-08
2.63698e-09
5.99173e-08
2.76002e-09
6.00325e-08
2.83471e-09
6.01288e-08
2.88261e-09
6.02209e-08
2.92982e-09
6.03083e-08
2.98668e-09
6.03843e-08
3.03695e-09
6.04456e-08
3.07584e-09
6.04948e-08
3.10042e-09
6.05351e-08
3.12195e-09
6.05691e-08
3.13731e-09
6.05956e-08
3.15338e-09
6.06147e-08
3.15593e-09
6.0625e-08
3.15524e-09
6.06273e-08
3.1347e-09
6.06205e-08
3.11529e-09
6.06092e-08
3.07774e-09
6.05968e-08
3.06709e-09
6.05944e-08
3.05891e-09
6.06073e-08
3.1132e-09
6.06413e-08
3.14252e-09
6.06872e-08
3.19266e-09
6.07413e-08
3.11333e-09
6.07927e-08
3.04487e-09
6.08427e-08
2.8153e-09
6.08821e-08
2.66883e-09
6.09091e-08
2.3282e-09
6.09186e-08
2.16742e-09
6.09066e-08
1.8151e-09
6.08826e-08
1.76217e-09
1.51364e-09
6.41402e-08
1.72312e-09
-6.4045e-08
6.42595e-08
1.91782e-09
6.44008e-08
2.11821e-09
6.45568e-08
2.31038e-09
6.47151e-08
2.4787e-09
6.48609e-08
2.6142e-09
6.49841e-08
2.71148e-09
6.50865e-08
2.78031e-09
6.51798e-08
2.83653e-09
6.52691e-08
2.89732e-09
6.53509e-08
2.95517e-09
6.54203e-08
3.00647e-09
6.5477e-08
3.04369e-09
6.55232e-08
3.07577e-09
6.55623e-08
3.09818e-09
6.55942e-08
3.12144e-09
6.56189e-08
3.1313e-09
6.56345e-08
3.13966e-09
6.56417e-08
3.12746e-09
6.56392e-08
3.11781e-09
6.56307e-08
3.08625e-09
6.56189e-08
3.07887e-09
6.56139e-08
3.06387e-09
6.5622e-08
3.10511e-09
6.56511e-08
3.11341e-09
6.56947e-08
3.14912e-09
6.57487e-08
3.05933e-09
6.5802e-08
2.9915e-09
6.58541e-08
2.76321e-09
6.58964e-08
2.62656e-09
6.5926e-08
2.29858e-09
6.59387e-08
2.15469e-09
6.59294e-08
1.82444e-09
6.59078e-08
1.7838e-09
1.5652e-09
6.95467e-08
1.63316e-09
-6.94567e-08
6.96569e-08
1.80757e-09
6.97862e-08
1.98894e-09
6.99296e-08
2.16701e-09
7.00784e-08
2.32989e-09
7.02215e-08
2.47106e-09
7.03494e-08
2.58355e-09
7.04586e-08
2.67117e-09
7.05551e-08
2.73998e-09
7.0646e-08
2.80642e-09
7.07316e-08
2.86957e-09
7.08078e-08
2.93034e-09
7.08723e-08
2.97915e-09
7.09251e-08
3.02295e-09
7.09696e-08
3.0537e-09
7.10069e-08
3.08421e-09
7.10372e-08
3.10098e-09
7.10585e-08
3.11837e-09
7.10714e-08
3.11448e-09
7.10746e-08
3.11461e-09
7.10714e-08
3.08946e-09
7.10639e-08
3.08638e-09
7.10613e-08
3.06653e-09
7.10693e-08
3.09711e-09
7.10966e-08
3.0861e-09
7.11383e-08
3.10741e-09
7.11911e-08
3.00652e-09
7.12441e-08
2.93851e-09
7.12957e-08
2.71159e-09
7.13378e-08
2.58452e-09
7.1367e-08
2.26937e-09
7.13796e-08
2.14206e-09
7.13698e-08
1.83421e-09
7.13474e-08
1.80624e-09
1.6178e-09
7.54032e-08
1.54745e-09
-7.53175e-08
7.55059e-08
1.70489e-09
7.56249e-08
1.86993e-09
7.5757e-08
2.03489e-09
7.58964e-08
2.19053e-09
7.60348e-08
2.33264e-09
7.61643e-08
2.45412e-09
7.62791e-08
2.55635e-09
7.63804e-08
2.63863e-09
7.64736e-08
2.71323e-09
7.65619e-08
2.78128e-09
7.66432e-08
2.84905e-09
7.6715e-08
2.90733e-09
7.67752e-08
2.96273e-09
7.68257e-08
3.00321e-09
7.68683e-08
3.04164e-09
7.69045e-08
3.0648e-09
7.69319e-08
3.09093e-09
7.69512e-08
3.09518e-09
7.6961e-08
3.10485e-09
7.69644e-08
3.08604e-09
7.69631e-08
3.08772e-09
7.69653e-08
3.06432e-09
7.69759e-08
3.08645e-09
7.70035e-08
3.05854e-09
7.7044e-08
3.0669e-09
7.7095e-08
2.95549e-09
7.71462e-08
2.8873e-09
7.71958e-08
2.66207e-09
7.72357e-08
2.54456e-09
7.72628e-08
2.24232e-09
7.72735e-08
2.13133e-09
7.72618e-08
1.84589e-09
7.72371e-08
1.83093e-09
1.67263e-09
8.1747e-08
1.46521e-09
-8.16647e-08
8.18433e-08
1.60858e-09
8.19535e-08
1.75967e-09
8.20757e-08
1.91272e-09
8.2206e-08
2.06024e-09
8.23386e-08
2.20006e-09
8.2467e-08
2.32563e-09
8.25855e-08
2.43792e-09
8.26919e-08
2.53221e-09
8.27885e-08
2.61659e-09
8.28793e-08
2.69047e-09
8.29645e-08
2.76387e-09
8.30425e-08
2.8293e-09
8.31103e-08
2.89495e-09
8.31678e-08
2.94574e-09
8.32161e-08
2.99334e-09
8.32582e-08
3.02267e-09
8.32923e-08
3.0569e-09
8.33184e-08
3.06904e-09
8.33352e-08
3.08803e-09
8.3346e-08
3.07526e-09
8.33518e-08
3.08189e-09
8.33601e-08
3.05601e-09
8.33748e-08
3.07182e-09
8.34036e-08
3.02967e-09
8.34433e-08
3.02726e-09
8.34921e-08
2.90668e-09
8.35406e-08
2.83883e-09
8.35868e-08
2.6158e-09
8.36234e-08
2.50795e-09
8.36472e-08
2.21858e-09
8.36549e-08
2.12358e-09
8.36406e-08
1.86026e-09
8.3613e-08
1.85853e-09
1.73013e-09
8.86177e-08
1.3858e-09
-8.85383e-08
8.87085e-08
1.51774e-09
8.88112e-08
1.65697e-09
8.89246e-08
1.79931e-09
8.90464e-08
1.93849e-09
8.91726e-08
2.0739e-09
8.92984e-08
2.19983e-09
8.94183e-08
2.31797e-09
8.9529e-08
2.42156e-09
8.96298e-08
2.51576e-09
8.97236e-08
2.59662e-09
8.9812e-08
2.67546e-09
8.98951e-08
2.7462e-09
8.997e-08
2.82012e-09
9.00351e-08
2.88058e-09
9.00899e-08
2.93854e-09
9.01381e-08
2.97447e-09
9.01792e-08
3.01588e-09
9.02128e-08
3.03545e-09
9.02371e-08
3.06373e-09
9.02556e-08
3.05672e-09
9.02691e-08
3.06834e-09
9.02841e-08
3.04101e-09
9.03033e-08
3.05267e-09
9.0334e-08
2.99901e-09
9.03729e-08
2.98833e-09
9.04192e-08
2.86039e-09
9.04642e-08
2.79381e-09
9.05064e-08
2.5736e-09
9.05387e-08
2.47561e-09
9.05584e-08
2.19897e-09
9.05624e-08
2.11956e-09
9.05448e-08
1.87779e-09
9.0514e-08
1.88934e-09
1.79044e-09
9.60579e-08
1.309e-09
-9.59811e-08
9.6144e-08
1.43171e-09
9.62401e-08
1.56084e-09
9.63457e-08
1.69365e-09
9.64596e-08
1.82464e-09
9.65791e-08
1.95438e-09
9.6701e-08
2.07795e-09
9.68207e-08
2.19831e-09
9.69342e-08
2.30801e-09
9.70392e-08
2.41075e-09
9.71368e-08
2.49908e-09
9.72283e-08
2.5839e-09
9.73156e-08
2.65888e-09
9.73967e-08
2.7391e-09
9.74696e-08
2.80765e-09
9.75319e-08
2.87622e-09
9.75865e-08
2.91986e-09
9.76346e-08
2.9678e-09
9.76763e-08
2.99372e-09
9.77086e-08
3.03144e-09
9.77352e-08
3.03018e-09
9.77568e-08
3.04676e-09
9.77788e-08
3.01892e-09
9.78028e-08
3.02869e-09
9.78355e-08
2.96635e-09
9.78738e-08
2.95001e-09
9.79174e-08
2.81682e-09
9.79585e-08
2.75272e-09
9.7996e-08
2.5361e-09
9.80234e-08
2.44817e-09
9.80383e-08
2.18405e-09
9.80382e-08
2.11972e-09
9.80172e-08
1.89878e-09
9.7983e-08
1.92347e-09
1.85352e-09
1.04113e-07
1.23516e-09
-1.04039e-07
1.04195e-07
1.35002e-09
1.04285e-07
1.47044e-09
1.04384e-07
1.59485e-09
1.04491e-07
1.71799e-09
1.04604e-07
1.84151e-09
1.04721e-07
1.96085e-09
1.04839e-07
2.08051e-09
1.04953e-07
2.19306e-09
1.05062e-07
2.30227e-09
1.05163e-07
2.39753e-09
1.05259e-07
2.48884e-09
1.0535e-07
2.56785e-09
1.05436e-07
2.65275e-09
1.05516e-07
2.72742e-09
1.05587e-07
2.80564e-09
1.05649e-07
2.85802e-09
1.05704e-07
2.91278e-09
1.05754e-07
2.94349e-09
1.05795e-07
2.99042e-09
1.0583e-07
2.99544e-09
1.05859e-07
3.01705e-09
1.05889e-07
2.9895e-09
1.05918e-07
2.99956e-09
1.05953e-07
2.9315e-09
1.05991e-07
2.91215e-09
1.06031e-07
2.77594e-09
1.06068e-07
2.71581e-09
1.06101e-07
2.50363e-09
1.06123e-07
2.42601e-09
1.06133e-07
2.17414e-09
1.06128e-07
2.12434e-09
1.06104e-07
1.92332e-09
1.06066e-07
1.96089e-09
1.91925e-09
1.12832e-07
1.1651e-09
-1.12762e-07
1.1291e-07
1.27248e-09
1.12995e-07
1.38502e-09
1.13088e-07
1.50198e-09
1.13188e-07
1.61776e-09
1.13295e-07
1.73505e-09
1.13407e-07
1.84906e-09
1.13521e-07
1.96585e-09
1.13636e-07
2.07825e-09
1.13747e-07
2.19134e-09
1.13852e-07
2.29218e-09
1.13951e-07
2.38992e-09
1.14046e-07
2.4733e-09
1.14137e-07
2.56187e-09
1.14224e-07
2.64074e-09
1.14302e-07
2.72676e-09
1.14373e-07
2.78789e-09
1.14435e-07
2.85078e-09
1.14493e-07
2.88499e-09
1.14544e-07
2.93988e-09
1.14587e-07
2.95202e-09
1.14625e-07
2.97931e-09
1.14662e-07
2.95263e-09
1.14696e-07
2.96492e-09
1.14734e-07
2.89417e-09
1.14771e-07
2.87452e-09
1.1481e-07
2.73748e-09
1.14842e-07
2.68295e-09
1.1487e-07
2.47623e-09
1.14887e-07
2.40919e-09
1.14892e-07
2.16924e-09
1.14882e-07
2.13346e-09
1.14854e-07
1.95139e-09
1.14814e-07
2.00134e-09
1.98739e-09
1.22269e-07
1.09988e-09
-1.22204e-07
1.22342e-07
1.19915e-09
1.22423e-07
1.30398e-09
1.22511e-07
1.41403e-09
1.22606e-07
1.5231e-09
1.22706e-07
1.63444e-09
1.22813e-07
1.74281e-09
1.22923e-07
1.85535e-09
1.23036e-07
1.96515e-09
1.23148e-07
2.07925e-09
1.23257e-07
2.18381e-09
1.2336e-07
2.28716e-09
1.23458e-07
2.37524e-09
1.23552e-07
2.46715e-09
1.23645e-07
2.5485e-09
1.23731e-07
2.64028e-09
1.2381e-07
2.70877e-09
1.2388e-07
2.78116e-09
1.23946e-07
2.81898e-09
1.24006e-07
2.8796e-09
1.24059e-07
2.89913e-09
1.24105e-07
2.93358e-09
1.24149e-07
2.90841e-09
1.24189e-07
2.92435e-09
1.2423e-07
2.85381e-09
1.24268e-07
2.83673e-09
1.24304e-07
2.70094e-09
1.24333e-07
2.65363e-09
1.24356e-07
2.45357e-09
1.24368e-07
2.3974e-09
1.24368e-07
2.1691e-09
1.24355e-07
2.14678e-09
1.24323e-07
1.98288e-09
1.2428e-07
2.04452e-09
2.05738e-09
1.3248e-07
1.04051e-09
-1.32421e-07
1.32549e-07
1.13022e-09
1.32626e-07
1.22691e-09
1.3271e-07
1.33014e-09
1.328e-07
1.43307e-09
1.32896e-07
1.53904e-09
1.32996e-07
1.64199e-09
1.33102e-07
1.74956e-09
1.33212e-07
1.85505e-09
1.33324e-07
1.96745e-09
1.33434e-07
2.0734e-09
1.33541e-07
2.18103e-09
1.33642e-07
2.27355e-09
1.3374e-07
2.36909e-09
1.33837e-07
2.45156e-09
1.3393e-07
2.54725e-09
1.34018e-07
2.62097e-09
1.34096e-07
2.70296e-09
1.34169e-07
2.74605e-09
1.34238e-07
2.81037e-09
1.34302e-07
2.83607e-09
1.34355e-07
2.87968e-09
1.34407e-07
2.85722e-09
1.34453e-07
2.87763e-09
1.34497e-07
2.80976e-09
1.34536e-07
2.7981e-09
1.34571e-07
2.6657e-09
1.34598e-07
2.62691e-09
1.34617e-07
2.43492e-09
1.34624e-07
2.38995e-09
1.3462e-07
2.17314e-09
1.34603e-07
2.16361e-09
1.34569e-07
2.01732e-09
1.34523e-07
2.09008e-09
2.12846e-09
1.43529e-07
9.86965e-10
-1.43476e-07
1.43594e-07
1.06575e-09
1.43667e-07
1.15344e-09
1.43748e-07
1.24954e-09
1.43834e-07
1.3468e-09
1.43925e-07
1.44804e-09
1.44021e-07
1.54608e-09
1.44122e-07
1.64852e-09
1.44229e-07
1.74871e-09
1.44339e-07
1.85746e-09
1.4445e-07
1.96235e-09
1.44558e-07
2.0727e-09
1.44663e-07
2.16867e-09
1.44764e-07
2.26807e-09
1.44864e-07
2.35096e-09
1.44963e-07
2.44882e-09
1.45058e-07
2.52591e-09
1.45145e-07
2.61585e-09
1.45225e-07
2.66588e-09
1.45302e-07
2.73354e-09
1.45375e-07
2.76289e-09
1.45438e-07
2.81693e-09
1.45496e-07
2.79919e-09
1.45549e-07
2.82468e-09
1.45597e-07
2.76135e-09
1.45638e-07
2.75774e-09
1.45672e-07
2.63095e-09
1.45697e-07
2.60187e-09
1.45713e-07
2.41917e-09
1.45717e-07
2.386e-09
1.4571e-07
2.18044e-09
1.4569e-07
2.18326e-09
1.45654e-07
2.05372e-09
1.45607e-07
2.13717e-09
2.20045e-09
1.55485e-07
9.37342e-10
-1.55435e-07
1.55545e-07
1.00534e-09
1.55615e-07
1.08339e-09
1.55692e-07
1.17209e-09
1.55776e-07
1.26379e-09
1.55863e-07
1.36073e-09
1.55955e-07
1.45418e-09
1.56052e-07
1.55166e-09
1.56154e-07
1.64615e-09
1.56261e-07
1.75033e-09
1.56371e-07
1.85216e-09
1.56481e-07
1.96345e-09
1.56588e-07
2.06144e-09
1.56692e-07
2.16412e-09
1.56795e-07
2.24735e-09
1.56898e-07
2.34601e-09
1.56999e-07
2.42519e-09
1.57094e-07
2.521e-09
1.57182e-07
2.57793e-09
1.57265e-07
2.65025e-09
1.57347e-07
2.68123e-09
1.57418e-07
2.74527e-09
1.57483e-07
2.73426e-09
1.57542e-07
2.7658e-09
1.57595e-07
2.7081e-09
1.57639e-07
2.71462e-09
1.57674e-07
2.59545e-09
1.57699e-07
2.57739e-09
1.57713e-07
2.40485e-09
1.57715e-07
2.38436e-09
1.57705e-07
2.1899e-09
1.57683e-07
2.20484e-09
1.57646e-07
2.09119e-09
1.57599e-07
2.18446e-09
2.27261e-09
1.68422e-07
8.88873e-10
-1.68373e-07
1.6848e-07
9.47509e-10
1.68546e-07
1.01709e-09
1.6862e-07
1.09845e-09
1.68699e-07
1.18444e-09
1.68783e-07
1.27689e-09
1.68871e-07
1.36558e-09
1.68965e-07
1.45821e-09
1.69064e-07
1.54723e-09
1.69167e-07
1.64676e-09
1.69275e-07
1.74452e-09
1.69384e-07
1.85488e-09
1.69492e-07
1.95326e-09
1.69598e-07
2.05793e-09
1.69704e-07
2.14133e-09
1.6981e-07
2.2401e-09
1.69915e-07
2.32013e-09
1.70016e-07
2.42015e-09
1.70111e-07
2.48234e-09
1.70201e-07
2.56017e-09
1.7029e-07
2.59272e-09
1.7037e-07
2.66524e-09
1.70442e-07
2.66196e-09
1.70507e-07
2.70105e-09
1.70565e-07
2.65003e-09
1.70612e-07
2.66787e-09
1.70649e-07
2.55811e-09
1.70674e-07
2.55218e-09
1.70689e-07
2.3907e-09
1.7069e-07
2.3833e-09
1.70679e-07
2.20052e-09
1.70657e-07
2.22696e-09
1.70619e-07
2.12894e-09
1.70572e-07
2.23178e-09
2.34205e-09
6.56083e-07
7.42034e-10
-6.55936e-07
6.56245e-07
7.85105e-10
6.56428e-07
8.34218e-10
6.56634e-07
8.92958e-10
6.56862e-07
9.56468e-10
6.57107e-07
1.03122e-09
6.57368e-07
1.1051e-09
6.57641e-07
1.1847e-09
6.57931e-07
1.25777e-09
6.58236e-07
1.34181e-09
6.58558e-07
1.42247e-09
6.58894e-07
1.51866e-09
6.59242e-07
1.60554e-09
6.59593e-07
1.70617e-09
6.59948e-07
1.78666e-09
6.60304e-07
1.88467e-09
6.60663e-07
1.96054e-09
6.61019e-07
2.06394e-09
6.6137e-07
2.13198e-09
6.61702e-07
2.22762e-09
6.62024e-07
2.27079e-09
6.6233e-07
2.3597e-09
6.62614e-07
2.37814e-09
6.62866e-07
2.44895e-09
6.63092e-07
2.42404e-09
6.6328e-07
2.47918e-09
6.63431e-07
2.4072e-09
6.63537e-07
2.44633e-09
6.63601e-07
2.3266e-09
6.63621e-07
2.36304e-09
6.63598e-07
2.22361e-09
6.63541e-07
2.28461e-09
6.63433e-07
2.23668e-09
6.63299e-07
2.36554e-09
2.53578e-09
7.09972e-07
6.17026e-10
-7.09847e-07
7.10099e-07
6.58041e-10
7.10234e-07
6.99077e-10
7.10381e-07
7.46062e-10
7.10544e-07
7.93741e-10
7.10724e-07
8.51317e-10
7.1092e-07
9.08889e-10
7.11129e-07
9.75911e-10
7.11349e-07
1.03766e-09
7.11581e-07
1.10978e-09
7.11828e-07
1.17485e-09
7.12092e-07
1.25525e-09
7.12371e-07
1.32606e-09
7.12662e-07
1.41543e-09
7.12961e-07
1.4875e-09
7.13265e-07
1.58105e-09
7.13575e-07
1.64993e-09
7.1389e-07
1.74892e-09
7.14209e-07
1.8138e-09
7.14521e-07
1.91557e-09
7.14825e-07
1.96604e-09
7.1512e-07
2.06464e-09
7.15403e-07
2.09538e-09
7.15663e-07
2.18885e-09
7.159e-07
2.18746e-09
7.16108e-07
2.27144e-09
7.16283e-07
2.2315e-09
7.16423e-07
2.30671e-09
7.16525e-07
2.22428e-09
7.16593e-07
2.2956e-09
7.16622e-07
2.19455e-09
7.16622e-07
2.28385e-09
7.16585e-07
2.27371e-09
7.16529e-07
2.42191e-09
2.64513e-09
7.67914e-07
5.16972e-10
-7.67814e-07
7.6802e-07
5.52309e-10
7.68132e-07
5.87472e-10
7.6825e-07
6.27499e-10
7.68378e-07
6.65754e-10
7.68518e-07
7.11636e-10
7.68671e-07
7.55638e-10
7.68837e-07
8.09769e-10
7.69015e-07
8.59624e-10
7.69204e-07
9.20903e-10
7.69405e-07
9.74424e-10
7.69617e-07
1.04276e-09
7.69843e-07
1.10049e-09
7.7008e-07
1.17802e-09
7.70328e-07
1.23967e-09
7.70583e-07
1.32553e-09
7.70846e-07
1.38731e-09
7.71115e-07
1.48027e-09
7.71388e-07
1.54005e-09
7.71664e-07
1.64017e-09
7.71937e-07
1.69255e-09
7.72206e-07
1.79544e-09
7.72469e-07
1.83314e-09
7.7272e-07
1.93722e-09
7.72956e-07
1.95224e-09
7.73173e-07
2.05378e-09
7.73367e-07
2.03813e-09
7.73537e-07
2.1364e-09
7.73676e-07
2.08531e-09
7.73791e-07
2.18091e-09
7.73871e-07
2.11411e-09
7.73931e-07
2.22429e-09
7.73957e-07
2.24712e-09
7.73971e-07
2.40805e-09
2.64653e-09
8.30401e-07
4.35368e-10
-8.30319e-07
8.30489e-07
4.64237e-10
8.30583e-07
4.92976e-10
8.30684e-07
5.2665e-10
8.30792e-07
5.58084e-10
8.30907e-07
5.96289e-10
8.31031e-07
6.31519e-10
8.31165e-07
6.76039e-10
8.31309e-07
7.15943e-10
8.31462e-07
7.6745e-10
8.31625e-07
8.11412e-10
8.31798e-07
8.70178e-10
8.3198e-07
9.1808e-10
8.32173e-07
9.85456e-10
8.32375e-07
1.03728e-09
8.32587e-07
1.11384e-09
8.32807e-07
1.1676e-09
8.33034e-07
1.25291e-09
8.33267e-07
1.30642e-09
8.33507e-07
1.40067e-09
8.33749e-07
1.45043e-09
8.33993e-07
1.55171e-09
8.34234e-07
1.59191e-09
8.34473e-07
1.69859e-09
8.34702e-07
1.72314e-09
8.34922e-07
1.83314e-09
8.35126e-07
1.83478e-09
8.35316e-07
1.94598e-09
8.35482e-07
1.91936e-09
8.35633e-07
2.02964e-09
8.35757e-07
1.99061e-09
8.35869e-07
2.11196e-09
8.35959e-07
2.15713e-09
8.36049e-07
2.31823e-09
2.56341e-09
8.97881e-07
3.65694e-10
-8.97811e-07
8.97956e-07
3.89535e-10
8.98036e-07
4.12827e-10
8.98121e-07
4.40946e-10
8.98213e-07
4.66878e-10
8.9831e-07
4.9914e-10
8.98413e-07
5.28031e-10
8.98524e-07
5.65314e-10
8.98642e-07
5.97644e-10
8.98769e-07
6.40976e-10
8.98903e-07
6.77037e-10
8.99046e-07
7.27399e-10
8.99197e-07
7.67185e-10
8.99357e-07
8.25459e-10
8.99525e-07
8.6869e-10
8.99703e-07
9.35848e-10
8.99889e-07
9.81737e-10
9.00084e-07
1.05835e-09
9.00285e-07
1.10527e-09
9.00494e-07
1.1916e-09
9.00708e-07
1.23698e-09
9.00927e-07
1.33256e-09
9.01146e-07
1.37231e-09
9.01369e-07
1.47609e-09
9.01587e-07
1.5053e-09
9.01804e-07
1.61598e-09
9.0201e-07
1.62852e-09
9.02213e-07
1.74344e-09
9.02398e-07
1.73373e-09