/*--------------------------------*- C++ -*----------------------------------*\
| =========                 |                                                 |
| \\      /  F ield         | OpenFOAM: The Open Source CFD Toolbox           |
|  \\    /   O peration     | Version:  1.4.1-dev                             |
|   \\  /    A nd           | Web:      http://www.openfoam.org               |
|    \\/     M anipulation  |                                                 |
\*---------------------------------------------------------------------------*/

FoamFile
{
    version 2.0;
    format ascii;

    root "/home/mjaworsk/OpenFOAM/mjaworsk-1.4.1-dev/run/FlatPlate-Blasius";
    case "icoHeatFoam-flatPlate2";
    instance "0.3";
    local "";

    class volVectorField;
    object U;
}

// * * * * * * * * * * * * * * * * * * * * * * * * * * * * * * * * * * * * * //

dimensions      [0 1 -1 0 0 0 0];

internalField   nonuniform List<vector> 
2475
(
(0.132363 0.00806837 0)
(0.079727 0.00529554 0)
(0.0536867 0.00187651 0)
(0.039833 0.000634747 0)
(0.0322098 0.000269245 0)
(0.0279407 0.000143934 0)
(0.0251505 0.000104853 0)
(0.0230154 8.64775e-05 0)
(0.021269 7.07247e-05 0)
(0.0198108 5.73283e-05 0)
(0.0185767 4.67758e-05 0)
(0.0175189 3.85131e-05 0)
(0.0165997 3.20378e-05 0)
(0.0157885 2.70346e-05 0)
(0.0150591 2.32394e-05 0)
(0.0143915 2.03528e-05 0)
(0.0137707 1.808e-05 0)
(0.0131897 1.61439e-05 0)
(0.0126452 1.43585e-05 0)
(0.0121384 1.26678e-05 0)
(0.0116684 1.10959e-05 0)
(0.0112353 9.71423e-06 0)
(0.0108344 8.52409e-06 0)
(0.0104654 7.48676e-06 0)
(0.0101254 6.50649e-06 0)
(0.00981723 5.62456e-06 0)
(0.00953864 4.76457e-06 0)
(0.00929427 3.99725e-06 0)
(0.00908102 3.23653e-06 0)
(0.00890748 2.53979e-06 0)
(0.00877144 1.74614e-06 0)
(0.0086864 1.05534e-06 0)
(0.00862856 5.33311e-07 0)
(0.00860931 2.95547e-07 0)
(0.00857223 3.33444e-07 0)
(0.182921 0.0167926 0)
(0.161791 0.0150009 0)
(0.139718 0.00825965 0)
(0.11778 0.00414788 0)
(0.0996434 0.00226835 0)
(0.0868278 0.00134959 0)
(0.0778587 0.000894674 0)
(0.0710825 0.000661245 0)
(0.0656297 0.000516758 0)
(0.0611052 0.000412339 0)
(0.0572853 0.000333555 0)
(0.054015 0.000273533 0)
(0.0511735 0.00022766 0)
(0.0486636 0.000192709 0)
(0.0464037 0.00016611 0)
(0.0443337 0.000145501 0)
(0.0424104 0.00012883 0)
(0.0406137 0.000114461 0)
(0.0389329 0.000101395 0)
(0.0373692 8.93222e-05 0)
(0.035918 7.83028e-05 0)
(0.0345783 6.85781e-05 0)
(0.0333383 6.00433e-05 0)
(0.0321986 5.24699e-05 0)
(0.0311509 4.54246e-05 0)
(0.0302036 3.90231e-05 0)
(0.0293493 3.28964e-05 0)
(0.0286028 2.72964e-05 0)
(0.0279554 2.17727e-05 0)
(0.0274359 1.65884e-05 0)
(0.0270335 1.11892e-05 0)
(0.0267834 6.78966e-06 0)
(0.0266085 3.52995e-06 0)
(0.0265466 2.16784e-06 0)
(0.0264335 1.93426e-06 0)
(0.190198 0.0169244 0)
(0.189848 0.0186219 0)
(0.183722 0.0130772 0)
(0.171273 0.00861296 0)
(0.156069 0.00599417 0)
(0.141853 0.00420569 0)
(0.129831 0.00296787 0)
(0.119784 0.00218339 0)
(0.111292 0.0016818 0)
(0.104046 0.00133231 0)
(0.0978162 0.00107375 0)
(0.0924149 0.000878444 0)
(0.0876814 0.00073032 0)
(0.0834774 0.000618108 0)
(0.0796795 0.000532801 0)
(0.0761935 0.000466508 0)
(0.0729492 0.00041261 0)
(0.0699128 0.000366169 0)
(0.0670638 0.000324245 0)
(0.0644031 0.000285859 0)
(0.0619222 0.000250985 0)
(0.0596228 0.000220051 0)
(0.0574881 0.000192613 0)
(0.055524 0.000168061 0)
(0.0537167 0.000145344 0)
(0.0520816 0.000124621 0)
(0.0506055 0.000104924 0)
(0.0493156 8.67417e-05 0)
(0.0481962 6.8826e-05 0)
(0.0473005 5.18851e-05 0)
(0.0466034 3.48779e-05 0)
(0.0461644 2.14259e-05 0)
(0.045844 1.14592e-05 0)
(0.0457217 7.38474e-06 0)
(0.0455119 5.81506e-06 0)
(0.190711 0.0142952 0)
(0.195604 0.0179386 0)
(0.198406 0.0144843 0)
(0.195547 0.0108411 0)
(0.188264 0.0086192 0)
(0.179209 0.00690934 0)
(0.169878 0.0054261 0)
(0.160775 0.00426531 0)
(0.152113 0.00340704 0)
(0.144052 0.00275798 0)
(0.136673 0.00225285 0)
(0.129987 0.00185776 0)
(0.123944 0.00155138 0)
(0.118463 0.00131624 0)
(0.113442 0.0011362 0)
(0.10879 0.000995945 0)
(0.104427 0.000882008 0)
(0.100312 0.000784209 0)
(0.0964172 0.000696316 0)
(0.0927442 0.00061598 0)
(0.089284 0.000542758 0)
(0.0860477 0.000477222 0)
(0.0830203 0.000418423 0)
(0.0802203 0.000365371 0)
(0.0776317 0.000316257 0)
(0.0752815 0.000271305 0)
(0.0731499 0.000228647 0)
(0.0712802 0.000189068 0)
(0.0696475 0.000150023 0)
(0.0683345 0.000113046 0)
(0.0672942 7.65066e-05 0)
(0.0666225 4.80093e-05 0)
(0.0661051 2.65759e-05 0)
(0.0658921 1.76913e-05 0)
(0.0655448 1.28762e-05 0)
(0.191828 0.0121318 0)
(0.19592 0.0160784 0)
(0.200953 0.0142199 0)
(0.202689 0.0112914 0)
(0.200912 0.00953702 0)
(0.19716 0.0082891 0)
(0.192404 0.00706849 0)
(0.186952 0.00595398 0)
(0.180972 0.00502544 0)
(0.174691 0.00425316 0)
(0.168335 0.00359793 0)
(0.162092 0.00304472 0)
(0.15608 0.0025886 0)
(0.150362 0.00222238 0)
(0.14494 0.00193323 0)
(0.13979 0.00170407 0)
(0.134866 0.00151674 0)
(0.130144 0.001356 0)
(0.125596 0.00121168 0)
(0.12123 0.00107932 0)
(0.117039 0.000957512 0)
(0.113052 0.000846861 0)
(0.109263 0.000745855 0)
(0.105718 0.000653449 0)
(0.102405 0.000567269 0)
(0.0993748 0.000487939 0)
(0.096601 0.000412473 0)
(0.0941499 0.000342172 0)
(0.0919824 0.000272593 0)
(0.0902198 0.000206697 0)
(0.0887818 0.000141841 0)
(0.0878253 9.15854e-05 0)
(0.0870404 5.27323e-05 0)
(0.0866973 3.6189e-05 0)
(0.086149 2.49229e-05 0)
(0.19307 0.0107649 0)
(0.195905 0.0143329 0)
(0.200482 0.0135773 0)
(0.203474 0.0111638 0)
(0.204025 0.0095853 0)
(0.203127 0.00864772 0)
(0.201512 0.00775265 0)
(0.199291 0.00684797 0)
(0.196412 0.00603604 0)
(0.19292 0.00532499 0)
(0.188929 0.00468438 0)
(0.184583 0.00410377 0)
(0.180015 0.00359028 0)
(0.175347 0.00315171 0)
(0.170658 0.0027874 0)
(0.166006 0.00248783 0)
(0.161397 0.00223742 0)
(0.156849 0.00202044 0)
(0.152341 0.00182461 0)
(0.147893 0.00164366 0)
(0.143492 0.0014746 0)
(0.139186 0.00131769 0)
(0.134979 0.00117058 0)
(0.130954 0.00103266 0)
(0.127119 0.000901667 0)
(0.123561 0.000779662 0)
(0.120253 0.000662646 0)
(0.117298 0.000553112 0)
(0.114632 0.000443984 0)
(0.112432 0.000340635 0)
(0.110565 0.000238301 0)
(0.109286 0.000159145 0)
(0.10816 9.54938e-05 0)
(0.107648 6.76377e-05 0)
(0.106818 4.49085e-05 0)
(0.193897 0.00984606 0)
(0.196023 0.0128055 0)
(0.199702 0.0128217 0)
(0.202739 0.0109306 0)
(0.204027 0.00940154 0)
(0.204178 0.00856622 0)
(0.203914 0.00788275 0)
(0.203386 0.00715962 0)
(0.202473 0.00647467 0)
(0.201101 0.00586713 0)
(0.19926 0.00531367 0)
(0.196991 0.00479508 0)
(0.194338 0.00431416 0)
(0.191383 0.00388229 0)
(0.188186 0.00350588 0)
(0.184826 0.00318317 0)
(0.181332 0.00290471 0)
(0.177748 0.00265885 0)
(0.174058 0.00243485 0)
(0.170284 0.0022265 0)
(0.166389 0.00202901 0)
(0.162419 0.00184132 0)
(0.158362 0.00165872 0)
(0.154336 0.00148069 0)
(0.150365 0.00130549 0)
(0.146596 0.00113855 0)
(0.143004 0.000975587 0)
(0.139744 0.000821851 0)
(0.136719 0.000666817 0)
(0.134182 0.000519932 0)
(0.131918 0.000372152 0)
(0.130332 0.000257841 0)
(0.128817 0.000161161 0)
(0.128117 0.000117995 0)
(0.126927 7.6822e-05 0)
(0.19436 0.00914764 0)
(0.196078 0.0114627 0)
(0.198982 0.0119454 0)
(0.201757 0.0106163 0)
(0.203289 0.00918335 0)
(0.203803 0.00835352 0)
(0.203961 0.00778284 0)
(0.204036 0.00719006 0)
(0.203964 0.00659442 0)
(0.203659 0.00605781 0)
(0.203065 0.00557723 0)
(0.202182 0.00513004 0)
(0.200994 0.00470943 0)
(0.19953 0.00432217 0)
(0.197803 0.00397432 0)
(0.195872 0.00366683 0)
(0.193748 0.00339398 0)
(0.191485 0.00314868 0)
(0.189056 0.0029238 0)
(0.186483 0.00271573 0)
(0.18369 0.00251877 0)
(0.180693 0.00232986 0)
(0.177424 0.00213896 0)
(0.173994 0.00194267 0)
(0.170414 0.00173777 0)
(0.166896 0.00153467 0)
(0.163406 0.00132981 0)
(0.160178 0.00113405 0)
(0.157058 0.0009325 0)
(0.154402 0.000741422 0)
(0.151877 0.000544 0)
(0.150087 0.000391501 0)
(0.148206 0.000254403 0)
(0.147347 0.000192752 0)
(0.14576 0.000124924 0)
(0.194617 0.00855202 0)
(0.196047 0.0103206 0)
(0.198336 0.0110059 0)
(0.200761 0.0101976 0)
(0.202369 0.00895443 0)
(0.203082 0.00811749 0)
(0.203384 0.00759839 0)
(0.203625 0.00710503 0)
(0.203819 0.0065817 0)
(0.203911 0.00608877 0)
(0.203842 0.00564916 0)
(0.203618 0.0052488 0)
(0.203209 0.00487529 0)
(0.202634 0.00452959 0)
(0.201875 0.00421468 0)
(0.20098 0.00393143 0)
(0.199937 0.00367512 0)
(0.198805 0.00344172 0)
(0.197545 0.00322757 0)
(0.196197 0.00303381 0)
(0.194651 0.0028563 0)
(0.192913 0.00269192 0)
(0.190824 0.00252373 0)
(0.188457 0.00234126 0)
(0.185744 0.00213376 0)
(0.182943 0.00191547 0)
(0.179984 0.00168307 0)
(0.177191 0.00145687 0)
(0.174323 0.00121626 0)
(0.171866 0.000988303 0)
(0.169321 0.000743543 0)
(0.167532 0.000555701 0)
(0.165411 0.0003744 0)
(0.164484 0.000293647 0)
(0.162553 0.000191885 0)
(0.194802 0.00800811 0)
(0.195999 0.00937242 0)
(0.197811 0.0100856 0)
(0.199857 0.00968806 0)
(0.201431 0.00870288 0)
(0.20228 0.00789041 0)
(0.202676 0.00738608 0)
(0.202966 0.00696608 0)
(0.20323 0.0065135 0)
(0.20345 0.00606016 0)
(0.203564 0.0056456 0)
(0.203591 0.00527187 0)
(0.2035 0.00492732 0)
(0.203328 0.00460886 0)
(0.203041 0.0043159 0)
(0.202696 0.00404882 0)
(0.202264 0.00380293 0)
(0.201818 0.00357619 0)
(0.201311 0.00336702 0)
(0.200818 0.00318228 0)
(0.200222 0.0030217 0)
(0.199557 0.00288691 0)
(0.198601 0.00275672 0)
(0.197395 0.00261319 0)
(0.195745 0.00243071 0)
(0.193928 0.00222311 0)
(0.191789 0.00198352 0)
(0.189751 0.00174527 0)
(0.187448 0.0014799 0)
(0.185506 0.00122998 0)
(0.183228 0.000947632 0)
(0.181692 0.000734299 0)
(0.179554 0.000511288 0)
(0.178701 0.000414793 0)
(0.176596 0.000276091 0)
(0.195013 0.00750341 0)
(0.196012 0.00858322 0)
(0.197455 0.00923998 0)
(0.199142 0.00912188 0)
(0.200594 0.00841228 0)
(0.201515 0.00767333 0)
(0.201991 0.0071715 0)
(0.20231 0.00679699 0)
(0.202588 0.00641094 0)
(0.20285 0.00600351 0)
(0.203031 0.0056133 0)
(0.203152 0.00525821 0)
(0.20318 0.00493271 0)
(0.203166 0.00463238 0)
(0.203068 0.00435301 0)
(0.202958 0.00409427 0)
(0.202788 0.00385105 0)
(0.202654 0.00362301 0)
(0.202491 0.00340877 0)
(0.202415 0.00322022 0)
(0.202311 0.00306116 0)
(0.202282 0.00294216 0)
(0.202081 0.00284307 0)
(0.201773 0.00274406 0)
(0.201038 0.00260101 0)
(0.200161 0.00242319 0)
(0.198873 0.00219363 0)
(0.197683 0.00196098 0)
(0.196091 0.0016863 0)
(0.194843 0.00143204 0)
(0.193054 0.00112664 0)
(0.191971 0.000902307 0)
(0.190067 0.000646841 0)
(0.189422 0.000541528 0)
(0.187394 0.000369877 0)
(0.195297 0.00703971 0)
(0.196127 0.00791487 0)
(0.197286 0.00849129 0)
(0.198662 0.00853891 0)
(0.199945 0.00807681 0)
(0.200876 0.00745451 0)
(0.201414 0.00696586 0)
(0.201759 0.00661409 0)
(0.202036 0.006282 0)
(0.202309 0.00592469 0)
(0.202517 0.00556425 0)
(0.202685 0.00522743 0)
(0.202766 0.00491726 0)
(0.202822 0.0046316 0)
(0.202801 0.00436316 0)
(0.202786 0.00411064 0)
(0.202713 0.00386777 0)
(0.20269 0.00363603 0)
(0.202631 0.00341247 0)
(0.202683 0.00321246 0)
(0.202725 0.00304152 0)
(0.202926 0.00292037 0)
(0.203052 0.00283339 0)
(0.203232 0.00276733 0)
(0.203073 0.00266144 0)
(0.20287 0.00251944 0)
(0.202243 0.00230776 0)
(0.201762 0.00209094 0)
(0.20082 0.00181735 0)
(0.200239 0.00157222 0)
(0.199009 0.00125786 0)
(0.198434 0.00103627 0)
(0.196939 0.000761569 0)
(0.196568 0.000655214 0)
(0.194853 0.000461199 0)
(0.195655 0.00661829 0)
(0.196344 0.00733829 0)
(0.197282 0.0078379 0)
(0.198405 0.00797193 0)
(0.199508 0.00770444 0)
(0.200401 0.00722064 0)
(0.200976 0.00676873 0)
(0.201352 0.00642977 0)
(0.201627 0.00613522 0)
(0.201898 0.00582551 0)
(0.202116 0.00549998 0)
(0.202311 0.00518445 0)
(0.202424 0.00488889 0)
(0.202523 0.00461655 0)
(0.202543 0.00435882 0)
(0.202577 0.00411373 0)
(0.202542 0.00387304 0)
(0.202559 0.00364023 0)
(0.202514 0.00340967 0)
(0.202572 0.00319885 0)
(0.202593 0.0030118 0)
(0.202797 0.00287778 0)
(0.202957 0.00278531 0)
(0.203291 0.00273442 0)
(0.20338 0.002653 0)
(0.203541 0.00254201 0)
(0.203314 0.00234748 0)
(0.203292 0.00214837 0)
(0.202817 0.00187963 0)
(0.20272 0.00164939 0)
(0.201977 0.00133572 0)
(0.201815 0.00112527 0)
(0.200773 0.000844012 0)
(0.200647 0.000742096 0)
(0.199364 0.000538928 0)
(0.196055 0.00623556 0)
(0.19663 0.0068331 0)
(0.197396 0.00726603 0)
(0.198319 0.00743975 0)
(0.199256 0.00731045 0)
(0.200082 0.00696313 0)
(0.20067 0.00657182 0)
(0.201076 0.00624933 0)
(0.201356 0.00597904 0)
(0.201623 0.00570914 0)
(0.201841 0.00542012 0)
(0.202052 0.00512977 0)
(0.202187 0.00485 0)
(0.202317 0.00459047 0)
(0.202365 0.00434343 0)
(0.202432 0.00410748 0)
(0.202421 0.00387189 0)
(0.202459 0.00364235 0)
(0.202411 0.00341006 0)
(0.202449 0.00319394 0)
(0.202411 0.00299397 0)
(0.202542 0.00284542 0)
(0.202618 0.00273789 0)
(0.202922 0.00268698 0)
(0.203052 0.00261499 0)
(0.203349 0.00252486 0)
(0.203315 0.00234252 0)
(0.203525 0.00215822 0)
(0.203325 0.00189411 0)
(0.2035 0.00167841 0)
(0.203098 0.00137021 0)
(0.203191 0.00117336 0)
(0.202526 0.000894617 0)
(0.20256 0.000799224 0)
(0.201685 0.000598015 0)
(0.196465 0.00588568 0)
(0.196947 0.00638448 0)
(0.197578 0.00675995 0)
(0.198343 0.00694823 0)
(0.199138 0.00691037 0)
(0.199884 0.00668104 0)
(0.200461 0.00636523 0)
(0.20089 0.00607066 0)
(0.201183 0.00581886 0)
(0.201449 0.0055796 0)
(0.201664 0.0053248 0)
(0.201885 0.00506247 0)
(0.202035 0.00480102 0)
(0.202187 0.00455482 0)
(0.202257 0.00431847 0)
(0.202349 0.00409282 0)
(0.202356 0.00386471 0)
(0.202412 0.00364221 0)
(0.202367 0.00341331 0)
(0.202393 0.0031982 0)
(0.202313 0.00299145 0)
(0.202376 0.00283216 0)
(0.202358 0.00270763 0)
(0.202573 0.00264731 0)
(0.202659 0.00257218 0)
(0.20297 0.00249187 0)
(0.203011 0.00231592 0)
(0.203309 0.00214232 0)
(0.203251 0.00188182 0)
(0.203539 0.001678 0)
(0.203339 0.0013771 0)
(0.203549 0.001193 0)
(0.203137 0.000921835 0)
(0.203247 0.000832864 0)
(0.202667 0.000640389 0)
(0.196861 0.00556386 0)
(0.197267 0.0059818 0)
(0.197792 0.00630731 0)
(0.198432 0.00649643 0)
(0.199106 0.00651657 0)
(0.19977 0.00638 0)
(0.20032 0.00614257 0)
(0.20076 0.00588801 0)
(0.201066 0.00565596 0)
(0.201337 0.00544049 0)
(0.20155 0.00521529 0)
(0.201775 0.00498163 0)
(0.201934 0.0047414 0)
(0.202103 0.00451025 0)
(0.202189 0.00428501 0)
(0.202299 0.00407038 0)
(0.202323 0.00385125 0)
(0.202394 0.00363819 0)
(0.202359 0.00341632 0)
(0.202387 0.00320714 0)
(0.202291 0.00299939 0)
(0.202317 0.00283466 0)
(0.202237 0.00269555 0)
(0.202375 0.00262186 0)
(0.202405 0.00253518 0)
(0.202684 0.0024553 0)
(0.202745 0.00228054 0)
(0.203062 0.00211408 0)
(0.203068 0.00185657 0)
(0.203388 0.00166234 0)
(0.203289 0.0013694 0)
(0.203536 0.00119665 0)
(0.203263 0.000935484 0)
(0.203399 0.000852361 0)
(0.202988 0.000671721 0)
(0.197234 0.00526635 0)
(0.197579 0.00561744 0)
(0.198017 0.00589937 0)
(0.198555 0.00608155 0)
(0.199129 0.00613739 0)
(0.199716 0.00606928 0)
(0.200227 0.00590354 0)
(0.200664 0.00569675 0)
(0.20098 0.00548932 0)
(0.201257 0.00529455 0)
(0.20147 0.00509412 0)
(0.201696 0.00488753 0)
(0.20186 0.00467044 0)
(0.20204 0.00445674 0)
(0.202139 0.00424356 0)
(0.202263 0.00404064 0)
(0.2023 0.00383144 0)
(0.202385 0.00362904 0)
(0.202364 0.00341621 0)
(0.202402 0.00321596 0)
(0.202311 0.00301125 0)
(0.202328 0.0028455 0)
(0.202224 0.0026955 0)
(0.202316 0.00260816 0)
(0.202305 0.00250569 0)
(0.202549 0.00241981 0)
(0.202608 0.00224225 0)
(0.202917 0.00208029 0)
(0.202946 0.00182553 0)
(0.203263 0.00163962 0)
(0.203207 0.00135502 0)
(0.203456 0.0011928 0)
(0.203248 0.000942761 0)
(0.203388 0.000865255 0)
(0.203058 0.000697597 0)
(0.197584 0.00498868 0)
(0.197876 0.00528471 0)
(0.198245 0.0055287 0)
(0.198701 0.00569978 0)
(0.199191 0.00577653 0)
(0.199707 0.00575728 0)
(0.200173 0.00565168 0)
(0.200594 0.00549467 0)
(0.200912 0.00531717 0)
(0.201194 0.00514333 0)
(0.201408 0.00496419 0)
(0.201635 0.0047819 0)
(0.201802 0.00458812 0)
(0.201989 0.00439415 0)
(0.202097 0.00419436 0)
(0.202232 0.00400373 0)
(0.202281 0.00380526 0)
(0.202378 0.00361414 0)
(0.202372 0.0034111 0)
(0.202424 0.00322127 0)
(0.202347 0.00302187 0)
(0.202372 0.00285793 0)
(0.20227 0.00270026 0)
(0.202346 0.00260077 0)
(0.202315 0.00248149 0)
(0.202532 0.0023863 0)
(0.202579 0.00220347 0)
(0.202872 0.00204434 0)
(0.202903 0.00179224 0)
(0.203206 0.0016141 0)
(0.20316 0.00133809 0)
(0.203401 0.00118608 0)
(0.203218 0.000947753 0)
(0.203354 0.000875973 0)
(0.203058 0.000721708 0)
(0.197913 0.00472701 0)
(0.198161 0.00497825 0)
(0.198471 0.00518935 0)
(0.19886 0.00534715 0)
(0.199281 0.00543452 0)
(0.199735 0.00544918 0)
(0.200154 0.00539119 0)
(0.200549 0.00528123 0)
(0.200861 0.00513743 0)
(0.201144 0.00498663 0)
(0.20136 0.00482724 0)
(0.201587 0.00466663 0)
(0.201756 0.00449493 0)
(0.201947 0.00432221 0)
(0.202062 0.00413757 0)
(0.202206 0.00395962 0)
(0.202265 0.00377243 0)
(0.202374 0.00359319 0)
(0.202381 0.00339999 0)
(0.202448 0.00322099 0)
(0.202389 0.00302802 0)
(0.20243 0.00286752 0)
(0.202342 0.00270442 0)
(0.202419 0.00259489 0)
(0.202382 0.00245972 0)
(0.202581 0.0023544 0)
(0.202616 0.00216524 0)
(0.202889 0.00200809 0)
(0.202912 0.00175867 0)
(0.203196 0.00158811 0)
(0.203147 0.00132079 0)
(0.203374 0.00117882 0)
(0.203199 0.000952478 0)
(0.203328 0.000886637 0)
(0.203047 0.000745927 0)
(0.198224 0.00447918 0)
(0.198432 0.00469475 0)
(0.198694 0.00487803 0)
(0.199028 0.00502172 0)
(0.199392 0.00511238 0)
(0.199792 0.00514918 0)
(0.200166 0.00512703 0)
(0.200531 0.00505821 0)
(0.200828 0.0049491 0)
(0.201107 0.00482371 0)
(0.201323 0.00468374 0)
(0.201551 0.00454272 0)
(0.201722 0.00439113 0)
(0.201914 0.00423994 0)
(0.202034 0.00407255 0)
(0.202185 0.00390805 0)
(0.202253 0.00373223 0)
(0.202372 0.00356571 0)
(0.202393 0.00338251 0)
(0.202474 0.00321417 0)
(0.202433 0.003028 0)
(0.202492 0.00287189 0)
(0.202422 0.00270492 0)
(0.202508 0.00258744 0)
(0.202472 0.00243829 0)
(0.202658 0.00232357 0)
(0.202681 0.00212807 0)
(0.202935 0.00197263 0)
(0.202945 0.00172602 0)
(0.203207 0.00156298 0)
(0.20315 0.00130442 0)
(0.203362 0.00117231 0)
(0.203187 0.000957962 0)
(0.203309 0.000898183 0)
(0.203036 0.000771035 0)
(0.198519 0.00424188 0)
(0.198691 0.00443022 0)
(0.198912 0.00459141 0)
(0.1992 0.00472188 0)
(0.199516 0.00481102 0)
(0.19987 0.00486078 0)
(0.200204 0.00486401 0)
(0.200537 0.00482906 0)
(0.200814 0.00475305 0)
(0.201082 0.00465474 0)
(0.201296 0.00453472 0)
(0.201525 0.00441175 0)
(0.201698 0.00427804 0)
(0.201891 0.00414722 0)
(0.202013 0.00399857 0)
(0.202169 0.00384899 0)
(0.202246 0.00368398 0)
(0.202375 0.00353054 0)
(0.202407 0.00335808 0)
(0.202502 0.00320028 0)
(0.202478 0.00302088 0)
(0.202553 0.00286987 0)
(0.202503 0.00270041 0)
(0.202598 0.00257696 0)
(0.202567 0.00241603 0)
(0.202744 0.00229348 0)
(0.202756 0.00209231 0)
(0.202989 0.00193868 0)
(0.202985 0.00169508 0)
(0.203225 0.0015395 0)
(0.203157 0.00128966 0)
(0.203352 0.00116724 0)
(0.203177 0.000964785 0)
(0.20329 0.000911134 0)
(0.203023 0.000797351 0)
(0.1988 0.00401145 0)
(0.19894 0.00417981 0)
(0.199123 0.00432489 0)
(0.19937 0.00444468 0)
(0.199647 0.00452986 0)
(0.199963 0.0045857 0)
(0.200262 0.00460529 0)
(0.200564 0.00459642 0)
(0.200817 0.0045501 0)
(0.201069 0.00447939 0)
(0.201276 0.00438065 0)
(0.201504 0.0042752 0)
(0.20168 0.00415737 0)
(0.201875 0.00404498 0)
(0.201998 0.00391521 0)
(0.202156 0.00378273 0)
(0.202242 0.00362829 0)
(0.202379 0.00348693 0)
(0.202423 0.00332593 0)
(0.202529 0.00317909 0)
(0.202521 0.00300617 0)
(0.202611 0.0028607 0)
(0.202578 0.00269016 0)
(0.202683 0.00256286 0)
(0.202658 0.00239249 0)
(0.202825 0.00226405 0)
(0.202828 0.00205841 0)
(0.203041 0.00190692 0)
(0.203024 0.00166653 0)
(0.203241 0.00151833 0)
(0.203163 0.00127697 0)
(0.20334 0.00116391 0)
(0.203164 0.000973069 0)
(0.203269 0.000925691 0)
(0.203008 0.000825036 0)
(0.199067 0.00378682 0)
(0.19918 0.00394014 0)
(0.199327 0.00407432 0)
(0.199537 0.00418678 0)
(0.199777 0.00426774 0)
(0.200061 0.00432514 0)
(0.200332 0.00435367 0)
(0.200607 0.00436292 0)
(0.200835 0.00434107 0)
(0.201067 0.00429676 0)
(0.201262 0.00422033 0)
(0.201486 0.00413282 0)
(0.201665 0.00402913 0)
(0.201862 0.00393293 0)
(0.201986 0.00382083 0)
(0.202144 0.00370747 0)
(0.202236 0.00356519 0)
(0.202382 0.00343444 0)
(0.202438 0.00328477 0)
(0.202553 0.00315024 0)
(0.202559 0.00298388 0)
(0.202663 0.00284404 0)
(0.202646 0.00267373 0)
(0.202758 0.00254481 0)
(0.202738 0.00236734 0)
(0.202898 0.00223509 0)
(0.202893 0.00202652 0)
(0.203087 0.00187787 0)
(0.203057 0.001641 0)
(0.203252 0.00150018 0)
(0.203164 0.00126691 0)
(0.203324 0.00116273 0)
(0.203148 0.000982897 0)
(0.203243 0.000941625 0)
(0.20299 0.000854001 0)
(0.199319 0.00357028 0)
(0.199411 0.00371019 0)
(0.199526 0.00383645 0)
(0.199697 0.0039445 0)
(0.199902 0.0040226 0)
(0.200156 0.00407966 0)
(0.200404 0.0041119 0)
(0.200657 0.00413207 0)
(0.200863 0.00412823 0)
(0.201073 0.00410747 0)
(0.201251 0.00405346 0)
(0.201467 0.00398523 0)
(0.201647 0.00389492 0)
(0.201848 0.00381255 0)
(0.201974 0.00371576 0)
(0.20213 0.00362167 0)
(0.202224 0.00349424 0)
(0.202379 0.00337353 0)
(0.202446 0.00323325 0)
(0.20257 0.00311232 0)
(0.202588 0.00295373 0)
(0.202703 0.00281964 0)
(0.202701 0.00265066 0)
(0.202819 0.00252253 0)
(0.202805 0.00234045 0)
(0.202957 0.00220638 0)
(0.202945 0.00199651 0)
(0.203121 0.00185165 0)
(0.20308 0.00161873 0)
(0.203254 0.0014854 0)
(0.203159 0.00126009 0)
(0.203301 0.00116423 0)
(0.203127 0.000994865 0)
(0.203213 0.000959096 0)
(0.202969 0.000884073 0)
(0.199549 0.00336566 0)
(0.199631 0.0034911 0)
(0.199718 0.00360961 0)
(0.199852 0.00371483 0)
(0.20002 0.00379196 0)
(0.200245 0.0038492 0)
(0.200471 0.00388243 0)
(0.200708 0.0039081 0)
(0.200897 0.00391542 0)
(0.201086 0.00391364 0)
(0.201244 0.00388067 0)
(0.201446 0.00383286 0)
(0.201624 0.00375672 0)
(0.201828 0.00368626 0)
(0.201958 0.00360198 0)
(0.202111 0.00352522 0)
(0.202205 0.00341473 0)
(0.202365 0.00330586 0)
(0.202445 0.00317222 0)
(0.202576 0.00306437 0)
(0.202604 0.0029155 0)
(0.202728 0.00278772 0)
(0.20274 0.00262068 0)
(0.202863 0.00249546 0)
(0.202853 0.00231154 0)
(0.202999 0.00217763 0)
(0.202982 0.00196805 0)
(0.203141 0.00182797 0)
(0.203092 0.00159949 0)
(0.203247 0.00147361 0)
(0.203145 0.00125625 0)
(0.203272 0.00116851 0)
(0.2031 0.00100914 0)
(0.203178 0.000978877 0)
(0.202943 0.000915531 0)
(0.19975 0.00317634 0)
(0.199834 0.00328501 0)
(0.199902 0.00339323 0)
(0.200002 0.00349498 0)
(0.200133 0.00357207 0)
(0.200325 0.00363111 0)
(0.200531 0.003665 0)
(0.200753 0.00369299 0)
(0.20093 0.0037055 0)
(0.201102 0.00371648 0)
(0.20124 0.00370118 0)
(0.201424 0.00367339 0)
(0.201594 0.00361319 0)
(0.201799 0.0035541 0)
(0.201934 0.00347976 0)
(0.202086 0.00341736 0)
(0.202177 0.00332364 0)
(0.202337 0.00323047 0)
(0.20243 0.0031028 0)
(0.202569 0.00300557 0)
(0.202604 0.00286844 0)
(0.202734 0.00274903 0)
(0.202759 0.00258455 0)
(0.202886 0.00246382 0)
(0.202881 0.00228077 0)
(0.20302 0.00214908 0)
(0.203001 0.00194099 0)
(0.203146 0.00180671 0)
(0.203091 0.00158301 0)
(0.203228 0.00146444 0)
(0.203123 0.00125436 0)
(0.203235 0.00117471 0)
(0.203068 0.00102469 0)
(0.203138 0.00100029 0)
(0.202914 0.000948419 0)
(0.199918 0.00300523 0)
(0.200013 0.00309523 0)
(0.200073 0.00318917 0)
(0.200146 0.00328428 0)
(0.200241 0.00336028 0)
(0.200399 0.00342214 0)
(0.200581 0.00345808 0)
(0.200789 0.00348772 0)
(0.200957 0.00350197 0)
(0.201117 0.00351969 0)
(0.201238 0.00351735 0)
(0.201402 0.00350751 0)
(0.201558 0.00346463 0)
(0.20176 0.00341844 0)
(0.2019 0.00335216 0)
(0.202052 0.00330107 0)
(0.202141 0.00322103 0)
(0.202296 0.00314603 0)
(0.202397 0.00302658 0)
(0.202546 0.00293618 0)
(0.202588 0.00281022 0)
(0.20272 0.00270221 0)
(0.202756 0.00254145 0)
(0.202886 0.00242635 0)
(0.202887 0.00224681 0)
(0.20302 0.00212011 0)
(0.203001 0.00191496 0)
(0.203132 0.00178755 0)
(0.203074 0.00156938 0)
(0.203196 0.00145795 0)
(0.203091 0.00125445 0)
(0.20319 0.00118186 0)
(0.203029 0.00104075 0)
(0.203091 0.00102115 0)
(0.20288 0.000981473 0)
(0.200052 0.00285251 0)
(0.200162 0.00292405 0)
(0.200223 0.00300044 0)
(0.20028 0.00308443 0)
(0.200346 0.00315623 0)
(0.200471 0.00321997 0)
(0.200625 0.00325924 0)
(0.200816 0.00329139 0)
(0.200975 0.00330641 0)
(0.201128 0.00332661 0)
(0.201236 0.00333174 0)
(0.201381 0.00333626 0)
(0.201521 0.00330986 0)
(0.201713 0.00327912 0)
(0.201855 0.0032209 0)
(0.202008 0.00317927 0)
(0.202096 0.00310971 0)
(0.202244 0.00305239 0)
(0.202347 0.0029463 0)
(0.202504 0.00286178 0)
(0.202554 0.00274389 0)
(0.202685 0.00264982 0)
(0.202731 0.00249505 0)
(0.202863 0.00238571 0)
(0.202869 0.00221128 0)
(0.202997 0.0020917 0)
(0.202979 0.00189123 0)
(0.2031 0.00177104 0)
(0.203042 0.0015597 0)
(0.203151 0.00145532 0)
(0.203048 0.0012584 0)
(0.203136 0.00119158 0)
(0.202983 0.00105875 0)
(0.203039 0.00104226 0)
(0.202841 0.0010138 0)
(0.200155 0.00270982 0)
(0.200276 0.0027665 0)
(0.200344 0.00282569 0)
(0.200396 0.00289592 0)
(0.200444 0.0029602 0)
(0.200541 0.0030233 0)
(0.200667 0.00306551 0)
(0.200836 0.00310104 0)
(0.200984 0.00311706 0)
(0.201131 0.003138 0)
(0.201233 0.0031456 0)
(0.201362 0.00315978 0)
(0.201485 0.00314629 0)
(0.201661 0.00313146 0)
(0.2018 0.00308274 0)
(0.201953 0.00304932 0)
(0.202043 0.00298819 0)
(0.202184 0.00294481 0)
(0.202283 0.00285511 0)
(0.202444 0.00278009 0)
(0.202503 0.00266724 0)
(0.202632 0.00258782 0)
(0.202683 0.00244306 0)
(0.202817 0.00234107 0)
(0.202829 0.0021731 0)
(0.202951 0.00206295 0)
(0.202937 0.00186917 0)
(0.203049 0.00175726 0)
(0.202994 0.00155335 0)
(0.203091 0.00145751 0)
(0.202994 0.00126707 0)
(0.203072 0.00120702 0)
(0.202929 0.00108153 0)
(0.202979 0.00106914 0)
(0.202797 0.0010488 0)
(0.20024 0.00256965 0)
(0.200362 0.00261619 0)
(0.200437 0.00266165 0)
(0.200491 0.00271872 0)
(0.200532 0.00277315 0)
(0.200609 0.00283206 0)
(0.200709 0.002874 0)
(0.200853 0.00291199 0)
(0.200987 0.00292898 0)
(0.201125 0.00295088 0)
(0.201224 0.00295839 0)
(0.201343 0.00297755 0)
(0.20145 0.00297209 0)
(0.201608 0.00297001 0)
(0.201737 0.00293195 0)
(0.201888 0.00290695 0)
(0.201979 0.0028534 0)
(0.202115 0.00282061 0)
(0.202209 0.00274465 0)
(0.202366 0.00268365 0)
(0.202435 0.00257599 0)
(0.202562 0.00250872 0)
(0.202616 0.00237616 0)
(0.202749 0.00228448 0)
(0.202769 0.0021241 0)
(0.202885 0.0020252 0)
(0.202876 0.00184004 0)
(0.20298 0.00173796 0)
(0.202931 0.00154176 0)
(0.203018 0.0014552 0)
(0.202929 0.00127178 0)
(0.202998 0.00121887 0)
(0.202868 0.00110177 0)
(0.202911 0.00109449 0)
(0.202747 0.00108409 0)
(0.200399 0.00228289 0)
(0.200506 0.00231995 0)
(0.200589 0.00235073 0)
(0.200655 0.00239062 0)
(0.200693 0.0024261 0)
(0.200739 0.00247053 0)
(0.20079 0.00250219 0)
(0.200879 0.00253752 0)
(0.200975 0.00255354 0)
(0.201091 0.00257704 0)
(0.201183 0.00258306 0)
(0.201285 0.00260358 0)
(0.201365 0.00260154 0)
(0.201481 0.0026114 0)
(0.201584 0.00258828 0)
(0.201719 0.0025812 0)
(0.201812 0.00254166 0)
(0.201934 0.00252718 0)
(0.202016 0.00246994 0)
(0.202151 0.00243725 0)
(0.202231 0.00235071 0)
(0.202354 0.00230557 0)
(0.202408 0.00219624 0)
(0.20253 0.00213163 0)
(0.202565 0.00199253 0)
(0.202671 0.00191827 0)
(0.202676 0.00175583 0)
(0.202767 0.00167781 0)
(0.202738 0.00150225 0)
(0.20281 0.00143519 0)
(0.202746 0.00127029 0)
(0.2028 0.00123043 0)
(0.202705 0.00113274 0)
(0.202736 0.00113359 0)
(0.202615 0.00114754 0)
(0.20051 0.00188625 0)
(0.200565 0.00191543 0)
(0.200622 0.00193534 0)
(0.200679 0.00196201 0)
(0.20072 0.00198059 0)
(0.20076 0.00201014 0)
(0.200793 0.00202943 0)
(0.200846 0.0020599 0)
(0.200904 0.00207422 0)
(0.200983 0.00210013 0)
(0.201053 0.00210623 0)
(0.201132 0.00212866 0)
(0.201195 0.00212866 0)
(0.201277 0.00214863 0)
(0.201351 0.00213879 0)
(0.201453 0.00215113 0)
(0.201533 0.00212688 0)
(0.201633 0.00213214 0)
(0.201705 0.0020939 0)
(0.20181 0.00209072 0)
(0.201884 0.0020317 0)
(0.20199 0.00201601 0)
(0.202049 0.00193578 0)
(0.202149 0.00190895 0)
(0.202197 0.00180331 0)
(0.202287 0.00176637 0)
(0.202312 0.0016385 0)
(0.202388 0.00159689 0)
(0.20239 0.00145274 0)
(0.202449 0.00141476 0)
(0.202426 0.00127617 0)
(0.202468 0.00125616 0)
(0.202424 0.00118108 0)
(0.202447 0.00119304 0)
(0.202385 0.00122916 0)
(0.200534 0.00157575 0)
(0.200563 0.00159878 0)
(0.200596 0.00161335 0)
(0.200634 0.00163518 0)
(0.200668 0.00164732 0)
(0.200703 0.00167028 0)
(0.200735 0.00168234 0)
(0.200774 0.00170779 0)
(0.200815 0.0017184 0)
(0.200868 0.00174367 0)
(0.200919 0.00174945 0)
(0.200977 0.00177335 0)
(0.201029 0.00177443 0)
(0.201092 0.00179845 0)
(0.20115 0.00179396 0)
(0.201222 0.00181567 0)
(0.201286 0.00180108 0)
(0.201362 0.00181842 0)
(0.201425 0.00179251 0)
(0.201504 0.0018054 0)
(0.201569 0.00176435 0)
(0.20165 0.00176882 0)
(0.20171 0.00170925 0)
(0.201788 0.00170605 0)
(0.201842 0.00162587 0)
(0.201913 0.00161465 0)
(0.201955 0.00151411 0)
(0.202015 0.00149807 0)
(0.202044 0.0013808 0)
(0.20209 0.00136406 0)
(0.202104 0.00124825 0)
(0.202133 0.00124235 0)
(0.202135 0.0011847 0)
(0.202147 0.0012029 0)
(0.202139 0.00125172 0)
(0.200499 0.00132857 0)
(0.200518 0.00134617 0)
(0.200539 0.00135607 0)
(0.200564 0.0013742 0)
(0.20059 0.00138262 0)
(0.200619 0.00140182 0)
(0.200647 0.00140934 0)
(0.200678 0.00143038 0)
(0.200709 0.00143675 0)
(0.200746 0.00145912 0)
(0.200783 0.00146285 0)
(0.200825 0.00148589 0)
(0.200868 0.00148621 0)
(0.200914 0.00151021 0)
(0.20096 0.00150634 0)
(0.201011 0.00153052 0)
(0.201062 0.0015201 0)
(0.201118 0.00154311 0)
(0.201172 0.00152418 0)
(0.20123 0.00154526 0)
(0.201287 0.00151524 0)
(0.201348 0.00153231 0)
(0.201406 0.00148807 0)
(0.201465 0.00150035 0)
(0.201521 0.00143994 0)
(0.201576 0.00144692 0)
(0.201629 0.00136915 0)
(0.201675 0.00137141 0)
(0.201722 0.00127788 0)
(0.201756 0.00127663 0)
(0.201796 0.00118237 0)
(0.201816 0.00118655 0)
(0.201852 0.00114551 0)
(0.201858 0.00116767 0)
(0.201894 0.00122665 0)
(0.200433 0.00111714 0)
(0.200448 0.00113098 0)
(0.200466 0.00113747 0)
(0.200484 0.00115242 0)
(0.200504 0.00115801 0)
(0.200525 0.00117423 0)
(0.200548 0.0011788 0)
(0.200571 0.00119659 0)
(0.200597 0.00120007 0)
(0.200623 0.00121971 0)
(0.200653 0.00122163 0)
(0.200683 0.00124304 0)
(0.200718 0.00124266 0)
(0.200751 0.00126583 0)
(0.200789 0.00126242 0)
(0.200825 0.00128725 0)
(0.200868 0.00127956 0)