# Residuals  
# Time       	p            	Ux           	Uy           
1e-05        	1.000000e+00	1.000000e+00	0.000000e+00
2e-05        	3.507030e-03	3.884760e-02	1.476390e-01
3e-05        	2.117330e-03	2.144340e-02	7.781240e-02
4e-05        	1.717770e-03	1.461830e-02	5.098020e-02
5e-05        	1.764320e-03	1.072980e-02	3.619540e-02
6e-05        	1.455970e-03	8.260580e-03	2.714560e-02
7e-05        	1.810140e-03	6.880080e-03	2.271150e-02
8e-05        	1.671580e-03	5.797040e-03	1.902350e-02
9e-05        	1.501530e-03	5.029940e-03	1.653850e-02
0.0001       	1.690710e-03	4.434880e-03	1.462330e-02
0.00011      	1.629620e-03	3.965520e-03	1.313340e-02
0.00012      	1.514840e-03	3.589040e-03	1.195400e-02
0.00013      	1.512990e-03	3.285360e-03	1.101820e-02
0.00014      	1.578140e-03	3.037530e-03	1.027100e-02
0.00015      	2.004530e-03	2.835190e-03	9.682990e-03
0.00016      	2.050570e-03	2.611120e-03	8.873170e-03
0.00017      	2.555360e-03	2.433720e-03	8.280170e-03
0.00018      	2.128200e-03	2.257550e-03	7.638950e-03
0.00019      	3.910290e-03	2.111350e-03	7.136340e-03
0.0002       	3.298740e-03	2.035740e-03	7.032820e-03
0.00021      	2.868710e-03	1.930390e-03	6.697370e-03
0.00022      	2.895100e-03	1.821380e-03	6.307210e-03
0.00023      	2.023160e-03	1.799430e-03	6.436690e-03
0.00024      	1.949770e-03	1.739840e-03	6.286710e-03
0.00025      	1.924880e-03	1.687020e-03	6.154070e-03
0.00026      	1.853410e-03	1.638200e-03	6.025330e-03
0.00027      	1.773180e-03	1.592490e-03	5.897960e-03
0.00028      	1.853990e-03	1.551050e-03	5.780250e-03
0.00029      	2.057720e-03	1.517860e-03	5.701270e-03
0.0003       	2.481680e-03	1.495850e-03	5.675540e-03
0.00031      	3.040360e-03	1.415540e-03	5.276900e-03
0.00032      	4.077460e-03	1.335020e-03	4.880010e-03
0.00033      	2.959030e-03	1.292400e-03	4.718730e-03
0.00034      	3.278760e-03	1.243390e-03	4.511100e-03
0.00035      	3.560280e-03	1.200460e-03	4.338140e-03
0.00036      	3.813440e-03	1.160730e-03	4.182730e-03
0.00037      	4.026880e-03	1.130400e-03	4.082750e-03
0.00038      	2.940630e-03	1.114460e-03	4.064020e-03
0.00039      	5.130520e-03	1.092570e-03	4.005120e-03
0.0004       	3.646890e-03	1.032040e-03	3.706680e-03
0.00041      	2.768030e-03	9.466230e-04	3.254050e-03
0.00042      	2.367460e-03	9.374790e-04	3.277310e-03
0.00043      	2.297500e-03	9.168800e-04	3.224230e-03
0.00044      	2.358670e-03	8.976040e-04	3.174440e-03
0.00045      	2.452560e-03	8.818040e-04	3.142100e-03
0.00046      	3.213790e-03	8.707470e-04	3.137520e-03
0.00047      	4.243480e-03	8.680650e-04	3.181250e-03
0.00048      	3.015840e-03	8.893440e-04	3.370690e-03
0.00049      	2.869220e-03	8.568520e-04	3.211510e-03
0.0005       	5.079860e-03	8.111840e-04	2.968770e-03
0.00051      	3.268150e-03	7.806500e-04	2.825030e-03
0.00052      	3.139470e-03	7.373940e-04	2.599860e-03
0.00053      	4.226440e-03	7.232840e-04	2.558390e-03
0.00054      	4.472160e-03	7.206830e-04	2.588230e-03
0.00055      	4.586930e-03	7.063770e-04	2.541460e-03
0.00056      	3.818510e-03	6.954210e-04	2.516250e-03
0.00057      	4.258680e-03	6.736790e-04	2.420960e-03
0.00058      	5.467410e-03	6.489900e-04	2.304820e-03
0.00059      	4.324250e-03	6.361130e-04	2.261620e-03
0.0006       	6.816080e-03	6.376490e-04	2.313920e-03
0.00061      	4.622680e-03	6.340900e-04	2.330640e-03
0.00062      	3.402110e-03	6.465360e-04	2.446720e-03
0.00063      	2.702880e-03	6.772290e-04	2.674380e-03
0.00064      	3.071860e-03	6.613250e-04	2.595830e-03
0.00065      	2.527570e-03	6.220270e-04	2.366410e-03
0.00066      	2.617060e-03	6.182840e-04	2.368530e-03
0.00067      	2.710680e-03	6.137480e-04	2.366000e-03
0.00068      	2.876460e-03	6.093440e-04	2.365010e-03
0.00069      	4.362990e-03	6.071530e-04	2.378150e-03
0.0007       	5.970240e-03	6.148010e-04	2.452210e-03
0.00071      	4.521250e-03	6.271950e-04	2.554090e-03
0.00072      	4.332630e-03	5.986770e-04	2.391010e-03
0.00073      	6.054970e-03	5.514720e-04	2.108180e-03
0.00074      	4.581910e-03	5.281770e-04	1.985390e-03
0.00075      	3.594850e-03	5.124300e-04	1.913590e-03
0.00076      	3.667590e-03	5.026790e-04	1.875480e-03
0.00077      	4.116800e-03	4.721750e-04	1.716600e-03
0.00078      	3.601620e-03	4.611240e-04	1.671230e-03
0.00079      	3.667070e-03	4.511020e-04	1.631530e-03
0.0008       	4.660540e-03	4.421770e-04	1.600140e-03
0.00081      	5.145760e-03	4.340030e-04	1.573630e-03
0.00082      	4.932200e-03	4.263950e-04	1.550170e-03
0.00083      	6.755570e-03	4.200140e-04	1.532960e-03
0.00084      	6.909570e-03	4.101250e-04	1.493040e-03
0.00085      	6.439930e-03	3.914110e-04	1.398890e-03
0.00086      	5.877870e-03	3.876420e-04	1.393700e-03
0.00087      	8.021480e-03	4.093340e-04	1.543410e-03
0.00088      	6.093230e-03	4.259420e-04	1.660140e-03
0.00089      	4.588180e-03	4.265640e-04	1.677840e-03
0.0009       	4.327070e-03	4.173550e-04	1.637210e-03
0.00091      	4.079810e-03	4.163590e-04	1.643600e-03
0.00092      	4.283250e-03	4.029380e-04	1.574620e-03
0.00093      	4.794000e-03	4.069750e-04	1.611480e-03
0.00094      	4.846330e-03	4.150480e-04	1.673470e-03
0.00095      	4.706060e-03	4.168600e-04	1.697760e-03
0.00096      	4.509920e-03	4.091620e-04	1.664680e-03
0.00097      	4.457750e-03	4.056170e-04	1.655970e-03
0.00098      	5.702430e-03	4.063700e-04	1.673040e-03
0.00099      	6.246630e-03	3.979130e-04	1.634710e-03
0.001        	7.089180e-03	4.040190e-04	1.684230e-03
0.00101      	5.772530e-03	4.180220e-04	1.788420e-03
0.00102      	5.727490e-03	4.440320e-04	1.969330e-03
0.00103      	5.556650e-03	4.379080e-04	1.934080e-03
0.00104      	6.985930e-03	4.129740e-04	1.774220e-03
0.00105      	4.569040e-03	4.411770e-04	1.966050e-03
0.00106      	4.987980e-03	4.202530e-04	1.833020e-03
0.00107      	5.225280e-03	3.806400e-04	1.584130e-03
0.00108      	5.057580e-03	3.719900e-04	1.538830e-03
0.00109      	4.221620e-03	3.661330e-04	1.509910e-03
0.0011       	4.082310e-03	3.622010e-04	1.493880e-03
0.00111      	3.783840e-03	3.617960e-04	1.499550e-03
0.00112      	4.143300e-03	3.513320e-04	1.445580e-03
0.00113      	4.722020e-03	3.370890e-04	1.369790e-03
0.00114      	5.161910e-03	3.189190e-04	1.269860e-03
0.00115      	5.206570e-03	3.115870e-04	1.235640e-03
0.00116      	6.429220e-03	3.072110e-04	1.219770e-03
0.00117      	9.255200e-03	3.117420e-04	1.257430e-03
0.00118      	9.109320e-03	2.969300e-04	1.177400e-03
0.00119      	1.090590e-02	2.677060e-04	1.023610e-03
0.0012       	1.002460e-02	2.509950e-04	9.403050e-04
0.00121      	1.008640e-02	2.550570e-04	9.700820e-04
0.00122      	1.025480e-02	2.728060e-04	1.077770e-03
0.00123      	1.097020e-02	2.513650e-04	9.649850e-04
0.00124      	7.947690e-03	2.506100e-04	9.691250e-04
0.00125      	7.621250e-03	2.534990e-04	9.933670e-04
0.00126      	6.890330e-03	2.538860e-04	1.002370e-03
0.00127      	7.049720e-03	2.538080e-04	1.008520e-03
0.00128      	6.751040e-03	2.539880e-04	1.015930e-03
0.00129      	7.200090e-03	2.547850e-04	1.027950e-03
0.0013       	6.112710e-03	2.565210e-04	1.046590e-03
0.00131      	7.169580e-03	2.594540e-04	1.071660e-03
0.00132      	6.754020e-03	2.642810e-04	1.107010e-03
0.00133      	7.248170e-03	2.723770e-04	1.160200e-03
0.00134      	5.630940e-03	2.684160e-04	1.145270e-03
0.00135      	5.930860e-03	2.670420e-04	1.144680e-03
0.00136      	7.846230e-03	2.583700e-04	1.102380e-03
0.00137      	9.392480e-03	2.532410e-04	1.081040e-03
0.00138      	9.753920e-03	2.817440e-04	1.252820e-03
0.00139      	8.024410e-03	3.039450e-04	1.410540e-03
0.0014       	7.886450e-03	2.987280e-04	1.379260e-03
0.00141      	7.424490e-03	3.042500e-04	1.421270e-03
0.00142      	6.756490e-03	2.904550e-04	1.332090e-03
0.00143      	7.093240e-03	2.618770e-04	1.153370e-03
0.00144      	1.052250e-02	2.683280e-04	1.193610e-03
0.00145      	7.624230e-03	2.754020e-04	1.242160e-03
0.00146      	5.677880e-03	2.760640e-04	1.250300e-03
0.00147      	5.331530e-03	2.761820e-04	1.253950e-03
0.00148      	5.886090e-03	2.760060e-04	1.254670e-03
0.00149      	5.780570e-03	2.771910e-04	1.264430e-03
0.0015       	5.939230e-03	2.800520e-04	1.285260e-03
0.00151      	6.029510e-03	2.847090e-04	1.318580e-03
0.00152      	6.322160e-03	2.944140e-04	1.385810e-03
0.00153      	4.554490e-03	3.115620e-04	1.501980e-03
0.00154      	5.858500e-03	3.042780e-04	1.453980e-03
0.00155      	5.692620e-03	2.743370e-04	1.256220e-03
0.00156      	5.372540e-03	2.658190e-04	1.203090e-03
0.00157      	4.782310e-03	2.670930e-04	1.215700e-03
0.00158      	6.683710e-03	2.668400e-04	1.218400e-03
0.00159      	7.274140e-03	2.693550e-04	1.239430e-03
0.0016       	7.741030e-03	2.745980e-04	1.279230e-03
0.00161      	7.420230e-03	2.463270e-04	1.105960e-03
0.00162      	1.077240e-02	2.167260e-04	9.466820e-04
0.00163      	1.285390e-02	1.936800e-04	8.312640e-04
0.00164      	1.377280e-02	1.934140e-04	8.340910e-04
0.00165      	1.166820e-02	1.823850e-04	7.857430e-04
0.00166      	1.027320e-02	1.922620e-04	8.313880e-04
0.00167      	1.175000e-02	1.965500e-04	8.549510e-04
0.00168      	1.089580e-02	1.877920e-04	8.136450e-04
0.00169      	9.325770e-03	1.878740e-04	8.170430e-04
0.0017       	7.747290e-03	1.879300e-04	8.197270e-04
0.00171      	7.884290e-03	1.868450e-04	8.161440e-04
0.00172      	8.238060e-03	1.853470e-04	8.102310e-04
0.00173      	8.467360e-03	1.838570e-04	8.039120e-04
0.00174      	8.679140e-03	1.825380e-04	7.988160e-04
0.00175      	8.219160e-03	1.815330e-04	7.959150e-04
0.00176      	7.969490e-03	1.810900e-04	7.964230e-04
0.00177      	8.006050e-03	1.817360e-04	8.037290e-04
0.00178      	7.110700e-03	1.827520e-04	8.135570e-04
0.00179      	7.849100e-03	1.791300e-04	7.990860e-04
0.0018       	8.632790e-03	1.778920e-04	7.970940e-04
0.00181      	8.821580e-03	1.713670e-04	7.686580e-04
0.00182      	9.182260e-03	1.708070e-04	7.706810e-04
0.00183      	1.009060e-02	1.702610e-04	7.727950e-04
0.00184      	1.280280e-02	1.663620e-04	7.597570e-04
0.00185      	1.354830e-02	1.697810e-04	7.795160e-04
0.00186      	7.582680e-03	1.791200e-04	8.292280e-04
0.00187      	7.910380e-03	1.860570e-04	8.676610e-04
0.00188      	7.532160e-03	1.989490e-04	9.432030e-04
0.00189      	9.160930e-03	2.086530e-04	1.005740e-03
0.0019       	9.572130e-03	2.089200e-04	1.008800e-03
0.00191      	9.650680e-03	2.279530e-04	1.134800e-03
0.00192      	8.817710e-03	2.126170e-04	1.038120e-03
0.00193      	1.005810e-02	1.945200e-04	9.315190e-04
0.00194      	1.031830e-02	1.953390e-04	9.371440e-04
0.00195      	6.964480e-03	2.017700e-04	9.775690e-04
0.00196      	6.468090e-03	1.993780e-04	9.662890e-04
0.00197      	6.543570e-03	1.966150e-04	9.519380e-04
0.00198      	6.598130e-03	1.915000e-04	9.229260e-04
0.00199      	5.976990e-03	1.891860e-04	9.103940e-04
0.002        	6.108350e-03	1.897060e-04	9.144830e-04
0.00201      	7.080060e-03	1.910610e-04	9.231690e-04
0.00202      	7.164480e-03	1.927570e-04	9.333480e-04
0.00203      	5.759570e-03	1.911640e-04	9.251850e-04
0.00204      	5.561410e-03	1.919080e-04	9.315580e-04
0.00205      	6.041140e-03	1.941000e-04	9.468780e-04
0.00206      	6.806040e-03	1.969280e-04	9.662840e-04
0.00207      	5.790440e-03	2.015180e-04	9.966570e-04
0.00208      	5.286080e-03	1.939710e-04	9.539470e-04
0.00209      	5.617730e-03	1.895710e-04	9.311920e-04
0.0021       	6.363000e-03	1.911910e-04	9.428390e-04
0.00211      	7.402910e-03	1.962400e-04	9.742890e-04
0.00212      	8.711310e-03	1.969880e-04	9.815210e-04
0.00213      	7.757220e-03	2.086460e-04	1.062650e-03
0.00214      	6.846110e-03	2.025090e-04	1.022620e-03
0.00215      	6.923040e-03	1.926780e-04	9.594580e-04
0.00216      	7.569090e-03	1.881030e-04	9.347820e-04
0.00217      	8.366980e-03	1.828130e-04	9.069810e-04
0.00218      	9.849830e-03	1.740420e-04	8.637030e-04
0.00219      	9.558900e-03	1.729940e-04	8.607290e-04
0.0022       	1.232430e-02	1.780260e-04	8.857000e-04
0.00221      	1.123870e-02	1.583300e-04	8.071580e-04
0.00222      	9.823620e-03	1.679990e-04	8.383860e-04
0.00223      	8.750460e-03	1.789230e-04	8.846420e-04
0.00224      	1.076590e-02	1.782620e-04	8.801890e-04
0.00225      	1.028400e-02	1.583930e-04	7.827440e-04
0.00226      	8.369540e-03	1.586000e-04	7.813850e-04
0.00227      	7.825230e-03	1.575100e-04	7.733010e-04
0.00228      	7.732300e-03	1.558170e-04	7.635120e-04
0.00229      	7.217540e-03	1.556920e-04	7.619740e-04
0.0023       	6.948260e-03	1.538610e-04	7.525050e-04
0.00231      	6.593540e-03	1.524700e-04	7.454210e-04
0.00232      	7.057960e-03	1.506540e-04	7.365370e-04
0.00233      	7.862890e-03	1.487170e-04	7.276550e-04
0.00234      	7.568110e-03	1.465940e-04	7.186430e-04
0.00235      	7.379900e-03	1.442270e-04	7.099080e-04
0.00236      	9.375410e-03	1.414340e-04	7.003550e-04
0.00237      	1.043800e-02	1.372700e-04	6.853780e-04
0.00238      	1.267820e-02	1.324000e-04	6.678070e-04
0.00239      	9.477090e-03	1.363710e-04	6.855900e-04
0.0024       	8.631630e-03	1.358140e-04	6.852230e-04
0.00241      	9.283460e-03	1.343750e-04	6.809740e-04
0.00242      	1.020290e-02	1.326700e-04	6.759760e-04
0.00243      	1.003070e-02	1.305510e-04	6.697030e-04
0.00244      	1.146490e-02	1.265130e-04	6.591280e-04
0.00245      	1.339460e-02	1.200290e-04	6.427530e-04
0.00246      	8.645060e-03	1.303650e-04	6.695890e-04
0.00247      	8.781970e-03	1.312090e-04	6.723080e-04
0.00248      	1.162700e-02	1.322930e-04	6.757030e-04
0.00249      	1.148100e-02	1.337330e-04	6.796690e-04
0.0025       	9.103290e-03	1.426630e-04	7.153880e-04
0.00251      	1.268940e-02	1.456450e-04	7.346190e-04
0.00252      	1.157690e-02	1.447270e-04	7.318940e-04
0.00253      	1.085610e-02	1.660890e-04	8.537240e-04
0.00254      	1.046570e-02	1.631220e-04	8.241970e-04
0.00255      	1.223080e-02	1.432030e-04	7.198540e-04
0.00256      	1.555450e-02	1.258390e-04	6.659030e-04
0.00257      	1.449380e-02	1.220410e-04	6.546990e-04
0.00258      	1.548250e-02	1.236880e-04	6.570660e-04
0.00259      	1.198480e-02	1.275590e-04	6.667270e-04
0.0026       	1.025560e-02	1.251590e-04	6.650320e-04
0.00261      	9.078270e-03	1.239130e-04	6.653470e-04
0.00262      	8.294000e-03	1.237070e-04	6.682320e-04
0.00263      	7.967860e-03	1.242070e-04	6.726810e-04
0.00264      	8.420670e-03	1.252190e-04	6.782810e-04
0.00265      	8.531940e-03	1.266450e-04	6.846990e-04
0.00266      	9.038590e-03	1.283580e-04	6.918360e-04
0.00267      	8.210920e-03	1.302900e-04	7.004120e-04
0.00268      	8.705680e-03	1.324140e-04	7.112860e-04
0.00269      	8.702770e-03	1.329990e-04	7.152480e-04
0.0027       	8.510430e-03	1.326890e-04	7.154680e-04
0.00271      	6.787690e-03	1.337590e-04	7.224970e-04
0.00272      	7.187030e-03	1.353210e-04	7.322330e-04
0.00273      	7.414440e-03	1.337430e-04	7.267860e-04
0.00274      	8.149760e-03	1.339930e-04	7.299570e-04
0.00275      	8.310000e-03	1.361110e-04	7.418150e-04
0.00276      	9.155000e-03	1.367820e-04	7.465170e-04
0.00277      	8.028520e-03	1.399170e-04	7.639930e-04
0.00278      	7.610400e-03	1.409800e-04	7.707570e-04
0.00279      	8.388720e-03	1.423250e-04	7.787320e-04
0.0028       	9.165800e-03	1.440260e-04	7.886360e-04
0.00281      	8.655130e-03	1.485300e-04	8.137840e-04
0.00282      	7.603520e-03	1.639050e-04	9.089280e-04
0.00283      	6.735760e-03	1.399500e-04	7.696110e-04
0.00284      	6.724580e-03	1.391130e-04	7.669300e-04
0.00285      	7.603560e-03	1.405660e-04	7.751610e-04
0.00286      	8.722330e-03	1.432350e-04	7.888290e-04
0.00287      	1.048040e-02	1.330040e-04	7.414460e-04
0.00288      	1.251300e-02	1.202810e-04	7.042470e-04
0.00289      	1.072140e-02	1.222510e-04	7.104650e-04
0.0029       	1.254080e-02	1.229600e-04	7.123480e-04
0.00291      	1.314350e-02	1.333410e-04	7.479990e-04
0.00292      	1.082090e-02	1.279140e-04	7.335440e-04
0.00293      	1.213710e-02	1.229930e-04	7.296660e-04
0.00294      	1.228350e-02	1.331180e-04	7.482570e-04
0.00295      	1.202230e-02	1.443900e-04	7.960860e-04
0.00296      	1.304520e-02	1.413800e-04	7.784260e-04
0.00297      	1.291810e-02	1.359170e-04	7.535750e-04
0.00298      	1.106810e-02	1.400480e-04	7.747330e-04
0.00299      	7.445320e-03	1.455710e-04	8.033350e-04
0.003        	6.598670e-03	1.518070e-04	8.415220e-04
0.00301      	5.980700e-03	1.565890e-04	8.718940e-04
0.00302      	7.088270e-03	1.582280e-04	8.811070e-04
0.00303      	5.978300e-03	1.596090e-04	8.881650e-04
0.00304      	5.966010e-03	1.572220e-04	8.707130e-04
0.00305      	6.459840e-03	1.572850e-04	8.692950e-04
0.00306      	5.971100e-03	1.561680e-04	8.603520e-04
0.00307      	6.441800e-03	1.501000e-04	8.198570e-04
0.00308      	8.270530e-03	1.470010e-04	7.993980e-04
0.00309      	7.094410e-03	1.426840e-04	7.718860e-04
0.0031       	6.352400e-03	1.508660e-04	8.246490e-04
0.00311      	8.319250e-03	1.493920e-04	8.151150e-04
0.00312      	8.698610e-03	1.308530e-04	7.040650e-04
0.00313      	8.566930e-03	1.206580e-04	6.551910e-04
0.00314      	8.419290e-03	1.234370e-04	6.660620e-04
0.00315      	7.518490e-03	1.174700e-04	6.409840e-04
0.00316      	8.301340e-03	1.175230e-04	6.428790e-04
0.00317      	1.044460e-02	1.145080e-04	6.323490e-04
0.00318      	9.671010e-03	1.117930e-04	6.251690e-04
0.00319      	1.022850e-02	1.072660e-04	6.154290e-04
0.0032       	1.172430e-02	1.089530e-04	6.185310e-04
0.00321      	1.298330e-02	1.040000e-04	6.136040e-04
0.00322      	1.718730e-02	9.909690e-05	6.139080e-04
0.00323      	8.677640e-03	1.088650e-04	6.081790e-04
0.00324      	9.348940e-03	1.083700e-04	6.041990e-04
0.00325      	9.927390e-03	1.079530e-04	6.006370e-04
0.00326      	8.638790e-03	1.079030e-04	5.969680e-04
0.00327      	9.195740e-03	1.088200e-04	5.952960e-04
0.00328      	1.027160e-02	1.128510e-04	6.038870e-04
0.00329      	1.008200e-02	1.165630e-04	6.169630e-04
0.0033       	1.547670e-02	1.037190e-04	5.782240e-04
0.00331      	1.704170e-02	1.072420e-04	5.867270e-04
0.00332      	1.550380e-02	1.176880e-04	6.247920e-04
0.00333      	1.739290e-02	9.902750e-05	5.633390e-04
0.00334      	1.562270e-02	1.030840e-04	5.640260e-04
0.00335      	1.189900e-02	1.081950e-04	5.792660e-04
0.00336      	1.809630e-02	9.360530e-05	5.734140e-04
0.00337      	2.395210e-02	9.127290e-05	5.781390e-04
0.00338      	1.476350e-02	9.185700e-05	5.765130e-04
0.00339      	2.303200e-02	9.248340e-05	5.715280e-04
0.0034       	1.380430e-02	9.366580e-05	5.671590e-04
0.00341      	1.320870e-02	9.192480e-05	5.702400e-04
0.00342      	9.605130e-03	9.088490e-05	5.732200e-04
0.00343      	1.025660e-02	9.032500e-05	5.755540e-04
0.00344      	9.613780e-03	8.999660e-05	5.771340e-04
0.00345      	1.017630e-02	8.983550e-05	5.781050e-04
0.00346      	9.607260e-03	8.982890e-05	5.786190e-04
0.00347      	9.809980e-03	8.997880e-05	5.787850e-04
0.00348      	1.068170e-02	9.038780e-05	5.787400e-04
0.00349      	8.900070e-03	9.148730e-05	5.789050e-04
0.0035       	1.020600e-02	9.260140e-05	5.794360e-04
0.00351      	1.084810e-02	9.015430e-05	5.782260e-04
0.00352      	1.269350e-02	8.941890e-05	5.785150e-04
0.00353      	1.245520e-02	8.947190e-05	5.790060e-04
0.00354      	1.244740e-02	8.996890e-05	5.798000e-04
0.00355      	1.235990e-02	9.008860e-05	5.814910e-04
0.00356      	1.163180e-02	9.034400e-05	5.834890e-04
0.00357      	1.100580e-02	9.078380e-05	5.856270e-04
0.00358      	1.211140e-02	9.142040e-05	5.879050e-04
0.00359      	9.392890e-03	9.216160e-05	5.906450e-04
0.0036       	1.006550e-02	9.289930e-05	5.930450e-04
0.00361      	9.491410e-03	9.294940e-05	5.942180e-04
0.00362      	1.022620e-02	9.314810e-05	5.956180e-04
0.00363      	1.118010e-02	9.862550e-05	6.061000e-04
0.00364      	9.310010e-03	1.008100e-04	6.132480e-04
0.00365      	8.542950e-03	1.051610e-04	6.300720e-04
0.00366      	9.773950e-03	1.175300e-04	6.910880e-04
0.00367      	1.133500e-02	1.027910e-04	6.210410e-04
0.00368      	1.269270e-02	1.051240e-04	6.311010e-04
0.00369      	1.283430e-02	1.124180e-04	6.616410e-04
0.0037       	1.009220e-02	1.272730e-04	7.410240e-04
0.00371      	9.400570e-03	1.034280e-04	6.275810e-04
0.00372      	8.244990e-03	1.049250e-04	6.359700e-04
0.00373      	8.136280e-03	1.054530e-04	6.399930e-04
0.00374      	7.394140e-03	1.065350e-04	6.461900e-04
0.00375      	9.952430e-03	1.066710e-04	6.484650e-04
0.00376      	9.736770e-03	1.037700e-04	6.415920e-04
0.00377      	1.375730e-02	9.377590e-05	6.421890e-04
0.00378      	1.018480e-02	9.620300e-05	6.353780e-04
0.00379      	1.022860e-02	1.017680e-04	6.342340e-04
0.0038       	1.194050e-02	1.035400e-04	6.384220e-04
0.00381      	1.491130e-02	9.952400e-05	6.345490e-04
0.00382      	1.950470e-02	9.477720e-05	6.581100e-04
0.00383      	1.494640e-02	9.807400e-05	6.395200e-04
0.00384      	9.361310e-03	1.103060e-04	6.636050e-04
0.00385      	1.194860e-02	1.127610e-04	6.763220e-04
0.00386      	1.484730e-02	1.133890e-04	6.801860e-04
0.00387      	1.000610e-02	1.115980e-04	6.723710e-04
0.00388      	8.526450e-03	1.161830e-04	6.973690e-04
0.00389      	7.161160e-03	1.111580e-04	6.693230e-04
0.0039       	7.337750e-03	1.193560e-04	7.155900e-04
0.00391      	6.855910e-03	1.220410e-04	7.310580e-04
0.00392      	6.580210e-03	1.230140e-04	7.365700e-04
0.00393      	7.198180e-03	1.252620e-04	7.495730e-04
0.00394      	5.880790e-03	1.267960e-04	7.581670e-04
0.00395      	5.956290e-03	1.275800e-04	7.615970e-04
0.00396      	6.045420e-03	1.286360e-04	7.668730e-04
0.00397      	6.189340e-03	1.296420e-04	7.714480e-04
0.00398      	6.181960e-03	1.307190e-04	7.761620e-04
0.00399      	5.472480e-03	1.318820e-04	7.813990e-04
0.004        	6.188460e-03	1.331990e-04	7.878470e-04
0.00401      	6.782340e-03	1.349330e-04	7.976780e-04
0.00402      	6.291140e-03	1.379320e-04	8.156510e-04
0.00403      	5.445170e-03	1.416850e-04	8.387110e-04
0.00404      	6.956110e-03	1.431880e-04	8.471900e-04
0.00405      	6.276860e-03	1.447440e-04	8.566300e-04
0.00406      	5.727580e-03	1.403460e-04	8.278650e-04
0.00407      	6.443320e-03	1.359690e-04	7.997750e-04
0.00408      	8.019290e-03	1.254920e-04	7.323360e-04
0.00409      	8.056730e-03	1.221110e-04	7.099580e-04
0.0041       	6.673690e-03	1.243510e-04	7.237120e-04
0.00411      	7.874840e-03	1.266330e-04	7.371520e-04
0.00412      	9.287000e-03	1.117920e-04	6.477900e-04
0.00413      	8.729820e-03	1.127410e-04	6.550630e-04
0.00414      	9.176530e-03	1.023330e-04	6.070920e-04
0.00415      	7.372920e-03	1.048480e-04	6.141240e-04
0.00416      	7.066240e-03	1.093430e-04	6.352930e-04
0.00417      	6.239070e-03	1.083220e-04	6.302910e-04
0.00418      	7.924790e-03	1.067660e-04	6.225040e-04
0.00419      	1.242250e-02	1.039100e-04	6.089760e-04
0.0042       	1.185130e-02	9.476570e-05	5.781200e-04
0.00421      	1.112630e-02	9.124510e-05	5.893720e-04
0.00422      	8.235730e-03	1.088870e-04	6.325630e-04
0.00423      	8.294170e-03	1.149580e-04	6.681720e-04
0.00424      	6.896900e-03	1.175560e-04	6.837620e-04
0.00425      	7.818490e-03	1.064670e-04	6.159740e-04
0.00426      	8.248410e-03	9.610390e-05	5.632560e-04
0.00427      	8.289150e-03	9.653380e-05	5.634620e-04
0.00428      	9.885150e-03	9.755050e-05	5.656800e-04
0.00429      	1.054380e-02	1.004780e-04	5.762710e-04
0.0043       	8.721990e-03	1.107620e-04	6.252100e-04
0.00431      	8.792130e-03	1.230930e-04	6.961960e-04
0.00432      	9.702850e-03	8.762900e-05	5.322500e-04
0.00433      	1.282730e-02	8.719380e-05	5.314280e-04
0.00434      	1.308320e-02	8.531580e-05	5.273010e-04
0.00435      	1.489680e-02	8.508110e-05	5.255580e-04
0.00436      	1.494620e-02	8.581380e-05	5.248770e-04
0.00437      	1.213370e-02	8.334880e-05	5.232660e-04
0.00438      	1.450260e-02	8.053080e-05	5.252150e-04
0.00439      	1.139350e-02	8.328340e-05	5.209930e-04
0.0044       	1.074070e-02	8.289870e-05	5.200030e-04
0.00441      	9.825770e-03	8.240260e-05	5.195010e-04
0.00442      	1.286160e-02	8.190200e-05	5.205350e-04
0.00443      	1.022470e-02	9.779350e-05	5.562570e-04
0.00444      	1.121380e-02	9.184370e-05	5.365050e-04
0.00445      	1.443650e-02	7.716640e-05	5.221320e-04
0.00446      	1.296600e-02	7.553120e-05	5.417280e-04
0.00447      	1.708660e-02	7.550270e-05	5.444800e-04
0.00448      	2.020020e-02	7.543370e-05	5.441610e-04
0.00449      	1.960900e-02	7.520980e-05	5.408330e-04
0.0045       	1.887050e-02	7.509140e-05	5.332930e-04
0.00451      	1.132240e-02	7.513460e-05	5.374070e-04
0.00452      	1.262360e-02	7.599150e-05	5.464690e-04
0.00453      	1.450160e-02	7.865780e-05	5.572920e-04
0.00454      	1.512200e-02	8.434830e-05	5.735250e-04
0.00455      	2.016300e-02	9.599000e-05	6.059580e-04
0.00456      	1.715900e-02	8.448390e-05	5.750360e-04
0.00457      	1.313920e-02	7.961020e-05	5.622850e-04
0.00458      	1.349120e-02	8.025330e-05	5.648700e-04
0.00459      	1.456810e-02	8.081220e-05	5.672410e-04
0.0046       	1.465500e-02	8.133920e-05	5.703430e-04
0.00461      	1.572460e-02	8.197190e-05	5.738230e-04
0.00462      	1.419540e-02	8.359000e-05	5.807760e-04
0.00463      	1.435970e-02	8.520340e-05	5.877910e-04
0.00464      	1.190620e-02	7.938520e-05	5.736080e-04
0.00465      	1.170510e-02	7.891860e-05	5.743550e-04
0.00466      	1.092150e-02	7.850550e-05	5.752580e-04
0.00467      	1.334110e-02	7.820460e-05	5.766630e-04
0.00468      	1.567580e-02	7.823400e-05	5.788580e-04
0.00469      	1.439100e-02	7.930120e-05	5.846330e-04
0.0047       	1.343080e-02	8.027900e-05	5.896160e-04
0.00471      	1.428880e-02	7.635900e-05	5.794120e-04
0.00472      	1.719990e-02	7.389060e-05	5.601610e-04
0.00473      	1.865320e-02	7.474370e-05	5.496150e-04
0.00474      	1.800550e-02	8.367770e-05	5.519680e-04
0.00475      	1.764140e-02	7.547150e-05	5.456450e-04
0.00476      	1.069630e-02	9.552630e-05	6.001050e-04
0.00477      	1.179260e-02	7.351050e-05	5.595430e-04
0.00478      	1.162050e-02	7.354880e-05	5.608220e-04
0.00479      	1.004600e-02	7.377790e-05	5.584880e-04
0.0048       	1.171870e-02	7.379080e-05	5.587130e-04
0.00481      	8.788210e-03	7.386270e-05	5.583900e-04
0.00482      	9.433780e-03	7.405450e-05	5.570380e-04
0.00483      	9.607730e-03	7.434640e-05	5.552450e-04
0.00484      	8.715550e-03	7.473710e-05	5.538300e-04
0.00485      	9.281030e-03	7.522830e-05	5.525440e-04
0.00486      	9.775360e-03	7.577720e-05	5.525310e-04
0.00487      	1.024180e-02	7.620340e-05	5.533290e-04
0.00488      	9.827470e-03	7.622780e-05	5.561370e-04
0.00489      	1.210090e-02	7.493300e-05	5.768640e-04
0.0049       	1.345190e-02	7.653130e-05	6.045420e-04
0.00491      	1.256200e-02	7.583210e-05	5.703180e-04
0.00492      	1.130960e-02	9.019750e-05	5.952740e-04
0.00493      	1.401380e-02	8.318310e-05	5.648590e-04
0.00494      	1.045600e-02	7.971740e-05	5.530800e-04
0.00495      	1.068090e-02	8.395750e-05	5.682110e-04
0.00496      	1.007820e-02	8.787190e-05	5.879670e-04
0.00497      	8.627440e-03	8.938580e-05	5.962790e-04
0.00498      	7.552270e-03	9.193320e-05	6.105520e-04
0.00499      	7.532190e-03	9.391290e-05	6.221400e-04
0.005        	8.387170e-03	9.414810e-05	6.231010e-04
0.00501      	7.618290e-03	9.516720e-05	6.290950e-04
0.00502      	7.129890e-03	9.415460e-05	6.230160e-04
0.00503      	8.066700e-03	9.407260e-05	6.223320e-04
0.00504      	7.956120e-03	9.275200e-05	6.146010e-04
0.00505      	6.937500e-03	9.079050e-05	6.028430e-04
0.00506      	8.606550e-03	8.703210e-05	5.823650e-04
0.00507      	9.510240e-03	8.217410e-05	5.613310e-04
0.00508      	1.093300e-02	8.114160e-05	5.636210e-04
0.00509      	8.969200e-03	8.815480e-05	5.861240e-04
0.0051       	7.418670e-03	9.681720e-05	6.364230e-04
0.00511      	8.540950e-03	9.838100e-05	6.452190e-04
0.00512      	8.006310e-03	9.996930e-05	6.537310e-04
0.00513      	1.147080e-02	1.019760e-04	6.653560e-04
0.00514      	1.021230e-02	1.020910e-04	6.648980e-04
0.00515      	1.078580e-02	1.001790e-04	6.502150e-04
0.00516      	9.780860e-03	1.009840e-04	6.536840e-04
0.00517      	7.518600e-03	1.029660e-04	6.647240e-04
0.00518      	6.707630e-03	1.047330e-04	6.746870e-04
0.00519      	5.719460e-03	1.053880e-04	6.767380e-04
0.0052       	5.267030e-03	1.065780e-04	6.825460e-04
0.00521      	5.484830e-03	1.076850e-04	6.879570e-04
0.00522      	5.177020e-03	1.087590e-04	6.938770e-04
0.00523      	5.874570e-03	1.094360e-04	6.973950e-04
0.00524      	5.751160e-03	1.104170e-04	7.035720e-04
0.00525      	5.754370e-03	1.129860e-04	7.202180e-04
0.00526      	6.560580e-03	1.141610e-04	7.276750e-04
0.00527      	6.608390e-03	1.151050e-04	7.332510e-04
0.00528      	6.233460e-03	1.164730e-04	7.415710e-04
0.00529      	6.354450e-03	1.209050e-04	7.694450e-04
0.0053       	5.787470e-03	1.255780e-04	7.990090e-04
0.00531      	6.825480e-03	1.297780e-04	8.245850e-04
0.00532      	6.221310e-03	1.342090e-04	8.510640e-04
0.00533      	6.771990e-03	1.373740e-04	8.692740e-04
0.00534      	6.595950e-03	1.341460e-04	8.487210e-04
0.00535      	6.779890e-03	1.317970e-04	8.336340e-04
0.00536      	7.042340e-03	1.329590e-04	8.399610e-04
0.00537      	7.277300e-03	1.344140e-04	8.474980e-04
0.00538      	8.198820e-03	1.285110e-04	8.085080e-04
0.00539      	7.957770e-03	1.156950e-04	7.270670e-04
0.0054       	8.555170e-03	1.096250e-04	6.876960e-04
0.00541      	5.478220e-03	1.279420e-04	7.988770e-04
0.00542      	6.702360e-03	1.217920e-04	7.580610e-04
0.00543      	6.420380e-03	1.176170e-04	7.302780e-04
0.00544      	6.079380e-03	1.069550e-04	6.605730e-04
0.00545      	7.418010e-03	9.510870e-05	5.841130e-04
0.00546      	8.775460e-03	9.855650e-05	6.058840e-04
0.00547      	1.025760e-02	9.930600e-05	6.120700e-04
0.00548      	1.260680e-02	8.529150e-05	5.432500e-04
0.00549      	7.627390e-03	1.008790e-04	6.163430e-04
0.0055       	9.529790e-03	1.015970e-04	6.188300e-04
0.00551      	8.225570e-03	1.033650e-04	6.279870e-04
0.00552      	7.575870e-03	1.104270e-04	6.662670e-04
0.00553      	6.645300e-03	1.333870e-04	7.995370e-04
0.00554      	5.680110e-03	9.344530e-05	5.636010e-04
0.00555      	6.810670e-03	8.885350e-05	5.393480e-04
0.00556      	6.270160e-03	7.950320e-05	4.965220e-04
0.00557      	6.663100e-03	8.310270e-05	5.105040e-04
0.00558      	7.660390e-03	9.340400e-05	5.585620e-04
0.00559      	8.325560e-03	9.553880e-05	5.695950e-04
0.0056       	9.229640e-03	9.864120e-05	5.885840e-04
0.00561      	8.014080e-03	1.065660e-04	6.353480e-04
0.00562      	8.120290e-03	1.005150e-04	5.932200e-04
0.00563      	8.044550e-03	8.804720e-05	5.152520e-04
0.00564      	8.735530e-03	9.012120e-05	5.200350e-04