/*--------------------------------*- C++ -*----------------------------------*\
| =========                 |                                                 |
| \\      /  F ield         | OpenFOAM: The Open Source CFD Toolbox           |
|  \\    /   O peration     | Version:  5.x                                   |
|   \\  /    A nd           | Web:      www.OpenFOAM.org                      |
|    \\/     M anipulation  |                                                 |
\*---------------------------------------------------------------------------*/
FoamFile
{
    version     2.0;
    format      ascii;
    class       volScalarField;
    location    "0.7";
    object      p;
}
// * * * * * * * * * * * * * * * * * * * * * * * * * * * * * * * * * * * * * //

dimensions      [0 2 -2 0 0 0 0];

internalField   nonuniform List<scalar> 
21600
(
0.018491839
0.016035594
0.012682432
0.0099021924
0.0077081463
0.0057750313
0.0039523252
0.0023107836
0.0010221916
0.00020883625
-0.000142429
-0.00015067583
3.5437676e-05
0.00029505649
0.00055141626
0.00076546439
0.00092519513
0.0010347401
0.0011051673
0.0011483993
0.0011744051
0.0011904612
0.0012013635
0.0012099688
0.0012177771
0.0012254292
0.0012330785
0.0012406401
0.0012479447
0.001254822
0.0012611375
0.0012668031
0.0012717739
0.0012760406
0.0012796201
0.0012825462
0.0012848629
0.0012866184
0.0012878612
0.0012886372
0.0012889887
0.0012889532
0.0012885636
0.001287848
0.001286831
0.0012855332
0.0012839727
0.0012821648
0.0012801234
0.0012778604
0.0012753869
0.0012727127
0.0012698471
0.0012667984
0.0012635748
0.0012601834
0.0012566314
0.0012529252
0.001249071
0.0012450745
0.0012409412
0.0012366759
0.0012322837
0.0012277687
0.0012231352
0.001218387
0.0012135278
0.0012085609
0.0012034897
0.001198317
0.0011930457
0.0011876783
0.0011822175
0.0011766655
0.0011710245
0.0011652965
0.0011594836
0.0011535874
0.0011476099
0.0011415524
0.0011354166
0.0011292038
0.0011229154
0.0011165526
0.0011101166
0.0011036085
0.0010970291
0.0010903796
0.0010836606
0.0010768732
0.0010700178
0.0010630955
0.0010561064
0.0010490516
0.0010419311
0.001034746
0.0010274959
0.0010201822
0.0010128041
0.001005363
0.00099785799
0.00099029063
0.00098265958
0.00097496664
0.00096721016
0.00095939209
0.00095151048
0.00094356751
0.00093556087
0.00092749297
0.0009193612
0.00091116816
0.00090291095
0.0008945924
0.00088620928
0.00087776468
0.00086925507
0.00086068374
0.00085204692
0.00084334809
0.00083458326
0.00082575606
0.00081686232
0.0008079058
0.00079888222
0.00078979537
0.00078064098
0.00077142276
0.00076213659
0.00075278597
0.00074336706
0.000733883
0.00072433046
0.00071471197
0.00070502498
0.00069527113
0.00068544898
0.00067555892
0.00066560104
0.00065557407
0.00064548008
0.00063531563
0.00062508539
0.00061478311
0.00060441678
0.00059397657
0.00058347464
0.00057289665
0.00056226003
0.00055154476
0.0005407748
0.00052992314
0.00051902181
0.00050803516
0.00049700514
0.00048588548
0.00047473026
0.00046348027
0.00045220434
0.00044082752
0.00042943657
0.00041793738
0.00040643842
0.00039482243
0.00038322413
0.00037149835
0.00035981169
0.0003479854
0.00033622436
0.000324309
0.00031248969
0.00030049767
0.00028863872
0.00027658569
0.00026471099
0.00025261735
0.00024075649
0.00022864629
0.00021683467
0.00020473809
0.00019301877
0.00018097219
0.00016939898
0.00015744662
0.00014608539
0.00013428301
0.00012321351
0.0001116296
0.00010095256
8.9671121e-05
7.9514387e-05
6.8640807e-05
5.9168046e-05
4.8834589e-05
4.0262138e-05
3.0633862e-05
2.3261779e-05
1.4535527e-05
8.8338025e-06
1.1074247e-06
0.015967696
0.014645803
0.012192299
0.0097134736
0.0075929667
0.0057455489
0.0040447365
0.0025177327
0.0012981792
0.00049129242
0.00010585541
5.1725255e-05
0.0001945254
0.00041661868
0.00064300995
0.00083442548
0.00097822796
0.0010771722
0.0011406672
0.0011792767
0.0012020405
0.0012156515
0.0012245639
0.0012314509
0.0012377242
0.0012439865
0.0012503747
0.0012567933
0.0012630644
0.0012690079
0.0012744793
0.0012793799
0.0012836552
0.001287287
0.0012902845
0.001292675
0.0012944969
0.0012957937
0.0012966102
0.0012969888
0.0012969692
0.0012965862
0.0012958709
0.0012948496
0.001293545
0.0012919765
0.0012901607
0.001288112
0.001285843
0.0012833648
0.0012806876
0.0012778202
0.0012747714
0.0012715486
0.0012681596
0.0012646108
0.001260909
0.00125706
0.0012530697
0.0012489432
0.0012446858
0.0012403019
0.0012357962
0.0012311726
0.0012264352
0.0012215873
0.0012166325
0.001211574
0.0012064148
0.0012011575
0.0011958049
0.0011903594
0.0011848235
0.0011791991
0.0011734885
0.0011676934
0.0011618159
0.0011558574
0.0011498197
0.0011437042
0.0011375124
0.0011312455
0.0011249049
0.0011184916
0.0011120067
0.0011054514
0.0010988263
0.0010921326
0.0010853708
0.0010785419
0.0010716464
0.0010646852
0.0010576583
0.001050567
0.001043411
0.0010361915
0.0010289081
0.0010215619
0.0010141524
0.0010066807
0.00099914605
0.0009915498
0.00098389078
0.00097617055
0.00096838763
0.00096054374
0.00095263715
0.00094466972
0.00093663944
0.00092854837
0.0009203942
0.00091217919
0.00090390075
0.00089556135
0.0008871581
0.00087869368
0.00087016497
0.0008615748
0.00085291985
0.00084420309
0.00083542103
0.00082657674
0.00081766664
0.00080869383
0.0007996547
0.00079055231
0.00078138312
0.00077215007
0.00076284982
0.00075348501
0.00074405271
0.00073455509
0.0007249898
0.00071535832
0.00070565919
0.0006958929
0.00068605918
0.0006761572
0.0006661883
0.00065614988
0.0006460454
0.00063586995
0.00062562972
0.00061531687
0.00060494103
0.00059449062
0.00058397965
0.00057339184
0.0005627466
0.00055202185
0.0005412437
0.00053038288
0.00051947376
0.00050847824
0.00049744083
0.00048631258
0.00047515033
0.000463892
0.00045260942
0.0004412245
0.00042982725
0.00041832016
0.00040681525
0.00039519154
0.00038358764
0.00037185431
0.00036016238
0.00034832869
0.00033656271
0.00032464009
0.00031281616
0.00030081699
0.00028895375
0.00027689367
0.000265015
0.00025291438
0.00024104988
0.00022893277
0.00021711783
0.0002050144
0.00019329209
0.0001812387
0.00016966286
0.00015770371
0.00014634022
0.00013453109
0.00012345969
0.00011186909
0.00010119057
8.9902493e-05
7.9744723e-05
6.8864625e-05
5.9391346e-05
4.9051541e-05
4.0479228e-05
3.0844842e-05
2.3473853e-05
1.4741653e-05
9.0429123e-06
1.3137721e-06
0.014298179
0.013518691
0.011740313
0.0095975335
0.0075822348
0.0058150429
0.0042476807
0.0028691094
0.0017432983
0.00094499366
0.00049883454
0.00035581264
0.00041600809
0.00057386185
0.00075136013
0.00090873545
0.0010314004
0.0011185494
0.0011759001
0.0012112708
0.0012320618
0.0012441246
0.0012515393
0.001256852
0.0012614689
0.0012660399
0.0012707617
0.0012755892
0.0012803792
0.0012849693
0.0012892188
0.0012930239
0.0012963206
0.001299079
0.0013012961
0.0013029875
0.0013041811
0.0013049106
0.0013052127
0.0013051229
0.0013046748
0.0013038986
0.0013028208
0.0013014644
0.0012998492
0.0012979919
0.0012959072
0.0012936074
0.0012911037
0.0012884055
0.0012855219
0.0012824606
0.0012792292
0.0012758344
0.001272283
0.0012685808
0.0012647339
0.0012607473
0.0012566266
0.0012523763
0.0012480013
0.0012435055
0.0012388932
0.001234168
0.0012293337
0.0012243934
0.0012193503
0.0012142073
0.0012089673
0.0012036326
0.001198206
0.0011926894
0.0011870853
0.0011813955
0.001175622
0.0011697665
0.0011638309
0.0011578165
0.0011517251
0.0011455578
0.0011393161
0.0011330011
0.0011266141
0.001120156
0.001113628
0.0011070309
0.0011003656
0.0010936329
0.0010868335
0.0010799683
0.0010730375
0.0010660422
0.0010589825
0.0010518592
0.0010446723
0.0010374228
0.0010301103
0.0010227359
0.0010152991
0.0010078009
0.0010002405
0.00099261928
0.00098493605
0.00097719222
0.00096938647
0.00096152032
0.00095359216
0.00094560368
0.00093755303
0.00092944204
0.00092126861
0.00091303474
0.00090473807
0.00089638078
0.00088796026
0.00087947887
0.00087093379
0.00086232751
0.00085365703
0.00084492496
0.00083612816
0.00082726931
0.00081834522
0.00080935853
0.00080030611
0.00079119049
0.00078200868
0.00077276301
0.00076345075
0.0007540739
0.00074463018
0.00073512104
0.00072554489
0.0007159024
0.00070619294
0.00069641609
0.00068657255
0.00067666045
0.00066668221
0.00065663407
0.0006465207
0.00063633592
0.00062608723
0.00061576539
0.00060538152
0.00059492245
0.00058440385
0.00057380768
0.0005631552
0.00055242236
0.00054163734
0.00053076869
0.00051985307
0.00050884995
0.00049780639
0.00048667074
0.0004755027
0.00046423716
0.00045294912
0.00044155713
0.00043015476
0.00041864076
0.00040713106
0.00039550055
0.0003838922
0.00037215215
0.0003604561
0.00034861575
0.000336846
0.00032491676
0.0003130894
0.00030108361
0.00028921729
0.00027715057
0.00026526919
0.0002531619
0.00024129505
0.00022917118
0.0002173543
0.000205244
0.00019352017
0.00018145974
0.00016988284
0.00015791646
0.00014655238
0.00013473582
0.00012366434
0.00011206606
0.00010138803
9.0091962e-05
7.993532e-05
6.9046902e-05
5.9575478e-05
4.9226965e-05
4.0657372e-05
3.1013827e-05
2.3646638e-05
1.4904864e-05
9.2081957e-06
1.4674873e-06
0.013131248
0.012561296
0.01122738
0.0094234608
0.0075776713
0.0059150453
0.0044678339
0.0032205507
0.0021903618
0.0014206018
0.00093749848
0.00071875096
0.00069565229
0.00078200316
0.00090597967
0.0010253075
0.0011217218
0.0011911989
0.0012367702
0.00126416
0.0012792862
0.0012870329
0.001290888
0.0012930619
0.0012947934
0.0012966628
0.0012988542
0.0013013415
0.0013039981
0.0013066654
0.0013091947
0.0013114665
0.0013133975
0.0013149374
0.0013160641
0.001316776
0.0013170855
0.0013170134
0.0013165853
0.0013158276
0.0013147664
0.0013134253
0.0013118261
0.0013099871
0.0013079245
0.0013056518
0.001303181
0.0013005218
0.0012976831
0.0012946726
0.0012914973
0.0012881634
0.0012846769
0.0012810432
0.0012772678
0.0012733551
0.0012693104
0.0012651377
0.0012608417
0.0012564259
0.0012518947
0.0012472512
0.0012424993
0.0012376417
0.0012326819
0.0012276224
0.0012224663
0.0012172157
0.0012118733
0.0012064412
0.0012009217
0.0011953165
0.0011896278
0.0011838572
0.0011780065
0.0011720772
0.0011660709
0.0011599888
0.0011538324
0.0011476029
0.0011413015
0.0011349292
0.0011284871
0.0011219761
0.0011153972
0.0011087511
0.0011020387
0.0010952606
0.0010884175
0.0010815101
0.0010745387
0.0010675042
0.0010604066
0.0010532467
0.0010460245
0.0010387409
0.0010313955
0.0010239891
0.0010165215
0.0010089934
0.0010014042
0.00099375487
0.00098604458
0.00097827443
0.00097044326
0.00096255235
0.0009546003
0.00094658853
0.00093851539
0.00093038244
0.00092218782
0.00091393324
0.00090561659
0.00089723973
0.00088880036
0.00088030047
0.00087173757
0.00086311378
0.00085442646
0.00084567779
0.00083686506
0.00082799046
0.00081905128
0.00081004965
0.00080098293
0.00079185311
0.00078265775
0.00077339856
0.00076407346
0.00075468373
0.00074522782
0.00073570641
0.00072611868
0.00071646448
0.00070674403
0.00069695599
0.00068710202
0.00067717921
0.00066719106
0.00065713267
0.00064700989
0.00063681527
0.00062655766
0.00061622637
0.00060583401
0.00059536587
0.00058483921
0.0005742343
0.00056357418
0.00055283291
0.00054204066
0.00053116384
0.00052024138
0.00050923035
0.00049818032
0.000487037
0.00047586285
0.00046458983
0.00045329605
0.00044189677
0.00043048901
0.00041896786
0.00040745312
0.00039581559
0.00038420253
0.00037245556
0.00036075515
0.00034890797
0.0003371342
0.00032519817
0.00031336713
0.00030135457
0.00028948491
0.00027741142
0.00026552706
0.00025341295
0.00024154349
0.00022941272
0.0002175936
0.0002054763
0.00019375061
0.00018168303
0.00017010468
0.00015813098
0.00014676586
0.00013494177
0.00012386967
0.0001122636
0.00010158541
9.0281261e-05
8.0124919e-05
6.9228094e-05
5.9757436e-05
4.9400148e-05
4.0831764e-05
3.1179091e-05
2.3813317e-05
1.5062775e-05
9.3589615e-06
1.6060055e-06
0.012197712
0.011710953
0.010657464
0.0091658142
0.0075342334
0.006004864
0.0046685778
0.0035292351
0.0025842776
0.0018521578
0.0013530785
0.0010795304
0.00098659777
0.0010080084
0.0010812115
0.001163507
0.001233281
0.0012835989
0.0013154199
0.0013329104
0.0013407646
0.0013429362
0.0013422531
0.0013404986
0.0013386657
0.0013372183
0.0013363032
0.0013358932
0.0013358717
0.0013360854
0.0013363826
0.0013366326
0.0013367364
0.0013366259
0.001336261
0.0013356223
0.0013347063
0.0013335192
0.0013320735
0.0013303843
0.001328468
0.0013263397
0.0013240141
0.0013215032
0.001318818
0.0013159673
0.001312959
0.0013097993
0.001306494
0.0013030476
0.0012994651
0.00129575
0.0012919067
0.0012879383
0.0012838488
0.001279641
0.0012753189
0.001270885
0.001266343
0.0012616953
0.0012569452
0.0012520949
0.0012471476
0.0012421051
0.0012369704
0.0012317451
0.0012264318
0.001221032
0.0012155482
0.0012099815
0.0012043342
0.0011986073
0.001192803
0.001186922
0.0011809664
0.0011749367
0.0011688349
0.0011626614
0.0011564179
0.0011501049
0.0011437238
0.0011372751
0.0011307601
0.001124179
0.0011175331
0.0011108226
0.0011040484
0.001097211
0.0010903111
0.0010833489
0.001076325
0.0010692397
0.0010620935
0.0010548868
0.0010476195
0.0010402923
0.0010329051
0.0010254583
0.0010179517
0.001010386
0.0010027605
0.00099507611
0.00098733202
0.00097952906
0.00097166634
0.00096374475
0.00095576319
0.00094772268
0.0009396219
0.00093146202
0.00092324149
0.00091496161
0.00090662064
0.00089822001
0.00088975779
0.00088123552
0.00087265113
0.00086400625
0.00085529869
0.00084653013
0.00083769833
0.00082880494
0.00081984778
0.00081082838
0.00080174469
0.00079259805
0.00078338666
0.00077411153
0.00076477127
0.00075536642
0.00074589618
0.00073636041
0.00072675913
0.00071709126
0.00070735798
0.00069755694
0.00068769081
0.00067775561
0.00066775595
0.00065768573
0.00064755204
0.00063734612
0.00062707817
0.00061673607
0.00060633393
0.00059585542
0.00058531949
0.00057470463
0.00056403573
0.0005532849
0.00054248434
0.00053159831
0.00052066798
0.00050964807
0.00049859061
0.00048743869
0.00047625754
0.00046497619
0.0004536758
0.00044226842
0.00043085444
0.0004193254
0.00040780482
0.00039615958
0.00038454106
0.00037278653
0.00036108101
0.00034922639
0.00033744788
0.0003255045
0.00031366908
0.00030164923
0.00028977553
0.00027769479
0.00026580674
0.00025368537
0.00024181258
0.00022967451
0.00021785238
0.00020572773
0.00019399938
0.00018192433
0.00017034366
0.00015836236
0.00014699522
0.00013516338
0.00012408953
0.00011247552
0.00010179584
9.0483512e-05
8.0325864e-05
6.942061e-05
5.9948681e-05
4.9582712e-05
4.1012798e-05
3.1351377e-05
2.3982776e-05
1.5225229e-05
9.5005216e-06
1.7363156e-06
0.011402053
0.010956826
0.010088447
0.0088573104
0.0074513822
0.0060752114
0.0048467254
0.0037964255
0.0029230771
0.0022311703
0.0017311303
0.0014207082
0.0012720648
0.0012366767
0.00126254
0.0013091561
0.0013529048
0.0013842425
0.0014021407
0.0014093577
0.0014095257
0.0014057682
0.0014002873
0.0013944286
0.001388911
0.001384052
0.0013799355
0.0013765165
0.0013736806
0.0013712806
0.0013691664
0.0013672019
0.0013652778
0.0013633124
0.0013612508
0.0013590587
0.0013567184
0.0013542227
0.0013515721
0.0013487709
0.0013458259
0.0013427438
0.0013395322
0.0013361966
0.0013327429
0.0013291746
0.0013254958
0.0013217085
0.0013178156
0.0013138183
0.0013097189
0.0013055185
0.0013012191
0.0012968216
0.0012923284
0.0012877402
0.0012830595
0.0012782873
0.0012734258
0.0012684762
0.0012634407
0.0012583202
0.0012531172
0.0012478323
0.0012424679
0.0012370245
0.0012315043
0.0012259079
0.0012202372
0.0012144927
0.0012086764
0.0012027885
0.0011968308
0.0011908037
0.0011847087
0.0011785461
0.0011723175
0.0011660228
0.0011596637
0.0011532401
0.0011467534
0.0011402036
0.0011335918
0.0011269181
0.0011201835
0.001113388
0.0011065325
0.0010996169
0.0010926421
0.0010856079
0.0010785151
0.0010713635
0.0010641537
0.0010568856
0.0010495597
0.0010421757
0.0010347341
0.0010272348
0.0010196779
0.0010120634
0.0010043912
0.00099666152
0.00098887401
0.00098102894
0.00097312581
0.000965165
0.0009571458
0.00094906872
0.00094093283
0.00093273879
0.00092448548
0.00091617366
0.00090780205
0.0008993715
0.00089088061
0.0008823303
0.00087371906
0.00086504786
0.00085631512
0.00084752183
0.00083866639
0.00082974975
0.00082077038
0.00081172908
0.00080262451
0.00079345722
0.00078422618
0.00077493157
0.0007655728
0.00075614955
0.00074666186
0.00073710867
0.00072749095
0.00071780659
0.0007080578
0.00069824112
0.00068836035
0.00067841031
0.00066839682
0.0006583125
0.00064816575
0.00063794641
0.00062766611
0.00061731123
0.00060689742
0.00059640671
0.00058585975
0.00057523323
0.00056455392
0.00055379193
0.00054298152
0.0005320848
0.00052114518
0.00051011499
0.00049904875
0.00048788695
0.00047669752
0.00046540663
0.00045409844
0.00044268185
0.00043126052
0.00041972255
0.00040819506
0.00039654114
0.00038491613
0.00037315313
0.00036144154
0.00034957864
0.00033779445
0.00032584295
0.00031400222
0.00030197436
0.00029009573
0.00027800707
0.00026611443
0.0002539852
0.00024210815
0.00022996225
0.00021813616
0.00020600368
0.00019427164
0.0001821887
0.00017060459
0.00015861534
0.00014724492
0.00013540504
0.00012432801
0.00011270583
0.00010202295
9.0702294e-05
8.0541215e-05
6.9627497e-05
6.015155e-05
4.9777038e-05
4.1201784e-05
3.1532246e-05
2.4154583e-05
1.5392768e-05
9.628757e-06
1.8550401e-06
0.010707024
0.010292499
0.0095566073
0.0085332291
0.0073368006
0.0061200007
0.0050002335
0.004028989
0.0032162155
0.0025625723
0.0020706057
0.0017379011
0.0015468397
0.0014632314
0.0014457664
0.0014582658
0.0014767464
0.0014895996
0.0014938177
0.0014907286
0.0014829781
0.0014729771
0.001462395
0.0014521887
0.0014428138
0.0014344282
0.0014270328
0.0014205464
0.0014148448
0.001409781
0.0014052043
0.0014009734
0.0013969688
0.0013930952
0.0013892829
0.0013854826
0.0013816623
0.0013778012
0.0013738881
0.0013699161
0.0013658827
0.0013617862
0.001357627
0.0013534045
0.001349119
0.0013447696
0.0013403563
0.0013358775
0.0013313331
0.0013267211
0.0013220418
0.0013172933
0.0013124761
0.0013075887
0.0013026318
0.0012976045
0.0012925078
0.0012873409
0.0012821052
0.0012768001
0.0012714272
0.001265986
0.0012604781
0.0012549031
0.0012492626
0.0012435562
0.0012377857
0.0012319505
0.0012260523
0.0012200907
0.0012140673
0.0012079815
0.0012018351
0.0011956274
0.0011893601
0.0011830325
0.0011766462
0.0011702006
0.0011636972
0.0011571352
0.0011505161
0.0011438392
0.001137106
0.0011303155
0.0011234692
0.0011165663
0.0011096079
0.0011025934
0.0010955237
0.0010883982
0.0010812179
0.001073982
0.0010666914
0.0010593453
0.0010519446
0.0010444885
0.0010369776
0.0010294114
0.0010217903
0.0010141137
0.001006382
0.00099859465
0.00099075185
0.00098285315
0.00097489861
0.00096688788
0.00095882083
0.00095069722
0.00094251677
0.00093427932
0.00092598445
0.0009176321
0.0009092217
0.00090075328
0.00089222614
0.00088364039
0.00087499526
0.00086629087
0.00085752641
0.00084870201
0.00083981687
0.00083087102
0.00082186381
0.00081279508
0.00080366438
0.00079447131
0.00078521574
0.00077589686
0.00076651506
0.00075706893
0.0007475596
0.00073798484
0.00072834675
0.00071864203
0.00070887407
0.00069903816
0.00068913934
0.0006791711
0.00066914061
0.00065903905
0.00064887628
0.0006386406
0.0006283452
0.00061797481
0.00060754676
0.00059704131
0.00058648093
0.00057584038
0.00056514841
0.00055437305
0.0005435507
0.00053264122
0.00052169034
0.00051064796
0.00049957111
0.00048839763
0.00047719819
0.00046589611
0.00045457849
0.00044315113
0.00043172093
0.00042017258
0.00040863674
0.0003969728
0.00038533993
0.00037356724
0.00036184826
0.00034997594
0.00033818482
0.00032622414
0.00031437689
0.00030234005
0.00029045528
0.00027835783
0.00026645941
0.00025432153
0.00024243901
0.00023028456
0.00021845326
0.00020631231
0.00019457527
0.00018248389
0.0001708949
0.00015889723
0.0001475219
0.00013567364
0.00012459152
0.00011296092
0.00010227255
9.094347e-05
8.0776086e-05
6.9853983e-05
6.0370222e-05
4.9987576e-05
4.1401559e-05
3.1725224e-05
2.4329335e-05
1.5567518e-05
9.7409327e-06
1.9613404e-06
0.010094363
0.0097082806
0.009073508
0.0082134859
0.0071981372
0.0061348186
0.0051247354
0.0042291763
0.0034705086
0.0028522349
0.0023731688
0.0020290761
0.00180748
0.0016844975
0.0016286017
0.0016091564
0.0016033521
0.0015983173
0.0015892276
0.001575944
0.0015601402
0.0015436051
0.0015275835
0.0015127217
0.0014992478
0.0014871623
0.0014763682
0.0014667308
0.0014581015
0.0014503238
0.0014432418
0.0014367066
0.0014305878
0.0014247757
0.0014191851
0.0014137507
0.0014084261
0.0014031765
0.0013979786
0.0013928143
0.0013876716
0.00138254
0.0013774129
0.001372283
0.0013671455
0.0013619942
0.0013568255
0.0013516338
0.001346416
0.001341167
0.0013358848
0.0013305649
0.0013252059
0.001319804
0.0013143587
0.0013088669
0.0013033284
0.0012977409
0.0012921047
0.0012864177
0.0012806807
0.0012748918
0.0012690523
0.0012631602
0.0012572169
0.0012512208
0.0012451734
0.001239073
0.0012329212
0.0012267164
0.0012204603
0.0012141513
0.0012077911
0.0012013782
0.0011949143
0.0011883978
0.0011818306
0.0011752108
0.0011685405
0.0011618179
0.0011550449
0.0011482197
0.0011413442
0.0011344166
0.0011274388
0.0011204089
0.0011133289
0.0011061968
0.0010990144
0.0010917799
0.0010844951
0.001077158
0.0010697704
0.0010623304
0.0010548396
0.0010472962
0.0010397017
0.0010320543
0.0010243553
0.0010166031
0.001008799
0.0010009412
0.00099303085
0.0009850665
0.00097704902
0.00096897702
0.00096085126
0.00095267043
0.00094443517
0.00093614424
0.00092779818
0.00091939581
0.00091093755
0.0009024223
0.0008938504
0.0008852208
0.00087653377
0.00086778827
0.00085898458
0.0008501216
0.0008411997
0.00083221765
0.00082317596
0.00081407321
0.00080491018
0.00079568512
0.0007863992
0.00077705022
0.00076763992
0.00075816546
0.00074862934
0.00073902788
0.00072936461
0.00071963472
0.00070984307
0.0006999834
0.0006900623
0.00068007161
0.00067002015
0.00065989738
0.00064971487
0.00063945911
0.00062914513
0.00061875572
0.00060831016
0.00059778669
0.00058720981
0.00057655216
0.00056584465
0.00055505304
0.00054421605
0.00053329111
0.00052232644
0.00051126934
0.00050017949
0.00048899197
0.0004777803
0.0004664648
0.00045513566
0.00044369547
0.00043225441
0.00042069377
0.00040914771
0.00039747195
0.00038582946
0.00037404539
0.00036231735
0.00035043406
0.00033863439
0.0003266631
0.00031480777
0.00030276064
0.00029086822
0.00027876078
0.00026685508
0.00025470745
0.00024281794
0.00023065397
0.00021881588
0.00020666562
0.00019492188
0.00018282135
0.00017122562
0.00015921897
0.00014783662
0.00013597955
0.00012488986
0.00011325062
0.00010255374
9.1216217e-05
8.1038678e-05
7.0108519e-05
6.0611766e-05
5.0221925e-05
4.1617588e-05
3.1936883e-05
2.4509966e-05
1.5754088e-05
9.8375837e-06
2.057976e-06
0.0095516598
0.0091931858
0.0086393364
0.007907594
0.0070430554
0.0061195437
0.0052173931
0.0043972865
0.0036902144
0.0031053022
0.0026415497
0.0022936398
0.0020514197
0.0018976811
0.0018089698
0.001760473
0.0017317029
0.0017094506
0.0016874599
0.0016641819
0.001640312
0.0016170605
0.0015953315
0.0015755406
0.001557737
0.0015417792
0.0015274659
0.0015145938
0.0015029756
0.0014924343
0.0014828026
0.0014739218
0.0014656497
0.0014578619
0.001450458
0.0014433566
0.0014364965
0.0014298289
0.0014233186
0.0014169361
0.0014106602
0.0014044715
0.0013983563
0.0013923002
0.0013862934
0.0013803244
0.0013743856
0.001368467
0.0013625629
0.0013566646
0.0013507677
0.001344865
0.0013389532
0.0013330261
0.0013270818
0.0013211149
0.0013151243
0.0013091056
0.0013030584
0.0012969788
0.0012908671
0.0012847197
0.0012785375
0.0012723171
0.0012660598
0.0012597624
0.0012534265
0.0012470489
0.0012406315
0.0012341713
0.0012276702
0.0012211254
0.001214539
0.001207908
0.0012012348
0.0011945164
0.0011877553
0.0011809484
0.0011740982
0.0011672018
0.0011602618
0.0011532751
0.0011462444
0.0011391667
0.0011320445
0.0011248748
0.0011176603
0.0011103979
0.0011030902
0.0010957343
0.0010883326
0.0010808821
0.0010733855
0.0010658396
0.001058247
0.0010506047
0.001042915
0.001035175
0.0010273872
0.0010195484
0.001011661
0.0010037221
0.00099573398
0.00098769363
0.00097960328
0.00097146004
0.00096326601
0.00095501836
0.00094671911
0.00093836549
0.00092995941
0.00092149818
0.00091298362
0.00090441307
0.00089578834
0.00088710676
0.00087837012
0.00086957574
0.00086072546
0.0008518165
0.00084285082
0.00083382548
0.00082474264
0.00081559913
0.0008063974
0.00079713392
0.00078781161
0.00077842641
0.00076898186
0.00075947324
0.00074990489
0.0007402712
0.00073057758
0.00072081725
0.00071099703
0.00070110859
0.00069116058
0.00068114271
0.0006710659
0.0006609174
0.00065071101
0.00064043091
0.00063009442
0.00061968195
0.00060921519
0.00059866986
0.000588073
0.00057739462
0.00056666828
0.00055585699
0.00054500226
0.00053405862
0.00052307723
0.00051200235
0.00050089675
0.00048969231
0.0004784658
0.00046713417
0.00045579105
0.00044433548
0.00043288125
0.0004213059
0.00040974743
0.00039805761
0.00038640341
0.00037460587
0.00036286678
0.00035097056
0.00033916044
0.00032717672
0.00031531147
0.00030325238
0.00029135049
0.00027923153
0.00026731674
0.000255158
0.00024325966
0.00023108495
0.00021923816
0.00020707752
0.00019532503
0.00018321447
0.00017160971
0.00015959341
0.00014820142
0.0001363351
0.00012523472
0.00011358667
0.00010287741
9.1531656e-05
8.133897e-05
7.040151e-05
6.0884949e-05
5.0489637e-05
4.1856932e-05
3.2175647e-05
2.4701048e-05
1.5958348e-05
9.9220918e-06
2.1500676e-06
0.0090686867
0.0087366597
0.0082491921
0.0076195714
0.0068789196
0.0060782606
0.0052786813
0.004533933
0.0038782725
0.0033261269
0.0028791059
0.0025324134
0.0022772788
0.0021006101
0.0019849716
0.0019109126
0.0018608883
0.0018222113
0.0017877434
0.0017547214
0.0017228858
0.0016928746
0.0016652926
0.001640385
0.0016180729
0.0015980991
0.0015801626
0.001563983
0.0015493219
0.0015359716
0.0015237476
0.0015124782
0.0015020093
0.0014922026
0.0014829429
0.0014741331
0.0014656977
0.0014575741
0.0014497151
0.0014420803
0.0014346391
0.0014273633
0.0014202321
0.0014132243
0.0014063246
0.001399516
0.0013927868
0.001386123
0.0013795153
0.0013729518
0.0013664257
0.0013599265
0.0013534494
0.0013469854
0.0013405311
0.0013340788
0.0013276266
0.0013211677
0.001314701
0.0013082208
0.0013017268
0.0012952135
0.0012886818
0.0012821264
0.0012755486
0.0012689435
0.0012623129
0.001255652
0.0012489631
0.0012422415
0.0012354896
0.0012287031
0.0012218846
0.0012150296
0.0012081412
0.0012012149
0.0011942538
0.0011872536
0.0011802175
0.0011731411
0.0011660279
0.0011588733
0.0011516811
0.0011444465
0.0011371735
0.0011298572
0.0011225017
0.0011151021
0.0011076625
0.001100178
0.0010926527
0.0010850818
0.0010774693
0.0010698103
0.001062109
0.0010543605
0.0010465688
0.001038729
0.0010308452
0.0010229126
0.0010149351
0.0010069079
0.00099883504
0.00099071155
0.00098254146
0.00097431989
0.00096605081
0.00095772935
0.00094935942
0.00094093619
0.00093246354
0.00092393663
0.00091535935
0.00090672682
0.00089804296
0.00088930285
0.00088051047
0.00087166082
0.00086275796
0.00085379677
0.00084478148
0.00083570678
0.00082657714
0.00081738695
0.00080814105
0.00079883343
0.00078946943
0.00078004246
0.00077055855
0.00076101039
0.00075140489
0.00074173374
0.00073200505
0.00072220925
0.00071235591
0.00070243386
0.00069245458
0.00068240484
0.0006722985
0.0006621198
0.00065188552
0.00064157676
0.00063121394
0.00062077427
0.00061028265
0.0005997115
0.00058909118
0.00057838826
0.00056763977
0.00055680517
0.00054592954
0.00053496373
0.00052396262
0.00051286664
0.00050174245
0.00049051792
0.00047927386
0.0004679231
0.00045656343
0.0004450896
0.00043361976
0.00042202701
0.00041045379
0.00039874735
0.00038707923
0.0003752658
0.00036351353
0.00035160213
0.00033977949
0.00032778125
0.00031590406
0.00030383106
0.00029191772
0.00027978547
0.00026785959
0.00025568812
0.0002437789
0.00023159204
0.00021973436
0.00020756214
0.00019579854
0.00018367697
0.00017206052
0.00016003387
0.0001486291
0.00013675315
0.00012563831
0.00011398147
0.00010325509
9.1901669e-05
8.1687615e-05
7.0744217e-05
6.1199274e-05
5.0801195e-05
4.2127508e-05
3.2450787e-05
2.4908402e-05
1.6186539e-05
1.0000351e-05
2.2443075e-06
0.0086366746
0.0083295361
0.0078974642
0.0073507419
0.0067119094
0.0060170567
0.0053118208
0.0046407048
0.0040368357
0.0035179399
0.0030889506
0.0027469502
0.0024846674
0.0022917114
0.0021548544
0.0020590821
0.0019899114
0.001935812
0.0018893587
0.0018468909
0.0018072833
0.0017706012
0.0017371544
0.0017070489
0.0016801196
0.0016560265
0.0016343844
0.0016148367
0.001597087
0.0015808888
0.001566034
0.0015523356
0.0015396272
0.0015277573
0.0015165973
0.0015060352
0.0014959818
0.0014863608
0.0014771136
0.0014681885
0.001459546
0.0014511492
0.0014429701
0.0014349804
0.0014271597
0.0014194851
0.0014119411
0.0014045087
0.0013971761
0.0013899271
0.0013827528
0.0013756395
0.0013685804
0.0013615638
0.001354585
0.0013476338
0.0013407071
0.0013337959
0.0013268986
0.0013200071
0.0013131209
0.0013062326
0.0012993426
0.0012924439
0.0012855379
0.0012786179
0.0012716859
0.0012647353
0.0012577688
0.00125078
0.0012437719
0.0012367384
0.0012296829
0.0012225992
0.0012154911
0.0012083525
0.0012011874
0.0011939897
0.0011867638
0.0011795034
0.0011722133
0.0011648871
0.0011575297
0.0011501347
0.0011427072
0.0011352408
0.0011277408
0.0011202004
0.0011126254
0.0011050088
0.0010973564
0.0010896613
0.0010819294
0.0010741537
0.0010663401
0.0010584816
0.0010505842
0.0010426408
0.0010346575
0.001026627
0.0010185557
0.0010104362
0.0010022748
0.000994064
0.00098581034
0.00097750627
0.00096915825
0.00096075871
0.00095231419
0.00094381704
0.00093527386
0.00092667694
0.00091803294
0.00090933406
0.00090058707
0.00089178406
0.00088293192
0.0008740226
0.00086506316
0.00085604535
0.00084697649
0.00083784803
0.00082866765
0.00081942641
0.00081013245
0.00080077633
0.00079136679
0.00078189374
0.00077236669
0.00076277472
0.00075312835
0.00074341556
0.00073364814
0.00072381273
0.0007139227
0.00070396297
0.00069394893
0.00068386334
0.00067372408
0.00066351125
0.00065324579
0.00064290454
0.00063251221
0.0006220416
0.00061152203
0.00060092141
0.00059027464
0.00057954364
0.00056877013
0.00055790876
0.00054700947
0.00053601813
0.00052499465
0.00051387434
0.00050272899
0.00049148124
0.00048021719
0.00046884428
0.00045746572
0.00044597075
0.00043448304
0.0004228701
0.00041127998
0.00039955426
0.00038787012
0.00037603829
0.00036427082
0.00035234185
0.00034050473
0.00032848972
0.00031659864
0.00030450966
0.0002925829
0.00028043546
0.00026849648
0.00025631058
0.00024438834