/*--------------------------------*- C++ -*----------------------------------*\
| =========                 |                                                 |
| \\      /  F ield         | OpenFOAM: The Open Source CFD Toolbox           |
|  \\    /   O peration     | Version:  5.x                                   |
|   \\  /    A nd           | Web:      www.OpenFOAM.org                      |
|    \\/     M anipulation  |                                                 |
\*---------------------------------------------------------------------------*/
FoamFile
{
    version     2.0;
    format      ascii;
    class       surfaceScalarField;
    location    "0.7";
    object      phi;
}
// * * * * * * * * * * * * * * * * * * * * * * * * * * * * * * * * * * * * * //

dimensions      [0 3 -1 0 0 0 0];

internalField   nonuniform List<scalar> 
42870
(
3.6477557e-08
3.0076845e-09
-3.9485241e-08
3.2669876e-08
3.8076807e-09
2.8878963e-08
3.7909132e-09
2.5282355e-08
3.5966076e-09
2.1876662e-08
3.4056933e-09
1.8729429e-08
3.1472331e-09
1.5966313e-08
2.7631155e-09
1.3680556e-08
2.2857573e-09
1.1891074e-08
1.7894821e-09
1.0564673e-08
1.3264006e-09
9.6155262e-09
9.4914719e-10
8.944575e-09
6.7095122e-10
8.4646605e-09
4.7991447e-10
8.1087947e-09
3.5586583e-10
7.8294405e-09
2.7935424e-10
7.5935302e-09
2.3591024e-10
7.3807095e-09
2.1282078e-10
7.1805013e-09
2.0020819e-10
6.9886628e-09
1.9183847e-10
6.8042111e-09
1.8445172e-10
6.6275139e-09
1.7669719e-10
6.459235e-09
1.6827888e-10
6.2998472e-09
1.5938777e-10
6.1494791e-09
1.5036817e-10
6.007932e-09
1.4154702e-10
5.8747675e-09
1.3316453e-10
5.7494047e-09
1.2536285e-10
5.6311989e-09
1.1820578e-10
5.5195033e-09
1.116956e-10
5.413707e-09
1.0579628e-10
5.3132551e-09
1.0045194e-10
5.217654e-09
9.5601031e-11
5.1264714e-09
9.11826e-11
5.0393301e-09
8.7141382e-11
4.955902e-09
8.3428094e-11
4.8759009e-09
8.00011e-11
4.7990763e-09
7.6824618e-11
4.7252068e-09
7.3869436e-11
4.6540963e-09
7.1110555e-11
4.5855684e-09
6.8527893e-11
4.5194645e-09
6.6103896e-11
4.45564e-09
6.3824525e-11
4.393963e-09
6.1676983e-11
4.3343119e-09
5.9651026e-11
4.2765751e-09
5.7736804e-11
4.2206487e-09
5.5926447e-11
4.1664367e-09
5.4211963e-11
4.1138497e-09
5.2587038e-11
4.0628048e-09
5.1044934e-11
4.0132243e-09
4.958045e-11
3.9650365e-09
4.8187825e-11
3.9181737e-09
4.6862744e-11
3.8725735e-09
4.5600207e-11
3.8281769e-09
4.4396626e-11
3.7849292e-09
4.3247666e-11
3.7427789e-09
4.2150366e-11
3.7016779e-09
4.1100955e-11
3.6615809e-09
4.0097005e-11
3.6224457e-09
3.9135233e-11
3.584232e-09
3.8213644e-11
3.5469027e-09
3.7329379e-11
3.5104219e-09
3.6480792e-11
3.4747565e-09
3.5665382e-11
3.4398747e-09
3.4881785e-11
3.4057469e-09
3.4127808e-11
3.3723446e-09
3.3402306e-11
3.3396412e-09
3.2703357e-11
3.3076112e-09
3.2029976e-11
3.2762308e-09
3.1380496e-11
3.2454767e-09
3.0754035e-11
3.2153276e-09
3.0149162e-11
3.1857625e-09
2.956507e-11
3.1567619e-09
2.9000554e-11
3.1283071e-09
2.8454832e-11
3.1003802e-09
2.7926925e-11
3.0729641e-09
2.7416042e-11
3.0460427e-09
2.6921437e-11
3.0196004e-09
2.6442266e-11
2.9936224e-09
2.5978031e-11
2.9680946e-09
2.5527799e-11
2.9430033e-09
2.5091329e-11
2.9183357e-09
2.466756e-11
2.8940792e-09
2.4256532e-11
2.8702222e-09
2.3857019e-11
2.8467528e-09
2.3469359e-11
2.8236607e-09
2.3092121e-11
2.8009347e-09
2.2725974e-11
2.7785655e-09
2.2369234e-11
2.7565425e-09
2.2022932e-11
2.7348575e-09
2.1685086e-11
2.7135003e-09
2.1357126e-11
2.6924636e-09
2.1036728e-11
2.6717378e-09
2.0725755e-11
2.6513164e-09
2.0421493e-11
2.6311901e-09
2.0126284e-11
2.6113531e-09
1.983697e-11
2.5917967e-09
1.9556417e-11
2.5725157e-09
1.9280969e-11
2.5535016e-09
1.9014066e-11
2.5347501e-09
1.8751498e-11
2.5162528e-09
1.849733e-11
2.4980061e-09
1.8246739e-11
2.4800016e-09
1.8004474e-11
2.4622366e-09
1.7765036e-11
2.4447027e-09
1.7533912e-11
2.4273978e-09
1.7304869e-11
2.4103136e-09
1.7084196e-11
2.3934487e-09
1.6864851e-11
2.3767947e-09
1.6653992e-11
2.360351e-09
1.6443706e-11
2.344109e-09
1.6242078e-11
2.3280687e-09
1.6040259e-11
2.3122214e-09
1.5847328e-11
2.2965679e-09
1.5653432e-11
2.2810992e-09
1.5468708e-11
2.265817e-09
1.5282228e-11
2.2507118e-09
1.5105256e-11
2.235786e-09
1.4925725e-11
2.2210299e-09
1.4756087e-11
2.2064469e-09
1.4583071e-11
2.1920265e-09
1.4420379e-11
2.177773e-09
1.4253476e-11
2.1636756e-09
1.4097369e-11
2.1497394e-09
1.3936207e-11
2.1359531e-09
1.378635e-11
2.1223225e-09
1.3630582e-11
2.1088358e-09
1.3486661e-11
2.0954999e-09
1.3335967e-11
2.0823022e-09
1.3197685e-11
2.0692504e-09
1.305177e-11
2.0563316e-09
1.2918848e-11
2.0435541e-09
1.2777438e-11
2.0309045e-09
1.264961e-11
2.0183921e-09
1.2512454e-11
2.0060026e-09
1.2389463e-11
1.9937463e-09
1.2256335e-11
1.9816083e-09
1.2137932e-11
1.9695997e-09
1.2008627e-11
1.9577051e-09
1.1894569e-11
1.9459362e-09
1.1768903e-11
1.9342773e-09
1.1658948e-11
1.9227405e-09
1.1536762e-11
1.9113099e-09
1.1430667e-11
1.899998e-09
1.1311826e-11
1.8887887e-09
1.1209343e-11
1.877695e-09
1.1093739e-11
1.8667003e-09
1.0994613e-11
1.8558182e-09
1.0882167e-11
1.845032e-09
1.078613e-11
1.8343552e-09
1.0676793e-11
1.8237717e-09
1.0583557e-11
1.8132944e-09
1.0477317e-11
1.8029078e-09
1.0386571e-11
1.7926243e-09
1.0283456e-11
1.7824295e-09
1.0194865e-11
1.7723345e-09
1.0094949e-11
1.7623264e-09
1.000814e-11
1.7524148e-09
9.9115495e-12
1.7425887e-09
9.8261053e-12
1.7328557e-09
9.733028e-12
1.7232072e-09
9.6484772e-12
1.7136481e-09
9.5591728e-12
1.7041731e-09
9.4749809e-12
1.6947833e-09
9.3897992e-12
1.6854779e-09
9.305354e-12
1.6762532e-09
9.2247499e-12
1.6671138e-09
9.139345e-12
1.6580499e-09
9.0638937e-12
1.6490732e-09
8.9767155e-12
1.6401661e-09
8.9071435e-12
1.6313488e-09
8.8172541e-12
1.6225943e-09
8.7544577e-12
1.6139336e-09
8.6607768e-12
1.6053277e-09
8.6058713e-12
1.5968206e-09
8.5071378e-12
1.5883591e-09
8.461499e-12
1.5800028e-09
8.3562256e-12
1.5716812e-09
8.3216139e-12
1.5634732e-09
8.208047e-12
1.5552866e-09
8.1866271e-12
1.5472239e-09
8.0626744e-12
1.5391666e-09
8.0572297e-12
1.5312462e-09
7.9204104e-12
1.5233118e-09
7.9344493e-12
1.5155301e-09
7.7817332e-12
1.5077102e-09
7.8198029e-12
1.5000627e-09
7.6475239e-12
1.4923471e-09
7.7156562e-12
1.4848279e-09
7.5191524e-12
1.4772024e-09
7.6254703e-12
1.4698036e-09
7.3988748e-12
1.4622489e-09
7.5546825e-12
1.4549586e-09
7.2902496e-12
1.4474467e-09
7.5119391e-12
1.4402477e-09
7.1990376e-12
1.4327359e-09
7.511781e-12
1.4256017e-09
7.1341496e-12
1.4180225e-09
7.5792327e-12
1.4109182e-09
7.1042772e-12
8.1128697e-12
4.2104643e-08
2.7426802e-09
-4.1839639e-08
4.1942344e-08
3.9699795e-09
4.1256737e-08
4.4765208e-09
4.02943e-08
4.5590445e-09
3.9154047e-08
4.545946e-09
3.7831466e-08
4.4698141e-09
3.6344045e-08
4.2505363e-09
3.4752541e-08
3.8772614e-09
3.314293e-08
3.3990929e-09
3.1584688e-08
2.8846435e-09
3.012464e-08
2.4091953e-09
2.8781118e-08
2.0144727e-09
2.7554199e-08
1.7068332e-09
2.6437346e-08
1.4727192e-09
2.5427082e-08
1.289618e-09
2.4512687e-08
1.1503055e-09
2.3682347e-08
1.0431609e-09
2.2924902e-08
9.5765285e-10
2.2230544e-08
8.8619696e-10
2.1590962e-08
8.2403318e-10
2.0999259e-08
7.6840056e-10
2.0449753e-08
7.1778459e-10
1.9937741e-08
6.7139967e-10
1.9459261e-08
6.2884826e-10
1.9010907e-08
5.8990068e-10
1.8589709e-08
5.5436309e-10
1.8193045e-08
5.2202628e-10
1.7818586e-08
4.9266495e-10
1.7464259e-08
4.6602237e-10
1.7128227e-08
4.4182872e-10
1.6808863e-08
4.1981621e-10
1.650473e-08
3.9973396e-10
1.621456e-08
3.8135213e-10
1.5937234e-08
3.6446775e-10
1.567176e-08
3.48902e-10
1.5417259e-08
3.3450208e-10
1.5172948e-08
3.2113564e-10
1.4938126e-08
3.0869149e-10
1.4712163e-08
2.9707334e-10
1.449449e-08
2.8620074e-10
1.4284591e-08
2.7600298e-10
1.4081995e-08
2.6642085e-10
1.3886271e-08
2.5740095e-10
1.3697024e-08
2.4889835e-10
1.3513889e-08
2.4087121e-10
1.3336531e-08
2.3328425e-10
1.316464e-08
2.2610359e-10
1.2997926e-08
2.1930073e-10
1.2836124e-08
2.1284748e-10
1.2678984e-08
2.067204e-10
1.2526276e-08
2.0089579e-10
1.2377784e-08
1.9535422e-10
1.2233309e-08
1.900755e-10
1.2092662e-08
1.8504343e-10
1.1955669e-08
1.802408e-10
1.1822165e-08
1.7565411e-10
1.1691998e-08
1.7126858e-10
1.1565022e-08
1.6707298e-10
1.1441102e-08
1.630546e-10
1.1320112e-08
1.5920404e-10
1.1201931e-08
1.5551036e-10
1.1086446e-08
1.519656e-10
1.0973551e-08
1.4856032e-10
1.0863145e-08
1.4528776e-10
1.0755133e-08
1.4213974e-10
1.0649425e-08
1.3911045e-10
1.0545936e-08
1.361928e-10
1.0444584e-08
1.333817e-10
1.0345293e-08
1.3067107e-10
1.0247991e-08
1.2805635e-10
1.0152608e-08
1.2553235e-10
1.0059078e-08
1.2309491e-10
9.9673389e-09
1.207397e-10
9.8773309e-09
1.1846277e-10
9.7889972e-09
1.1626063e-10
9.7022839e-09
1.1412943e-10
9.6171388e-09
1.1206649e-10
9.5335131e-09
1.1006792e-10
9.4513593e-09
1.081319e-10
9.3706327e-09
1.0625435e-10
9.2912897e-09
1.0443433e-10
9.2132898e-09
1.0266745e-10
9.1365927e-09
1.0095369e-10
9.0611615e-09
9.9288242e-11
8.9869587e-09
9.7672067e-11
8.9139511e-09
9.6099768e-11
8.8421037e-09
9.4573393e-11
8.7713861e-09
9.3086813e-11
8.7017658e-09
9.1643247e-11
8.6332152e-09
9.0235687e-11
8.5657037e-09
8.8868632e-11
8.4992064e-09
8.7534045e-11
8.4336943e-09
8.6237826e-11
8.369145e-09
8.4970738e-11
8.3055311e-09
8.3740225e-11
8.2428324e-09
8.2535672e-11
8.1810226e-09
8.136622e-11
8.1200839e-09
8.0219682e-11
8.0599909e-09
7.9107075e-11
8.0007279e-09
7.8014436e-11
7.9422704e-09
7.6954838e-11
7.8846048e-09
7.5912331e-11
7.8277071e-09
7.4902253e-11
7.7715657e-09
7.3906436e-11
7.7161569e-09
7.2942692e-11
7.6614713e-09
7.1990398e-11
7.6074854e-09
7.107009e-11
7.5541919e-09
7.015841e-11
7.501567e-09
6.9278877e-11
7.4496056e-09
6.8405136e-11
7.3982837e-09
6.7563944e-11
7.3475983e-09
6.6725667e-11
7.297525e-09
6.5920586e-11
7.248063e-09
6.5115485e-11
7.1991872e-09
6.4344471e-11
7.150899e-09
6.357042e-11
7.1031727e-09
6.283159e-11
7.0560118e-09
6.2086615e-11
7.0093897e-09
6.1378238e-11
6.9633122e-09
6.0660507e-11
6.9177516e-09
5.9980988e-11
6.8727163e-09
5.9288785e-11
6.828177e-09
5.8636653e-11
6.7841448e-09
5.7968382e-11
6.7405889e-09
5.734228e-11
6.6975231e-09
5.6696441e-11
6.6549146e-09
5.6095114e-11
6.6127803e-09
5.5470303e-11
6.5710854e-09
5.4892586e-11
6.5298496e-09
5.4287483e-11
6.4890362e-09
5.3732297e-11
6.448668e-09
5.314566e-11
6.4087056e-09
5.2611998e-11
6.3691754e-09
5.2042663e-11
6.3300353e-09
5.1529586e-11
6.2913151e-09
5.0976456e-11
6.25297e-09
5.0483081e-11
6.2150335e-09
4.9945122e-11
6.1774574e-09
4.9470621e-11
6.1402795e-09
4.894686e-11
6.103448e-09
4.8490446e-11
6.0670048e-09
4.7979965e-11
6.0308946e-09
4.7540887e-11
5.9951636e-09
4.7042829e-11
5.9597525e-09
4.6620367e-11
5.9247123e-09
4.6133932e-11
5.8899796e-09
4.572739e-11
5.8556099e-09
4.5251834e-11
5.8215355e-09
4.4860522e-11
5.7878171e-09
4.4395158e-11
5.7543823e-09
4.4018389e-11
5.721297e-09
4.356259e-11
5.6884839e-09
4.3199672e-11
5.6560145e-09
4.2752888e-11
5.6238062e-09
4.2403118e-11
5.5919363e-09
4.1964872e-11
5.5603169e-09
4.1627513e-11
5.5290311e-09
4.1197408e-11
5.4979855e-09
4.0871683e-11
5.4672691e-09
4.0449418e-11
5.4367831e-09
4.0134489e-11
5.4066224e-09
3.9719882e-11
5.3766825e-09
3.9414837e-11
5.3470645e-09
3.9007855e-11
5.3176581e-09
3.8711687e-11
5.2885704e-09
3.8312471e-11
5.2596857e-09
3.8024045e-11
5.2311166e-09
3.7632948e-11
5.2027424e-09
3.7350991e-11
5.1746809e-09
3.6968633e-11
5.1468064e-09
3.6691704e-11
5.1192419e-09
3.631901e-11
5.0918572e-09
3.6045473e-11
5.0647793e-09
3.5683788e-11
5.0378746e-09
3.541176e-11
5.0112732e-09
3.5062966e-11
4.9848392e-09
3.4790238e-11
4.9587038e-09
3.4456995e-11
4.9327309e-09
3.4180946e-11
4.9070507e-09
3.3866851e-11
4.881529e-09
3.358436e-11
4.8562918e-09
3.3294389e-11
4.8312105e-09
3.3001752e-11
4.8064023e-09
3.2742598e-11
4.7817488e-09
3.2435283e-11
4.7573524e-09
3.2216175e-11
4.7331112e-09
3.1888718e-11
4.7091043e-09
3.172251e-11
4.6852554e-09
3.1368063e-11
4.6616081e-09
3.1272786e-11
4.638124e-09
3.0883025e-11
4.6147941e-09
3.0884528e-11
4.5916351e-09
3.044925e-11
4.5685615e-09
3.0585561e-11
4.5456678e-09
3.0092762e-11
4.5227583e-09
3.0421252e-11
4.5000349e-09
2.9857557e-11
4.477148e-09
3.0466086e-11
4.4544453e-09
2.9807001e-11
3.1835921e-11
4.4025471e-08
2.5882768e-09
-4.3871068e-08
4.4407297e-08
3.5881533e-09
4.4607911e-08
4.2759068e-09
4.4657948e-08
4.5090084e-09
4.4624365e-08
4.5795287e-09
4.4503726e-08
4.5904535e-09
4.4241738e-08
4.5125235e-09
4.3817496e-08
4.3015037e-09
4.3251277e-08
3.9653118e-09
4.2578448e-08
3.5574725e-09
4.1840694e-08
3.1469492e-09
4.1070304e-08
2.7848628e-09
4.0286771e-08
2.4903662e-09
3.9502246e-08
2.2572442e-09
3.8722147e-08
2.0697175e-09
3.7953511e-08
1.9189417e-09
3.7200395e-08
1.7962768e-09
3.6464732e-08
1.6933155e-09
3.57475e-08
1.6034291e-09
3.5049336e-08
1.5221973e-09
3.4370746e-08
1.4469907e-09
3.3712151e-08
1.3763794e-09
3.3073882e-08
1.3096679e-09
3.2456154e-08
1.2465767e-09
3.1859028e-08
1.1870261e-09
3.1282411e-08
1.1309809e-09
3.0726051e-08
1.078386e-09
3.0189546e-08
1.02917e-09
2.9672371e-08
9.8319687e-10
2.9173908e-08
9.402919e-10
2.8693469e-08
9.0025513e-10
2.8230323e-08
8.6288022e-10
2.7783715e-08
8.2796038e-10
2.7352883e-08
7.9529969e-10
2.6937073e-08
7.647121e-10
2.6535546e-08
7.3602839e-10
2.6147591e-08
7.0909152e-10
2.577252e-08
6.8376168e-10
2.5409684e-08
6.5990984e-10
2.5058462e-08
6.3742235e-10
2.4718271e-08
6.1619378e-10
2.4388561e-08
5.9613171e-10
2.4068812e-08
5.7714935e-10
2.375854e-08
5.5917093e-10
2.3457287e-08
5.4212418e-10
2.3164625e-08
5.2594629e-10
2.2880152e-08
5.105764e-10
2.2603491e-08
4.95962e-10
2.2334287e-08
4.820513e-10
2.2072207e-08
4.6880012e-10
2.1816938e-08
4.5616432e-10
2.1568186e-08
4.4410662e-10
2.1325672e-08
4.3258911e-10
2.1089136e-08
4.2158024e-10
2.0858329e-08
4.110474e-10
2.0633019e-08
4.0096386e-10
2.0412986e-08
3.9130144e-10
2.0198022e-08
3.8203746e-10
1.9987929e-08
3.7314753e-10
1.9782521e-08
3.6461224e-10
1.9581621e-08
3.5641052e-10
1.9385061e-08
3.4852561e-10
1.9192682e-08
3.4093922e-10
1.9004333e-08
3.3363682e-10
1.881987e-08
3.2660254e-10
1.8639157e-08
3.1982364e-10
1.8462063e-08
3.1328635e-10
1.8288466e-08
3.069793e-10
1.8118246e-08
3.0089075e-10
1.7951292e-08
2.9501028e-10
1.7787496e-08
2.8932798e-10
1.7626757e-08
2.8383422e-10
1.7468976e-08
2.7852077e-10
1.731406e-08
2.7337844e-10
1.716192e-08
2.684007e-10
1.7012471e-08
2.6357855e-10
1.686563e-08
2.5890713e-10
1.6721321e-08
2.5437732e-10
1.6579467e-08
2.4998603e-10
1.6439997e-08
2.4572377e-10
1.6302843e-08
2.4158924e-10
1.6167938e-08
2.3757234e-10
1.6035218e-08
2.3367364e-10
1.5904624e-08
2.2988219e-10
1.5776095e-08
2.2620057e-10
1.5649578e-08
2.2261668e-10
1.5525016e-08
2.1913528e-10
1.540236e-08
2.1574281e-10
1.5281557e-08
2.1244643e-10
1.5162562e-08
2.092308e-10
1.5045325e-08
2.061057e-10
1.4929805e-08
2.0305369e-10
1.4815956e-08
2.0008744e-10
1.4703739e-08
1.9718707e-10
1.4593111e-08
1.9436843e-10
1.4484038e-08
1.9160879e-10
1.4376477e-08
1.8892752e-10
1.4270398e-08
1.8629865e-10
1.416576e-08
1.8374545e-10
1.4062536e-08
1.8123827e-10
1.3960686e-08
1.7880466e-10
1.3860187e-08
1.7641083e-10
1.3761001e-08
1.7408908e-10
1.3663106e-08
1.7180096e-10
1.3566465e-08
1.69584e-10
1.3471061e-08
1.6739455e-10
1.3376855e-08
1.6527594e-10
1.3283834e-08
1.6317866e-10
1.3191961e-08
1.6115247e-10
1.3101225e-08
1.591414e-10
1.3011586e-08
1.5720221e-10
1.292304e-08
1.5527179e-10
1.2835546e-08
1.5341462e-10
1.2749102e-08
1.5155972e-10
1.2663666e-08
1.4978002e-10
1.2579241e-08
1.4799585e-10
1.2495783e-08
1.4628941e-10
1.2413298e-08
1.445715e-10
1.2331742e-08
1.4293447e-10
1.2251124e-08
1.4127866e-10
1.2171397e-08
1.397075e-10
1.2092576e-08
1.3810988e-10
1.2014612e-08
1.3660132e-10
1.1937522e-08
1.3505824e-10
1.1861255e-08
1.3360928e-10
1.1785834e-08
1.3211728e-10
1.1711204e-08
1.3072517e-10
1.1637393e-08
1.2928097e-10
1.1564343e-08
1.2794317e-10
1.1492086e-08
1.265437e-10
1.1420561e-08
1.2525787e-10
1.1349806e-08
1.2390019e-10
1.1279754e-08
1.2266418e-10
1.1210451e-08
1.2134551e-10
1.1141823e-08
1.2015735e-10
1.1073925e-08
1.1887501e-10
1.1006675e-08
1.1773288e-10
1.0940136e-08
1.1648431e-10
1.087422e-08
1.1538656e-10
1.0808997e-08
1.1416931e-10
1.0744374e-08
1.131144e-10
1.0680427e-08
1.1192607e-10
1.0617056e-08
1.1091261e-10
1.0554348e-08
1.0975092e-10
1.049219e-08
1.0877763e-10
1.0430684e-08
1.0764033e-10
1.0369705e-08
1.0670604e-10
1.0309366e-08
1.0559097e-10
1.0249532e-08
1.0469461e-10
1.0190328e-08
1.0359964e-10
1.0131606e-08
1.027402e-10
1.0073505e-08
1.0166325e-10
1.0015865e-08
1.0083985e-10
9.9588389e-09
9.9778885e-11
9.9022513e-09
9.8990697e-11
9.8462725e-09
9.7943732e-11
9.79071e-09
9.7189991e-11
9.7357523e-09
9.6155067e-11
9.681189e-09
9.5435067e-11
9.6272281e-09
9.4410273e-11
9.5736392e-09
9.3723346e-11
9.5206523e-09
9.2706835e-11
9.4680148e-09
9.2052355e-11
9.4159803e-09
9.1042368e-11
9.3642722e-09
9.0419731e-11
9.3131701e-09
8.9414624e-11
9.2623709e-09
8.8823219e-11
9.2121823e-09
8.7821498e-11
9.1622726e-09
8.7260726e-11
9.1129801e-09
8.6261125e-11
9.0639414e-09
8.5730372e-11
9.0155286e-09
8.4731877e-11
8.9673435e-09
8.4230514e-11
8.9197948e-09
8.3232543e-11
8.8724466e-09
8.2759898e-11
8.8257471e-09
8.1762471e-11
8.7792196e-09
8.1317753e-11
8.7333547e-09
8.0321856e-11
8.6876316e-09
7.9904069e-11
8.6425865e-09
7.8911953e-11
8.597651e-09
7.8519875e-11
8.5534097e-09
7.7535723e-11
8.5092436e-09
7.7167865e-11
8.4657878e-09
7.619839e-11
8.4223702e-09
7.5852814e-11
8.3796778e-09
7.4908614e-11
8.3369835e-09
7.4583027e-11
8.2950257e-09
7.3680344e-11
8.2530218e-09
7.3371901e-11
8.2117594e-09
7.2535182e-11
8.1704014e-09
7.224109e-11
8.1297787e-09
7.1507214e-11
8.0890022e-09
7.1225671e-11
8.048937e-09
7.0650837e-11
8.0086457e-09
7.0384068e-11
7.9690119e-09
7.0054976e-11
7.9290561e-09
6.981344e-11
7.8896436e-09
6.9878597e-11
7.8498288e-09
6.962179e-11
7.2114797e-11
4.5951315e-08
2.5157864e-09
-4.5878824e-08
4.626391e-08
3.2755584e-09
4.6598137e-08
3.941679e-09
4.6848928e-08
4.2582182e-09
4.7063811e-08
4.3646453e-09
4.7268298e-08
4.3859664e-09
4.7429093e-08
4.3517284e-09
4.7505375e-08
4.2252215e-09
4.7477872e-08
3.9928155e-09
4.7349944e-08
3.6853998e-09
4.7141442e-08
3.3554515e-09
4.6875559e-08
3.0507461e-09
4.6570224e-08
2.7957007e-09
4.623554e-08
2.5919287e-09
4.5875892e-08
2.4293649e-09
4.5496831e-08
2.2980028e-09
4.510293e-08
2.1901783e-09
4.4696932e-08
2.0993135e-09
4.4280413e-08
2.0199475e-09
4.3854538e-08
1.9480725e-09
4.3420438e-08
1.8810904e-09
4.2979324e-08
1.817494e-09
4.2532488e-08
1.7565033e-09
4.208128e-08
1.6977852e-09
4.1627058e-08
1.6412478e-09
4.1171142e-08
1.586897e-09
4.0714771e-08
1.5347571e-09
4.0259091e-08
1.4848499e-09
3.9805137e-08
1.437151e-09
3.9353828e-08
1.391601e-09
3.8905972e-08
1.3481113e-09
3.846227e-08
1.3065825e-09
3.8023323e-08
1.2669065e-09
3.7589644e-08
1.2289796e-09
3.7161656e-08
1.1926992e-09
3.6739712e-08
1.1579725e-09
3.6324093e-08
1.1247107e-09
3.5915019e-08
1.092836e-09
3.5512655e-08
1.062274e-09
3.5117117e-08
1.0329601e-09
3.4728479e-08
1.0048314e-09
3.4346777e-08
9.7783363e-10
3.3972015e-08
9.5191221e-10
3.3604166e-08
9.2702006e-10
3.3243181e-08
9.0310837e-10
3.2888992e-08
8.8013519e-10
3.2541513e-08
8.5805598e-10
3.2200642e-08
8.3683269e-10
3.1866269e-08
8.1642413e-10
3.1538274e-08
7.9679547e-10
3.1216529e-08
7.7790891e-10
3.0900903e-08
7.5973261e-10
3.0591261e-08
7.4223168e-10
3.0287464e-08
7.2537712e-10
2.9989374e-08
7.0913707e-10
2.9696853e-08
6.9348522e-10
2.9409762e-08
6.7839249e-10
2.9127964e-08
6.638352e-10
2.8851325e-08
6.4978705e-10
2.857971e-08
6.3622656e-10
2.8312991e-08
6.2313022e-10
2.8051038e-08
6.1047843e-10
2.7793727e-08
5.9825024e-10
2.7540936e-08
5.8642779e-10
2.7292546e-08
5.7499253e-10
2.7048441e-08
5.6392802e-10
2.680851e-08
5.53218e-10
2.6572642e-08
5.4284706e-10
2.6340731e-08
5.3280138e-10
2.6112676e-08
5.2306611e-10
2.5888374e-08
5.1362974e-10
2.566773e-08
5.0447793e-10
2.5450649e-08
4.9560143e-10
2.5237042e-08
4.8698593e-10
2.5026818e-08
4.7862456e-10
2.4819894e-08
4.7050277e-10
2.4616185e-08
4.6261617e-10
2.4415613e-08
4.5494952e-10
2.4218098e-08
4.475011e-10
2.4023567e-08
4.4025466e-10
2.3831945e-08
4.3321131e-10
2.3643164e-08
4.2635336e-10
2.3457152e-08
4.1968499e-10
2.3273848e-08
4.1318673e-10
2.3093182e-08
4.0686604e-10
2.2915098e-08
4.007012e-10
2.273953e-08
3.9470337e-10
2.2566424e-08
3.8884804e-10
2.239572e-08
3.8315041e-10
2.2227368e-08
3.7758273e-10
2.206131e-08
3.7216465e-10
2.1897499e-08
3.6686463e-10
2.1735879e-08
3.6170725e-10
2.1576409e-08
3.5665656e-10
2.1419035e-08
3.5174265e-10
2.1263719e-08
3.469245e-10
2.1110409e-08
3.4223828e-10
2.095907e-08
3.3763719e-10
2.0809651e-08
3.3316422e-10
2.0662124e-08
3.2876595e-10
2.0516435e-08
3.2449296e-10
2.0372562e-08
3.2028438e-10
2.0230452e-08
3.1619919e-10
2.0090084e-08
3.1216817e-10
1.9951409e-08
3.0825959e-10
1.9814409e-08
3.0439487e-10
1.9679032e-08
3.0065264e-10
1.9545267e-08
2.969438e-10
1.9413061e-08
2.9335845e-10
1.9282406e-08
2.897958e-10
1.915325e-08
2.8635861e-10
1.9025589e-08
2.8293313e-10
1.8899367e-08
2.796361e-10
1.8774587e-08
2.7633935e-10
1.8651192e-08
2.731751e-10
1.8529189e-08
2.699992e-10
1.8408518e-08
2.6696092e-10
1.8289191e-08
2.6389847e-10
1.8171145e-08
2.6097989e-10
1.80544e-08
2.5802394e-10
1.7938888e-08
2.552193e-10
1.7824635e-08
2.5236329e-10
1.7711569e-08
2.4966728e-10
1.7599722e-08
2.4690502e-10
1.7489018e-08
2.4431277e-10
1.7379497e-08
2.4163837e-10
1.7271077e-08
2.3914539e-10
1.7163805e-08
2.3655326e-10
1.7057593e-08
2.3415546e-10
1.6952496e-08
2.3164025e-10
1.684842e-08
2.2933387e-10
1.674543e-08
2.2689044e-10
1.6643422e-08
2.2467206e-10
1.6542472e-08
2.2229549e-10
1.6442467e-08
2.2016199e-10
1.6343495e-08
2.178475e-10
1.6245432e-08
2.1579607e-10
1.6148377e-08
2.1353904e-10
1.6052196e-08
2.1156713e-10
1.5957003e-08
2.0936304e-10
1.5862649e-08
2.0746839e-10
1.5769262e-08
2.053128e-10
1.5676681e-08
2.0349339e-10
1.558505e-08
2.0138193e-10
1.5494192e-08
1.9963602e-10
1.5404268e-08
1.9756436e-10
1.5315083e-08
1.9589045e-10
1.522682e-08
1.9385428e-10
1.5139263e-08
1.9225108e-10
1.5052617e-08
1.9024607e-10
1.4966645e-08
1.8871256e-10
1.4881574e-08
1.8673435e-10
1.4797144e-08
1.8526971e-10
1.4713609e-08
1.8331392e-10
1.4630682e-08
1.8191763e-10
1.4548646e-08
1.7997978e-10
1.4467184e-08
1.786515e-10
1.4386612e-08
1.7672702e-10
1.4306581e-08
1.754667e-10
1.422744e-08
1.7355092e-10
1.4148805e-08
1.7235871e-10
1.4071065e-08
1.7044684e-10
1.3993794e-08
1.6932321e-10
1.3917426e-08
1.6741037e-10
1.3841489e-08
1.6635601e-10
1.3766467e-08
1.6443723e-10
1.3691837e-08
1.6345314e-10
1.3618135e-08
1.6152337e-10
1.3544785e-08
1.6061083e-10
1.3472381e-08
1.5866506e-10
1.3400286e-08
1.578257e-10
1.3329159e-08
1.5585891e-10
1.3258294e-08
1.5509472e-10
1.3188425e-08
1.5310214e-10
1.3118769e-08
1.5241551e-10
1.3050139e-08
1.5039284e-10
1.298167e-08
1.4978648e-10
1.2914262e-08
1.4773039e-10
1.2846958e-08
1.4720732e-10
1.2780754e-08
1.4511585e-10
1.2714595e-08
1.4467946e-10
1.2649578e-08
1.4255297e-10
1.2584538e-08
1.4220711e-10
1.2520687e-08
1.4004917e-10
1.2456742e-08
1.3979806e-10
1.2394033e-08
1.3761738e-10
1.233115e-08
1.3746606e-10
1.2269552e-08
1.3527908e-10
1.220769e-08
1.3523353e-10
1.2147157e-08
1.3306822e-10
1.2086261e-08
1.3313685e-10
1.2026729e-08
1.3103912e-10
1.196672e-08
1.3123479e-10
1.1908091e-08
1.292797e-10
1.1848852e-08
1.2962383e-10
1.1790969e-08
1.2793807e-10
1.1732328e-08
1.2845432e-10
1.1674894e-08
1.2731247e-10
1.1616673e-08
1.2784295e-10
1.3027327e-10
4.7968931e-08
2.458354e-09
-4.7911499e-08
4.8195656e-08
3.0488331e-09
4.8512616e-08
3.6247196e-09
4.8794389e-08
3.9764445e-09
4.9038082e-08
4.1209524e-09
4.9275195e-08
4.1488537e-09
4.9504995e-08
4.1219278e-09
4.9699908e-08
4.0303089e-09
4.9834343e-08
3.8583806e-09
4.9898766e-08
3.6209771e-09
4.9901117e-08
3.3531003e-09
4.9857994e-08
3.0938695e-09
4.9783658e-08
2.8700363e-09
4.9686455e-08
2.6891313e-09
4.9570072e-08
2.5457487e-09
4.9437389e-08
2.4306855e-09
4.9291055e-08
2.3365123e-09
4.9132694e-08
2.2576746e-09
4.8962895e-08
2.1897461e-09
4.8781689e-08
2.1292786e-09
4.8588972e-08
2.0738077e-09
4.8384719e-08
2.0217464e-09
4.8169063e-08
1.9721593e-09
4.79423e-08
1.9245489e-09
4.7704871e-08
1.8786766e-09
4.7457324e-08
1.834444e-09
4.7200274e-08
1.7918065e-09
4.6934386e-08
1.7507385e-09
4.6660341e-08
1.7111962e-09
4.6378823e-08
1.6731183e-09
4.6090512e-08
1.6364228e-09
4.579607e-08
1.6010237e-09
4.5496148e-08
1.5668294e-09
4.5191371e-08
1.5337565e-09
4.4882346e-08
1.5017236e-09
4.4569657e-08
1.470662e-09
4.4253861e-08
1.4405069e-09
4.393549e-08
1.4112066e-09
4.3615052e-08
1.3827123e-09
4.3293024e-08
1.3549872e-09
4.2969861e-08
1.3279951e-09
4.2645985e-08
1.3017098e-09
4.2321793e-08
1.276104e-09
4.1997654e-08
1.2511585e-09
4.1673911e-08
1.2268512e-09
4.1350879e-08
1.2031672e-09
4.1028848e-08
1.1800874e-09
4.0708082e-08
1.157599e-09
4.0388821e-08
1.1356847e-09
4.0071284e-08
1.1143328e-09
3.9755666e-08
1.093527e-09
3.9442142e-08
1.0732562e-09
3.9130869e-08
1.0535049e-09
3.8821984e-08
1.0342621e-09
3.8515608e-08
1.0155131e-09
3.8211846e-08
9.9724696e-10
3.7910789e-08
9.7944948e-10
3.7612514e-08
9.6210991e-10
3.7317087e-08
9.4521482e-10
3.702456e-08
9.2875326e-10
3.6734977e-08
9.1271289e-10
3.6448373e-08
8.9708237e-10
3.6164773e-08
8.8185045e-10
3.5884195e-08
8.6700551e-10
3.560665e-08
8.5253754e-10
3.5332144e-08
8.3843442e-10
3.5060674e-08
8.2468756e-10
3.4792237e-08
8.1128412e-10
3.4526821e-08
7.9821738e-10
3.4264414e-08
7.8547337e-10
3.4004996e-08
7.730474e-10
3.374855e-08
7.6092447e-10
3.3495049e-08
7.4910207e-10
3.3244472e-08
7.375637e-10
3.2996787e-08
7.2630947e-10
3.2751968e-08
7.1532111e-10
3.2509983e-08
7.0460169e-10
3.2270802e-08
6.9413066e-10
3.2034388e-08
6.8391451e-10
3.1800713e-08
6.7393006e-10
3.1569737e-08
6.641876e-10
3.1341429e-08
6.5466076e-10
3.111575e-08
6.4536416e-10
3.0892669e-08
6.3626778e-10
3.0672144e-08
6.2739101e-10
3.0454146e-08
6.1869956e-10
3.0238631e-08
6.1021829e-10
3.0025571e-08
6.0190786e-10
2.9814922e-08
5.9379931e-10
2.9606657e-08
5.8584751e-10
2.9400731e-08
5.7809039e-10
2.919712e-08
5.7047624e-10
2.8995776e-08
5.630507e-10
2.8796678e-08
5.5575456e-10
2.8599779e-08
5.486421e-10
2.8405058e-08
5.4164557e-10
2.8212467e-08
5.3482895e-10
2.802199e-08
5.2811477e-10
2.7833576e-08
5.2157789e-10
2.7647212e-08
5.1512992e-10
2.7462847e-08
5.088578e-10
2.7280471e-08
5.0266083e-10
2.710003e-08
4.9663952e-10
2.6921519e-08
4.9067935e-10
2.6744883e-08
4.8489582e-10
2.6570119e-08
4.7915902e-10
2.639717e-08
4.7360124e-10
2.6226039e-08
4.6807521e-10
2.6056665e-08
4.6273191e-10
2.5889056e-08
4.5740479e-10
2.5723149e-08
4.522655e-10
2.5558956e-08
4.4712608e-10
2.5396411e-08
4.421811e-10
2.5235532e-08
4.3721878e-10
2.5076248e-08
4.3245911e-10
2.4918583e-08
4.2766383e-10
2.4762463e-08
4.2308108e-10
2.4607918e-08
4.1844331e-10
2.4454868e-08
4.1402975e-10
2.4303352e-08
4.095404e-10
2.4153282e-08
4.0528886e-10
2.4004706e-08
4.0093927e-10
2.3857531e-08
3.9684313e-10
2.3711811e-08
3.9262502e-10
2.3567445e-08
3.886782e-10
2.34245e-08
3.8458358e-10
2.3282865e-08
3.8078049e-10
2.3142616e-08
3.7680169e-10
2.3003635e-08
3.7313721e-10
2.2866008e-08
3.692668e-10
2.2729606e-08
3.6573627e-10
2.2594529e-08
3.6196701e-10
2.2460635e-08
3.5856622e-10
2.2328039e-08
3.5489108e-10
2.2196585e-08
3.5161623e-10
2.2066404e-08
3.4802829e-10
2.1937324e-08
3.4487602e-10
2.1809495e-08
3.4136847e-10
2.1682726e-08
3.383358e-10
2.1557187e-08
3.3490188e-10
2.143267e-08
3.3198626e-10
2.1309363e-08
3.2861923e-10
2.1187038e-08
3.2581849e-10
2.1065908e-08
3.2251161e-10
2.094572e-08
3.1982398e-10
2.0826714e-08
3.1657045e-10
2.070861e-08
3.1399461e-10
2.0591677e-08
3.107875e-10
2.0475606e-08
3.0832249e-10
2.0360697e-08
3.0515475e-10
2.0246609e-08
3.0280005e-10
2.0133679e-08
2.9966442e-10
2.0021529e-08
2.9741996e-10
1.9910534e-08
2.9430897e-10
1.9800277e-08
2.9217514e-10
1.9691175e-08
2.8908105e-10
1.9582768e-08
2.8705871e-10
1.9475522e-08
2.839734e-10
1.9368924e-08
2.8206392e-10
1.9263496e-08
2.7897893e-10
1.9158671e-08
2.7718421e-10
1.9055027e-08
2.7409064e-10
1.8951937e-08
2.7241319e-10
1.8850046e-08
2.6930175e-10
1.8748657e-08
2.6774469e-10
1.8648489e-08
2.6460563e-10
1.8548769e-08
2.6317272e-10
1.8450297e-08
2.5999587e-10
1.8352216e-08
2.5869163e-10
1.8255414e-08
2.5546642e-10
1.8158944e-08
2.542962e-10
1.8063791e-08
2.5101168e-10
1.7968904e-08
2.4998171e-10
1.7875379e-08
2.4662682e-10
1.7782051e-08
2.4574429e-10
1.7690135e-08
2.4230814e-10
1.7598341e-08
2.4158124e-10
1.7508017e-08
2.3805371e-10
1.7417733e-08
2.3749158e-10
1.7328985e-08
2.3386395e-10
1.7240188e-08
2.3347691e-10
1.7152997e-08
2.2974307e-10
1.7065662e-08
2.2954274e-10
1.6980011e-08
2.2570044e-10
1.6894109e-08
2.2569989e-10
1.6809973e-08
2.2175343e-10
1.6725471e-08
2.2196774e-10
1.6642818e-08
2.1793167e-10
1.6559674e-08
2.1837833e-10
1.6478459e-08
2.1428309e-10
1.6396612e-08
2.1498366e-10
1.6316765e-08
2.1088558e-10
1.6236133e-08
2.1186725e-10
1.6157545e-08
2.0786795e-10
1.6078006e-08
2.0916282e-10
1.6000488e-08
2.0545551e-10
1.592188e-08
2.0706296e-10
1.5845056e-08
2.0413601e-10
1.5767206e-08
2.0569314e-10
2.0749914e-10
5.0053534e-08
2.3980938e-09
-4.9993274e-08
5.0227928e-08
2.8744392e-09
5.0500243e-08
3.3524048e-09
5.0775543e-08
3.7011447e-09
5.1019687e-08
3.8768084e-09
5.1244629e-08
3.9239114e-09
5.1463781e-08
3.9027761e-09
5.1665133e-08
3.8289569e-09
5.1828069e-08
3.6954439e-09
5.1940653e-08
3.5083929e-09
5.2004587e-08
3.2891671e-09
5.2031447e-08
3.0670093e-09
5.2034274e-08
2.867209e-09
5.202157e-08
2.7018353e-09
5.1997695e-08
2.5696241e-09
5.1964865e-08
2.4635149e-09
5.1924803e-08
2.3765747e-09
5.1878731e-08
2.3037467e-09
5.1827132e-08
2.2413446e-09
5.1769874e-08
2.1865367e-09
5.1706507e-08
2.1371744e-09
5.1636511e-08
2.0917432e-09
5.1559422e-08
2.0492484e-09
5.1474887e-08
2.0090836e-09
5.1382672e-08
1.9708919e-09
5.1282642e-08
1.9344735e-09
5.1174747e-08
1.8997016e-09
5.1059001e-08
1.8664851e-09
5.0935464e-08
1.8347325e-09
5.0804234e-08
1.804349e-09
5.0665431e-08
1.7752254e-09
5.0519201e-08
1.7472535e-09
5.0365709e-08
1.7203214e-09
5.0205138e-08
1.694328e-09
5.0037686e-08
1.6691752e-09
4.9863568e-08
1.6447797e-09
4.9683012e-08
1.6210628e-09
4.9496258e-08
1.5979609e-09
4.9303556e-08
1.5754142e-09
4.9105167e-08
1.5533768e-09
4.8901357e-08
1.5318047e-09
4.8692401e-08
1.5106661e-09
4.8478576e-08
1.4899292e-09
4.8260162e-08
1.4695722e-09
4.8037441e-08
1.449572e-09
4.7810695e-08
1.4299138e-09
4.7580201e-08
1.4105805e-09
4.7346238e-08
1.3915621e-09