/*--------------------------------*- C++ -*----------------------------------*\
| =========                 |                                                 |
| \\      /  F ield         | OpenFOAM: The Open Source CFD Toolbox           |
|  \\    /   O peration     | Version:  5.x                                   |
|   \\  /    A nd           | Web:      www.OpenFOAM.org                      |
|    \\/     M anipulation  |                                                 |
\*---------------------------------------------------------------------------*/
FoamFile
{
    version     2.0;
    format      ascii;
    class       volVectorField;
    location    "0.7";
    object      U;
}
// * * * * * * * * * * * * * * * * * * * * * * * * * * * * * * * * * * * * * //

dimensions      [0 1 -1 0 0 0 0];

internalField   nonuniform List<vector> 
21600
(
(0.44560999 0.0096598043 0)
(0.40259641 0.013137752 0)
(0.36167056 0.013390355 0)
(0.32010425 0.012309348 0)
(0.27850225 0.011029983 0)
(0.23875365 0.0096291782 0)
(0.20299832 0.0079009155 0)
(0.1730285 0.0058435972 0)
(0.14932943 0.0036684773 0)
(0.13152575 0.0018306903 0)
(0.11855834 0.00060909637 0)
(0.10924538 -4.4773764e-05 0)
(0.10256996 -0.00031940544 0)
(0.09768985 -0.00036977322 0)
(0.093973318 -0.00030770864 0)
(0.090953028 -0.00019935622 0)
(0.088319476 -8.70032e-05 0)
(0.08589411 5.8802476e-06 0)
(0.083590037 7.1869322e-05 0)
(0.08137628 0.00011290995 0)
(0.079249879 0.00013455658 0)
(0.077217693 0.00014280662 0)
(0.075286965 0.00014272103 0)
(0.073461516 0.00013801608 0)
(0.071741084 0.00013114097 0)
(0.070121949 0.00012354856 0)
(0.068598141 0.00011601533 0)
(0.067162419 0.00010891961 0)
(0.065807174 0.00010240033 0)
(0.064524976 9.6471955e-05 0)
(0.063308968 9.109309e-05 0)
(0.062152962 8.6205087e-05 0)
(0.061051527 8.1745992e-05 0)
(0.059999883 7.7660052e-05 0)
(0.058993906 7.3897488e-05 0)
(0.058029965 7.0417486e-05 0)
(0.057104928 6.7184743e-05 0)
(0.056216 6.4171397e-05 0)
(0.055360749 6.1353095e-05 0)
(0.054536963 5.8711119e-05 0)
(0.053742696 5.6228474e-05 0)
(0.052976138 5.3892364e-05 0)
(0.052235689 5.1690371e-05 0)
(0.051519831 4.9613282e-05 0)
(0.050827217 4.7651366e-05 0)
(0.050156549 4.5797517e-05 0)
(0.04950668 4.4043591e-05 0)
(0.048876487 4.2383769e-05 0)
(0.048264986 4.081093e-05 0)
(0.047671198 3.9320247e-05 0)
(0.047094278 3.7905474e-05 0)
(0.046533368 3.6562528e-05 0)
(0.045987738 3.5285822e-05 0)
(0.045456633 3.4071947e-05 0)
(0.044939425 3.2915967e-05 0)
(0.044435445 3.181509e-05 0)
(0.04394415 3.0764971e-05 0)
(0.043464944 2.9763349e-05 0)
(0.042997357 2.8806402e-05 0)
(0.042540856 2.7892313e-05 0)
(0.042095034 2.7017714e-05 0)
(0.041659408 2.6181146e-05 0)
(0.041233626 2.5379637e-05 0)
(0.040817249 2.4612009e-05 0)
(0.040409973 2.3875638e-05 0)
(0.040011395 2.3169555e-05 0)
(0.039621253 2.2491448e-05 0)
(0.039239175 2.1840498e-05 0)
(0.038864936 2.1214681e-05 0)
(0.03849819 2.0613277e-05 0)
(0.038138747 2.0034534e-05 0)
(0.03778628 1.947779e-05 0)
(0.037440631 1.8941551e-05 0)
(0.037101491 1.8425166e-05 0)
(0.03676873 1.79274e-05 0)
(0.036442053 1.7447577e-05 0)
(0.036121357 1.6984726e-05 0)
(0.035806357 1.6538111e-05 0)
(0.035496977 1.6107026e-05 0)
(0.035192937 1.5690639e-05 0)
(0.034894188 1.5288522e-05 0)
(0.034600455 1.489971e-05 0)
(0.034311712 1.4524067e-05 0)
(0.034027685 1.4160464e-05 0)
(0.033748374 1.380907e-05 0)
(0.033473502 1.3468561e-05 0)
(0.033203096 1.3139427e-05 0)
(0.032936873 1.2820114e-05 0)
(0.032674886 1.251145e-05 0)
(0.032416845 1.2211623e-05 0)
(0.032162831 1.1921822e-05 0)
(0.031912539 1.1639941e-05 0)
(0.031666084 1.136755e-05 0)
(0.031423142 1.1102223e-05 0)
(0.031183864 1.0845932e-05 0)
(0.030947901 1.0595899e-05 0)
(0.030715444 1.0354522e-05 0)
(0.030486117 1.0118642e-05 0)
(0.030260153 9.8911006e-06 0)
(0.030037141 9.6683346e-06 0)
(0.029817362 9.4536486e-06 0)
(0.029600367 9.2430496e-06 0)
(0.02938649 9.0403264e-06 0)
(0.029175231 8.8410302e-06 0)
(0.02896699 8.649454e-06 0)
(0.028761208 8.4606716e-06 0)
(0.028558356 8.2794974e-06 0)
(0.028357805 8.1005076e-06 0)
(0.02816011 7.9290512e-06 0)
(0.027964561 7.759192e-06 0)
(0.027771808 7.5968251e-06 0)
(0.027581044 7.4354904e-06 0)
(0.027393031 7.2816351e-06 0)
(0.02720685 7.1282689e-06 0)
(0.027023388 6.9823917e-06 0)
(0.026841597 6.8364828e-06 0)
(0.026662509 6.6980893e-06 0)
(0.026484926 6.5591674e-06 0)
(0.026310048 6.4278e-06 0)
(0.026136501 6.2954333e-06 0)
(0.025965677 6.1706661e-06 0)
(0.025796003 6.0444581e-06 0)
(0.02562909 5.925893e-06 0)
(0.025463131 5.8054798e-06 0)
(0.025299994 5.6927457e-06 0)
(0.025137603 5.5777932e-06 0)
(0.024978116 5.4705414e-06 0)
(0.024819151 5.3607439e-06 0)
(0.024663197 5.2586441e-06 0)
(0.024507519 5.1537233e-06 0)
(0.024354991 5.0564627e-06 0)
(0.024202469 4.9561653e-06 0)
(0.024053266 4.8634457e-06 0)
(0.023903773 4.7675434e-06 0)
(0.023757802 4.6790787e-06 0)
(0.023611214 4.5873673e-06 0)
(0.023468393 4.5028807e-06 0)
(0.023324589 4.4151795e-06 0)
(0.023184839 4.3344021e-06 0)
(0.023043701 4.2505533e-06 0)
(0.022906956 4.1732211e-06 0)
(0.022768367 4.0930897e-06 0)
(0.022634566 4.0189414e-06 0)
(0.02249841 3.9424158e-06 0)
(0.022367502 3.8711902e-06 0)
(0.022233663 3.7981834e-06 0)
(0.022105605 3.7296182e-06 0)
(0.021973968 3.6600691e-06 0)
(0.021848724 3.593897e-06 0)
(0.021719173 3.5277695e-06 0)
(0.021596719 3.4637135e-06 0)
(0.021469133 3.4009995e-06 0)
(0.021349455 3.3387717e-06 0)
(0.021223711 3.2794948e-06 0)
(0.021106804 3.2187944e-06 0)
(0.020982776 3.1630118e-06 0)
(0.020868648 3.1035193e-06 0)
(0.020746203 3.0513233e-06 0)
(0.020634874 2.9926963e-06 0)
(0.020513873 2.9442198e-06 0)
(0.020405377 2.8860863e-06 0)
(0.020285671 2.8415078e-06 0)
(0.020180057 2.7834627e-06 0)
(0.020061487 2.743015e-06 0)
(0.019958821 2.6846124e-06 0)
(0.019841217 2.6485883e-06 0)
(0.019741583 2.5893338e-06 0)
(0.019624757 2.5580917e-06 0)
(0.019528261 2.4974352e-06 0)
(0.01941201 2.4714133e-06 0)
(0.019318779 2.4087426e-06 0)
(0.019202878 2.3884637e-06 0)
(0.019113066 2.3230951e-06 0)
(0.018997263 2.3091877e-06 0)
(0.018911053 2.2403463e-06 0)
(0.018795068 2.2335586e-06 0)
(0.018712675 2.1603569e-06 0)
(0.018596192 2.1616145e-06 0)
(0.018517865 2.0830331e-06 0)
(0.018400528 2.0934272e-06 0)
(0.018326555 2.0082808e-06 0)
(0.018207956 2.0291668e-06 0)
(0.018138668 1.9360826e-06 0)
(0.018018342 1.9691031e-06 0)
(0.017954118 1.866432e-06 0)
(0.017831526 1.9136426e-06 0)
(0.017772794 1.799419e-06 0)
(0.01764731 1.8634633e-06 0)
(0.017594553 1.7351981e-06 0)
(0.017465435 1.8195391e-06 0)
(0.017419201 1.6740882e-06 0)
(0.017285555 1.7834557e-06 0)
(0.017246463 1.6165698e-06 0)
(0.017107175 1.7577843e-06 0)
(0.017075942 1.5633297e-06 0)
(0.016929541 1.7471222e-06 0)
(0.016907086 1.5147441e-06 0)
(0.016751373 1.7604836e-06 0)
(0.016739405 1.4668266e-06 0)
(0.01656894 1.9460653e-06 0)
(0.47652294 0.016892619 0)
(0.47441082 0.023596154 0)
(0.47061698 0.02557519 0)
(0.46345685 0.025284112 0)
(0.4523296 0.024408097 0)
(0.43783631 0.023243148 0)
(0.42106419 0.021517926 0)
(0.40324701 0.019078506 0)
(0.38516176 0.016047856 0)
(0.36745927 0.012847534 0)
(0.35053261 0.0099289056 0)
(0.33460455 0.0075386943 0)
(0.31987421 0.0057129712 0)
(0.30640889 0.0043745717 0)
(0.29423273 0.0034410714 0)
(0.28325995 0.0028198717 0)
(0.27335062 0.0024156902 0)
(0.26435719 0.002146776 0)
(0.2561462 0.0019550096 0)
(0.24860532 0.0018046685 0)
(0.24164361 0.0016761168 0)
(0.23518825 0.001559737 0)
(0.22918058 0.00145158 0)
(0.22357216 0.0013505574 0)
(0.21832212 0.0012567405 0)
(0.21339499 0.0011704277 0)
(0.20875968 0.0010917067 0)
(0.20438847 0.001020379 0)
(0.20025671 0.00095597727 0)
(0.19634235 0.00089787106 0)
(0.1926259 0.0008453634 0)
(0.18909002 0.00079777297 0)
(0.18571948 0.00075446765 0)
(0.18250072 0.00071489213 0)
(0.17942187 0.00067856364 0)
(0.17647228 0.00064507772 0)
(0.17364263 0.00061409105 0)
(0.17092445 0.00058532172 0)
(0.16831028 0.00055852979 0)
(0.16579327 0.00053351868 0)
(0.16336735 0.00051011715 0)
(0.16102686 0.00048818377 0)
(0.15876676 0.00046759094 0)
(0.15658231 0.00044823218 0)
(0.15446928 0.00043000772 0)
(0.15242362 0.00041283382 0)
(0.15044177 0.00039662929 0)
(0.14852023 0.00038132618 0)
(0.14665595 0.00036685651 0)
(0.14484592 0.00035316407 0)
(0.14308753 0.00034019148 0)
(0.14137813 0.00032789201 0)
(0.13971548 0.00031621675 0)
(0.13809727 0.00030512673 0)
(0.13652157 0.00029458016 0)
(0.13498632 0.00028454459 0)
(0.13348987 0.00027498424 0)
(0.13203037 0.00026587202 0)
(0.13060639 0.00025717724 0)
(0.12921629 0.00024887725 0)
(0.12785884 0.0002409456 0)
(0.12653253 0.00023336325 0)
(0.1252363 0.00022610733 0)
(0.1239688 0.00021916171 0)
(0.1227291 0.00021250658 0)
(0.12151595 0.00020612811 0)
(0.12032857 0.00020000914 0)
(0.1191658 0.00019413765 0)
(0.11802697 0.0001884988 0)
(0.116911 0.00018308199 0)
(0.11581733 0.00017787442 0)
(0.11474493 0.0001728666 0)
(0.11369335 0.00016804765 0)
(0.11266161 0.00016340881 0)
(0.11164935 0.00015894098 0)
(0.11065562 0.0001546359 0)
(0.10968016 0.00015048617 0)
(0.10872205 0.00014648375 0)
(0.10778109 0.00014262291 0)
(0.1068564 0.00013889563 0)
(0.10594785 0.00013529779 0)
(0.10505458 0.00013182118 0)
(0.10417653 0.00012846332 0)
(0.10331284 0.00012521559 0)
(0.10246354 0.0001220772 0)
(0.10162775 0.0001190389 0)
(0.10080559 0.00011610164 0)
(0.099996144 0.00011325534 0)
(0.099199636 0.00011050276 0)
(0.098415116 0.00010783282 0)
(0.097642894 0.00010525013 0)
(0.096881976 0.00010274246 0)
(0.096132779 0.00010031637 0)
(0.095394243 9.7958257e-05 0)
(0.0946669 9.5676768e-05 0)
(0.093949615 9.3456722e-05 0)
(0.093243044 9.1308973e-05 0)
(0.092545958 8.9216587e-05 0)
(0.091859154 8.7192735e-05 0)
(0.091181289 8.5218551e-05 0)
(0.090513318 8.3309659e-05 0)
(0.089853761 8.1445073e-05 0)
(0.089203755 7.9643008e-05 0)
(0.088561655 7.7880175e-05 0)
(0.087928803 7.6177528e-05 0)
(0.087303363 7.4509285e-05 0)
(0.086686911 7.289929e-05 0)
(0.086077385 7.1319086e-05 0)
(0.085476629 6.9795555e-05 0)
(0.084882315 6.8297384e-05 0)
(0.084296596 6.6854645e-05 0)
(0.083716836 6.5432997e-05 0)
(0.08314554 6.406585e-05 0)
(0.082579713 6.2715662e-05 0)
(0.082022264 6.1419321e-05 0)
(0.081469784 6.0135931e-05 0)
(0.080925645 5.890599e-05 0)
(0.080385959 5.7685097e-05 0)
(0.079854627 5.6517493e-05 0)
(0.079327207 5.5355133e-05 0)
(0.078808213 5.4246113e-05 0)
(0.078292562 5.3138622e-05 0)
(0.077785466 5.2084708e-05 0)
(0.077281109 5.1028699e-05 0)
(0.076785501 5.0026672e-05 0)
(0.076291984 4.901901e-05 0)
(0.075807484 4.8065878e-05 0)
(0.075324372 4.7103658e-05 0)
(0.074850625 4.6196632e-05 0)
(0.074377501 4.5277164e-05 0)
(0.073914179 4.4413646e-05 0)
(0.073450642 4.3534436e-05 0)
(0.072997439 4.2711992e-05 0)
(0.0725431 4.1870733e-05 0)
(0.07209974 4.1087083e-05 0)
(0.071654222 4.0281637e-05 0)
(0.071220449 3.9534633e-05 0)
(0.070783383 3.8763025e-05 0)
(0.070358968 3.8050642e-05 0)
(0.069929994 3.7311047e-05 0)
(0.069514731 3.6631363e-05 0)
(0.069093494 3.5922098e-05 0)
(0.068687202 3.5273285e-05 0)
(0.068273349 3.4592805e-05 0)
(0.067875873 3.3973118e-05 0)
(0.067469053 3.3320013e-05 0)
(0.067080264 3.2727774e-05 0)
(0.066680124 3.2100766e-05 0)
(0.066299921 3.1534351e-05 0)
(0.065906104 3.0932283e-05 0)
(0.065534414 3.0390106e-05 0)
(0.065146558 2.9811951e-05 0)
(0.06478334 2.9292459e-05 0)
(0.064401071 2.8737324e-05 0)
(0.064046316 2.8238984e-05 0)
(0.063669249 2.7706111e-05 0)
(0.063322985 2.7227392e-05 0)
(0.062950716 2.6716154e-05 0)
(0.062613008 2.6255514e-05 0)
(0.062245114 2.5765434e-05 0)
(0.061916071 2.5321298e-05 0)
(0.061552103 2.4852057e-05 0)
(0.061231881 2.4422809e-05 0)
(0.060871357 2.3974272e-05 0)
(0.060560163 2.355823e-05 0)
(0.060202566 2.3130462e-05 0)
(0.059900663 2.2725852e-05 0)
(0.05954543 2.2319135e-05 0)
(0.059253149 2.1924082e-05 0)
(0.058899662 2.1538958e-05 0)
(0.058617403 2.1151457e-05 0)
(0.058264983 2.0788741e-05 0)
(0.057993226 2.0406643e-05 0)
(0.05764112 2.0067499e-05 0)
(0.057380432 1.9688456e-05 0)
(0.057027798 1.9374457e-05 0)
(0.056778847 1.8995863e-05 0)
(0.056424741 1.8709166e-05 0)
(0.056188305 1.8328098e-05 0)
(0.05583166 1.8071482e-05 0)
(0.055608636 1.7684616e-05 0)
(0.055248242 1.746178e-05 0)
(0.055039663 1.7065341e-05 0)
(0.054674136 1.6881054e-05 0)
(0.054481179 1.6470592e-05 0)
(0.054108928 1.6331167e-05 0)
(0.053932934 1.5901469e-05 0)
(0.053552113 1.5815405e-05 0)
(0.053394599 1.5360047e-05 0)
(0.053003035 1.5338896e-05 0)
(0.052865716 1.4850032e-05 0)
(0.052460808 1.4909964e-05 0)
(0.052345634 1.4377596e-05 0)
(0.051924168 1.4542075e-05 0)
(0.051833404 1.3953102e-05 0)
(0.051391193 1.4257713e-05 0)
(0.051327677 1.3593648e-05 0)
(0.050858641 1.4093423e-05 0)
(0.05082704 1.3329472e-05 0)
(0.05031959 1.4697713e-05 0)
(0.47978319 0.015745963 0)
(0.48110047 0.021484857 0)
(0.4839016 0.024576057 0)
(0.48657486 0.025587272 0)
(0.48783807 0.025703528 0)
(0.48725661 0.025403244 0)
(0.48487442 0.02457021 0)
(0.48090392 0.023002721 0)
(0.47553092 0.020778539 0)
(0.46895722 0.01821066 0)
(0.46143911 0.015687944 0)
(0.45322953 0.013478201 0)
(0.44462994 0.011674434 0)
(0.4358757 0.0102352 0)
(0.42717461 0.0090975156 0)
(0.41862695 0.0081937563 0)
(0.41027309 0.0074610426 0)
(0.40212663 0.0068478406 0)
(0.39419131 0.0063172457 0)
(0.38646797 0.0058456291 0)
(0.37895789 0.0054189023 0)
(0.37166337 0.0050289639 0)
(0.36458763 0.0046711953 0)
(0.35773355 0.0043428745 0)
(0.35110311 0.0040421704 0)
(0.34469646 0.0037675511 0)
(0.33851216 0.0035174792 0)
(0.33254679 0.0032902394 0)
(0.32679548 0.0030839353 0)
(0.32125196 0.002896597 0)
(0.31590919 0.0027262706 0)
(0.31075929 0.0025711113 0)
(0.30579422 0.0024294146 0)
(0.30100555 0.0022996536 0)
(0.29638508 0.0021804667 0)
(0.29192452 0.0020706685 0)
(0.28761604 0.0019692195 0)
(0.28345185 0.0018752285 0)
(0.2794248 0.0017879173 0)
(0.27552779 0.0017066221 0)
(0.27175439 0.0016307591 0)
(0.26809827 0.0015598293 0)
(0.26455375 0.0014933873 0)
(0.26111518 0.0014310505 0)
(0.2577776 0.0013724706 0)
(0.25453599 0.0013173477 0)
(0.25138603 0.0012654028 0)
(0.24832325 0.0012163959 0)
(0.24534388 0.0011700995 0)
(0.24244396 0.0011263183 0)
(0.23962018 0.0010848643 0)
(0.23686899 0.001045577 0)
(0.23418752 0.0010082996 0)
(0.23157258 0.00097289939 0)
(0.22902164 0.00093924465 0)
(0.22653183 0.0009072252 0)
(0.22410095 0.00087672972 0)
(0.22172637 0.00084766615 0)
(0.21940618 0.00081993994 0)
(0.21713798 0.00079347368 0)
(0.21492011 0.00076818666 0)
(0.21275035 0.00074401334 0)
(0.21062728 0.00072088454 0)
(0.20854883 0.00069874429 0)
(0.20651377 0.00067753308 0)
(0.20452018 0.00065720267 0)
(0.20256702 0.00063770183 0)
(0.20065247 0.00061898848 0)
(0.19877566 0.00060101859 0)
(0.19693488 0.00058375495 0)
(0.1951294 0.00056715983 0)
(0.19335758 0.00055119989 0)
(0.19161886 0.00053584312 0)
(0.18991164 0.00052105905 0)
(0.18823551 0.00050682095 0)
(0.1865889 0.00049310042 0)
(0.18497154 0.00047987561 0)
(0.18338189 0.00046711951 0)
(0.18181982 0.00045481491 0)
(0.18028378 0.0004429355 0)
(0.1787738 0.0004314686 0)
(0.17728831 0.00042038797 0)
(0.17582746 0.00040968542 0)
(0.17438969 0.0003993342 0)
(0.17297528 0.00038933061 0)
(0.17158261 0.00037964684 0)
(0.17021213 0.00037028378 0)
(0.16886216 0.00036121199 0)
(0.16753331 0.00035243707 0)
(0.1662238 0.00034392742 0)
(0.16493444 0.00033569355 0)
(0.16366332 0.00032770119 0)
(0.16241146 0.00031996598 0)
(0.16117683 0.00031245047 0)
(0.15996063 0.00030517567 0)
(0.15876069 0.00029810042 0)
(0.15757845 0.00029125145 0)
(0.15641153 0.0002845833 0)
(0.15526166 0.00027812879 0)
(0.15412621 0.00027183764 0)
(0.15300722 0.0002657491 0)
(0.15190179 0.00025980755 0)
(0.1508123 0.00025405908 0)
(0.14973553 0.00024844213 0)
(0.14867425 0.00024301013 0)
(0.14762487 0.00023769496 0)
(0.14659059 0.00023255787 0)
(0.1455674 0.0002275236 0)
(0.14455899 0.00022266171 0)
(0.14356086 0.00021788919 0)
(0.14257728 0.00021328447 0)
(0.14160314 0.00020875612 0)
(0.14064339 0.00020439199 0)
(0.13969226 0.00020009164 0)
(0.13875541 0.00019595291 0)
(0.13782633 0.00019186566 0)
(0.13691152 0.00018793833 0)
(0.13600359 0.00018405042 0)
(0.13511002 0.00018032161 0)
(0.13422238 0.00017662033 0)
(0.13334929 0.00017307815 0)
(0.13248113 0.00016955175 0)
(0.1316278 0.00016618521 0)
(0.13077835 0.00016282279 0)
(0.12994413 0.00015962174 0)
(0.12911265 0.00015641317 0)
(0.12829692 0.00015336822 0)
(0.12748269 0.00015030411 0)
(0.12668488 0.00014740652 0)
(0.12588722 0.00014447811 0)
(0.1251068 0.00014171978 0)
(0.12432505 0.00013891892 0)
(0.12356152 0.00013629233 0)
(0.12279505 0.00013361142 0)
(0.12204796 0.00013110955 0)
(0.12129614 0.0001285415 0)
(0.12056509 0.0001261578 0)
(0.1198273 0.00012369599 0)
(0.11911193 0.00012142435 0)
(0.11838758 0.00011906258 0)
(0.11768755 0.00011689728 0)
(0.11697605 0.00011462975 0)
(0.11629107 0.00011256542 0)
(0.11559183 0.0001103867 0)
(0.11492167 0.00010841831 0)
(0.11423411 0.00010632333 0)
(0.11357855 0.00010444613 0)
(0.11290207 0.00010243014 0)
(0.11226097 0.00010063964 0)
(0.11159499 9.8698196e-05 0)
(0.11096824 9.6990163e-05 0)
(0.11031213 9.5119104e-05 0)
(0.10969967 9.348949e-05 0)
(0.10905282 9.1684964e-05 0)
(0.10845466 9.012993e-05 0)
(0.10781641 8.8388359e-05 0)
(0.10723262 8.6904214e-05 0)
(0.10660229 8.5222272e-05 0)
(0.10603299 8.3805464e-05 0)
(0.10540987 8.2180108e-05 0)
(0.10485526 8.082719e-05 0)
(0.10423859 7.9255659e-05 0)
(0.10369896 7.7963273e-05 0)
(0.10308792 7.6443121e-05 0)
(0.10256363 7.5207967e-05 0)
(0.10195735 7.3737073e-05 0)
(0.10144888 7.2555867e-05 0)
(0.10084641 7.1132472e-05 0)
(0.10035433 7.0001947e-05 0)
(0.09975463 6.8624707e-05 0)
(0.099279638 6.7541573e-05 0)
(0.098681561 6.6209583e-05 0)
(0.098224493 6.5170514e-05 0)
(0.097626772 6.3883441e-05 0)
(0.097188614 6.2885019e-05 0)
(0.096589835 6.1643236e-05 0)
(0.096171743 6.0681871e-05 0)
(0.095570324 5.9486739e-05 0)
(0.095173638 5.8558569e-05 0)
(0.094567798 5.7412617e-05 0)
(0.094194068 5.6513455e-05 0)
(0.09358179 5.5420889e-05 0)
(0.093232793 5.4546155e-05 0)
(0.092611783 5.3513219e-05 0)
(0.092289546 5.2657713e-05 0)
(0.091657175 5.1693652e-05 0)
(0.091364002 5.0851549e-05 0)
(0.090717235 4.996982e-05 0)
(0.090455733 4.91343e-05 0)
(0.089791022 4.8354285e-05 0)
(0.089564138 4.7517766e-05 0)
(0.088877265 4.6867634e-05 0)
(0.088688339 4.6021952e-05 0)
(0.087974156 4.5543245e-05 0)
(0.087827033 4.4681193e-05 0)
(0.08707896 4.4435468e-05 0)
(0.086978292 4.3555445e-05 0)
(0.086187221 4.3632688e-05 0)
(0.086139476 4.2735695e-05 0)
(0.08529187 4.4579902e-05 0)
(0.48224549 0.014729034 0)
(0.48327558 0.019052543 0)
(0.48587247 0.022167288 0)
(0.48937278 0.02369265 0)
(0.49278963 0.024194273 0)
(0.49555521 0.024157993 0)
(0.49751285 0.02367166 0)
(0.4986355 0.022638729 0)
(0.49888731 0.021074752 0)
(0.49821295 0.019169028 0)
(0.49662516 0.017197106 0)
(0.49421631 0.01539595 0)
(0.49116393 0.013882335 0)
(0.48765914 0.01266443 0)
(0.4838672 0.01168614 0)
(0.47989006 0.010885976 0)
(0.47577852 0.010214685 0)
(0.47155467 0.0096352597 0)
(0.46722826 0.0091205932 0)
(0.46280527 0.008651736 0)
(0.45829265 0.0082162493 0)
(0.45369963 0.007806558 0)
(0.44903828 0.007418454 0)
(0.44432225 0.0070498863 0)
(0.43956623 0.0067000111 0)
(0.43478462 0.0063685249 0)
(0.42999144 0.0060552429 0)
(0.42519938 0.0057598368 0)
(0.42042019 0.0054817425 0)
(0.41566409 0.0052202158 0)
(0.41094035 0.0049743802 0)
(0.40625676 0.0047433164 0)
(0.40162034 0.0045260867 0)
(0.39703673 0.0043217893 0)
(0.39251102 0.0041295518 0)
(0.38804705 0.0039485641 0)
(0.38364834 0.003778057 0)
(0.37931727 0.0036173284 0)
(0.37505607 0.0034657143 0)
(0.37086597 0.0033226136 0)
(0.36674818 0.0031874555 0)
(0.36270301 0.0030597247 0)
(0.35873091 0.0029389287 0)
(0.35483148 0.0028246237 0)
(0.35100462 0.0027163819 0)
(0.34724937 0.0026138198 0)
(0.34356524 0.0025165649 0)
(0.3399509 0.0024242854 0)
(0.3364056 0.0023366573 0)
(0.33292773 0.002253394 0)
(0.32951638 0.0021742138 0)
(0.3261698 0.0020988691 0)
(0.32288698 0.0020271151 0)
(0.31966605 0.0019587389 0)
(0.31650602 0.0018935284 0)
(0.31340496 0.0018313008 0)
(0.3103619 0.0017718723 0)
(0.30737488 0.0017150858 0)
(0.30444301 0.0016607823 0)
(0.30156432 0.0016088261 0)
(0.29873801 0.0015590797 0)
(0.29596211 0.0015114255 0)
(0.29323594 0.0014657442 0)
(0.29055752 0.0014219335 0)
(0.2879263 0.0013798899 0)
(0.28534031 0.0013395234 0)
(0.28279911 0.0013007447 0)
(0.28030075 0.0012634738 0)
(0.27784492 0.0012276338 0)
(0.27542966 0.001193153 0)
(0.27305481 0.0011599654 0)
(0.27071838 0.0011280058 0)
(0.26842038 0.0010972184 0)
(0.26615878 0.0010675428 0)
(0.26393373 0.0010389326 0)
(0.26174319 0.0010113311 0)
(0.25958746 0.00098470067 0)
(0.25746444 0.00095898694 0)
(0.25537461 0.00093416081 0)
(0.25331579 0.00091016904 0)
(0.25128865 0.00088699084 0)
(0.24929091 0.00086457304 0)
(0.24732345 0.00084290309 0)
(0.24538388 0.00082192682 0)
(0.24347328 0.00080164002 0)
(0.24158913 0.0007819865 0)
(0.23973275 0.00076297056 0)
(0.23790145 0.00074453297 0)
(0.2360968 0.00072668683 0)
(0.23431593 0.00070936887 0)
(0.23256069 0.00069260136 0)
(0.23082798 0.00067631603 0)
(0.22911996 0.00066054479 0)
(0.22743326 0.00064521335 0)
(0.22577042 0.00063036381 0)
(0.22412773 0.00061591483 0)
(0.22250812 0.00060191934 0)
(0.22090754 0.0005882879 0)
(0.21932935 0.00057508498 0)
(0.21776909 0.00056221194 0)
(0.21623063 0.00054974561 0)
(0.21470901 0.000537577 0)
(0.21320866 0.0005257962 0)
(0.21172408 0.0005142827 0)
(0.21026033 0.00050314078 0)
(0.20881129 0.00049223722 0)
(0.20738273 0.00048169155 0)
(0.20596779 0.00047135649 0)
(0.20457307 0.00046136797 0)
(0.20319088 0.00045156334 0)
(0.20182876 0.0004420961 0)
(0.20047803 0.00043278686 0)
(0.19914731 0.00042380797 0)
(0.19782683 0.0004149618 0)
(0.19652639 0.00040644096 0)
(0.19523498 0.00039802804 0)
(0.19396378 0.00038993731 0)
(0.19270034 0.00038193003 0)
(0.19145739 0.00037424369 0)
(0.19022086 0.0003666165 0)
(0.18900523 0.00035931078 0)
(0.18779459 0.00035203996 0)
(0.18660542 0.0003450929 0)
(0.18541969 0.00033815643 0)
(0.18425616 0.00033154773 0)
(0.1830944 0.00032492508 0)
(0.18195576 0.00031863594 0)
(0.18081706 0.00031230801 0)
(0.1797026 0.00030632098 0)
(0.17858609 0.00030026991 0)
(0.17749515 0.00029456885 0)
(0.17639997 0.00028877795 0)
(0.17533196 0.00028334783 0)
(0.17425728 0.00027780148 0)
(0.17321164 0.00027262836 0)
(0.17215664 0.00026731192 0)
(0.17113288 0.00026238284 0)
(0.17009676 0.00025728253 0)
(0.16909442 0.00025258543 0)
(0.16807639 0.00024768829 0)
(0.16709508 0.00024321195 0)
(0.16609436 0.00023850577 0)
(0.16513374 0.00023423972 0)
(0.16414953 0.00022971296 0)
(0.16320931 0.00022564747 0)
(0.16224084 0.00022128925 0)
(0.16132079 0.00021741524 0)
(0.16036724 0.00021321522 0)
(0.15946721 0.00020952422 0)
(0.15852778 0.0002054726 0)
(0.15764767 0.00020195671 0)
(0.15672151 0.00019804415 0)
(0.15586129 0.00019469599 0)
(0.15494755 0.00019091366 0)
(0.15410728 0.00018772637 0)
(0.15320506 0.00018406584 0)
(0.15238487 0.00018103299 0)
(0.15149322 0.00017748619 0)
(0.15069335 0.00017460181 0)
(0.14981127 0.00017116105 0)
(0.14903204 0.00016841953 0)
(0.14815847 0.00016507751 0)
(0.14740034 0.00016247365 0)
(0.14653414 0.00015922344 0)
(0.14579767 0.00015675237 0)
(0.14493762 0.00015358744 0)
(0.1442235 0.0001512446 0)
(0.14336826 0.00014815883 0)
(0.14267737 0.00014593998 0)
(0.14182547 0.00014292774 0)
(0.14115884 0.00014082894 0)
(0.14030867 0.00013788508 0)
(0.13966752 0.00013590269 0)
(0.13881731 0.00013302278 0)
(0.13820307 0.00013115339 0)
(0.13735084 0.00012833387 0)
(0.13676519 0.00012657427 0)
(0.13590872 0.00012381287 0)
(0.1353536 0.00012215993 0)
(0.1344904 0.00011945601 0)
(0.13396803 0.00011790666 0)
(0.13309531 0.00011526192 0)
(0.13260825 0.00011381319 0)
(0.13172284 0.0001112323 0)
(0.13127397 0.00010988112 0)
(0.13037225 0.00010737317 0)
(0.12996486 0.00010611664 0)
(0.12904268 0.00010369701 0)
(0.12868048 0.00010253232 0)
(0.12773302 0.00010022529 0)
(0.12742016 9.9150796e-05 0)
(0.12644178 9.6993872e-05 0)
(0.12618295 9.6010687e-05 0)
(0.12516684 9.4061583e-05 0)
(0.12496731 9.3178076e-05 0)
(0.12390505 9.1525939e-05 0)
(0.12377084 9.0763273e-05 0)
(0.12265157 8.9571729e-05 0)
(0.12258938 8.8868264e-05 0)
(0.1214006 9.0485634e-05 0)
(0.48422117 0.014152937 0)
(0.48511313 0.017536919 0)
(0.4871658 0.020380918 0)
(0.49013507 0.0220866 0)
(0.49339524 0.02276783 0)
(0.4964232 0.02279807 0)
(0.49901068 0.022385458 0)
(0.50112417 0.021561847 0)
(0.50274815 0.020342991 0)
(0.50382605 0.018837359 0)
(0.50430889 0.017230884 0)
(0.50420766 0.015714238 0)
(0.50361198 0.014406824 0)
(0.50265282 0.013341186 0)
(0.50145427 0.012484533 0)
(0.50010089 0.011786131 0)
(0.4986354 0.011202504 0)
(0.49707131 0.010701564 0)
(0.4954075 0.010259884 0)
(0.49363728 0.0098603128 0)
(0.49175439 0.0094906354 0)
(0.48975476 0.0091426717 0)
(0.48763776 0.0088113528 0)
(0.4854052 0.0084938599 0)
(0.4830613 0.0081888011 0)
(0.4806113 0.0078955923 0)
(0.47806169 0.0076139558 0)
(0.47541899 0.007343693 0)
(0.47269037 0.0070845235 0)
(0.4698826 0.0068360844 0)
(0.4670029 0.0065979212 0)
(0.46405784 0.006369557 0)
(0.46105435 0.0061504928 0)
(0.45799862 0.0059402623 0)
(0.45489718 0.0057384096 0)
(0.45175571 0.0055445289 0)
(0.44858031 0.0053582304 0)
(0.44537614 0.0051791747 0)
(0.4421488 0.005007034 0)
(0.43890288 0.0048415252 0)
(0.43564349 0.0046823685 0)
(0.43237463 0.0045293218 0)
(0.42910088 0.0043821388 0)
(0.42582564 0.0042406044 0)
(0.422553 0.0041044941 0)
(0.41928575 0.0039736107 0)
(0.4160275 0.0038477445 0)
(0.41278046 0.0037267111 0)
(0.40954778 0.0036103126 0)
(0.40633115 0.0034983753 0)
(0.40313332 0.0033907119 0)
(0.39995545 0.003287158 0)
(0.39679994 0.0031875368 0)
(0.39366753 0.0030916939 0)
(0.39056029 0.0029994638 0)
(0.38747854 0.0029107021 0)
(0.38442414 0.0028252552 0)
(0.38139702 0.0027429886 0)
(0.37839884 0.0026637609 0)
(0.37542921 0.0025874474 0)
(0.37248966 0.0025139186 0)
(0.36957949 0.0024430589 0)
(0.36670013 0.002374751 0)
(0.36385061 0.0023088875 0)
(0.36103233 0.0022453629 0)
(0.35824407 0.0021840772 0)
(0.35548719 0.0021249365 0)
(0.35276025 0.0020678471 0)
(0.35006465 0.0020127265 0)
(0.34739871 0.0019594862 0)
(0.34476391 0.0019080549 0)
(0.34215835 0.001858348 0)
(0.33958359 0.0018103054 0)
(0.33703751 0.0017638451 0)
(0.33452182 0.0017189178 0)
(0.33203416 0.0016754431 0)
(0.32957639 0.0016333829 0)
(0.32714593 0.0015926571 0)
(0.32474483 0.0015532386 0)
(0.32237027 0.0015150464 0)
(0.3200245 0.0014780647 0)
(0.31770444 0.0014422104 0)
(0.3154126 0.0014074794 0)
(0.31314561 0.0013737849 0)
(0.31090627 0.0013411353 0)
(0.30869089 0.0013094385 0)
(0.30650262 0.0012787158 0)
(0.30433739 0.001248869 0)
(0.30219872 0.0012199327 0)
(0.30008217 0.0011918009 0)
(0.29799169 0.0011645226 0)
(0.29592237 0.0011379825 0)
(0.29387865 0.0011122451 0)
(0.29185513 0.0010871839 0)
(0.28985678 0.00106288 0)
(0.28787766 0.0010391945 0)
(0.28592333 0.0010162259 0)
(0.28398723 0.00099382118 0)
(0.28207561 0.00097209794 0)
(0.28018118 0.00095088706 0)
(0.27831097 0.00093032654 0)
(0.27645691 0.00091022941 0)
(0.27462689 0.00089075573 0)
(0.27281192 0.00087169864 0)
(0.27102089 0.000853242 0)
(0.26924377 0.00083515697 0)
(0.26749057 0.00081765314 0)
(0.26575012 0.0008004774 0)
(0.26403364 0.00078386715 0)
(0.26232868 0.00076754268 0)
(0.26064787 0.0007517714 0)
(0.25897726 0.00073624447 0)
(0.2573311 0.00072126172 0)
(0.25569375 0.00070648252 0)
(0.25408127 0.00069224167 0)
(0.25247611 0.00067816395 0)
(0.25089639 0.00066462188 0)
(0.24932238 0.00065120263 0)
(0.24777453 0.0006383194 0)
(0.24623067 0.00062551862 0)
(0.24471385 0.00061325726 0)
(0.24319915 0.00060103762 0)
(0.24171257 0.00058936382 0)
(0.24022608 0.00057769048 0)
(0.238769 0.00056657244 0)
(0.23730977 0.00055541282 0)
(0.23588148 0.00054482101 0)
(0.2344486 0.00053414459 0)
(0.23304846 0.00052405159 0)
(0.23164101 0.00051382972 0)
(0.23026842 0.00050421005 0)
(0.22888551 0.00049441584 0)
(0.2275399 0.00048524582 0)
(0.22618066 0.00047585395 0)
(0.22486153 0.00046711158 0)
(0.22352507 0.00045809815 0)
(0.22223196 0.00044976298 0)
(0.22091741 0.00044110544 0)
(0.21964992 0.00043315845 0)
(0.2183564 0.00042483544 0)
(0.21711419 0.00041725895 0)
(0.21584082 0.00040925019 0)
(0.21462361 0.0004020278 0)
(0.21336949 0.00039431401 0)
(0.21217704 0.0003874305 0)
(0.21094126 0.00037999331 0)
(0.20977344 0.00037343457 0)
(0.20855507 0.00036625643 0)
(0.20741178 0.00036000938 0)
(0.20620985 0.00035307343 0)
(0.20509111 0.00034712599 0)
(0.20390463 0.00034041606 0)
(0.2028105 0.00033475709 0)
(0.20163842 0.0003282576 0)
(0.2005691 0.0003228769 0)
(0.19941032 0.00031657281 0)
(0.19836609 0.00031146099 0)
(0.19721946 0.00030533769 0)
(0.19620071 0.00030048622 0)
(0.19506498 0.00029452952 0)
(0.19407225 0.00028993067 0)
(0.1929461 0.00028412678 0)
(0.19198004 0.00027977361 0)
(0.19086204 0.00027410911 0)
(0.18992349 0.00026999546 0)
(0.18881208 0.00026445731 0)
(0.18790202 0.00026057775 0)
(0.18679552 0.0002551533 0)
(0.18591516 0.00025150317 0)
(0.18481171 0.00024618022 0)
(0.18396244 0.00024275564 0)
(0.18286 0.00023752243 0)
(0.18204348 0.0002343203 0)
(0.18093978 0.00022916579 0)
(0.18015794 0.00022618381 0)
(0.17905048 0.00022109795 0)
(0.17830552 0.00021833449 0)
(0.1771915 0.00021330873 0)
(0.17648598 0.00021076281 0)
(0.17536226 0.00020579063 0)
(0.17469909 0.00020346194 0)
(0.17356215 0.0001985398 0)
(0.17294465 0.00019642883 0)
(0.17179052 0.00019155711 0)
(0.17122243 0.00018966504 0)
(0.17004662 0.00018485012 0)
(0.16953216 0.00018317934 0)
(0.16832954 0.00017843621 0)
(0.16787344 0.00017699056 0)
(0.16663813 0.00017234674 0)
(0.16624566 0.00017113312 0)
(0.16497085 0.00016663531 0)
(0.16464784 0.0001656659 0)
(0.16332552 0.00016139193 0)
(0.16307833 0.00016068763 0)
(0.16169894 0.00015677259 0)
(0.16153432 0.0001563487 0)
(0.16008651 0.00015311494 0)
(0.16001029 0.00015272577 0)
(0.15848366 0.00015344159 0)
(0.48587919 0.013720115 0)
(0.48670917 0.016484255 0)
(0.48839836 0.018956345 0)
(0.49084051 0.020652342 0)
(0.49365729 0.02145162 0)
(0.49642406 0.021563676 0)
(0.49889513 0.021215622 0)
(0.50100372 0.02051987 0)
(0.50274758 0.019520684 0)
(0.50410968 0.018285018 0)
(0.50506049 0.016934882 0)
(0.50559654 0.015617597 0)
(0.50576818 0.01444603 0)