/*--------------------------------*- C++ -*----------------------------------*\
| =========                 |                                                 |
| \\      /  F ield         | OpenFOAM: The Open Source CFD Toolbox           |
|  \\    /   O peration     | Version:  5.x                                   |
|   \\  /    A nd           | Web:      www.OpenFOAM.org                      |
|    \\/     M anipulation  |                                                 |
\*---------------------------------------------------------------------------*/
FoamFile
{
    version     2.0;
    format      ascii;
    class       volScalarField;
    location    "0.6";
    object      p;
}
// * * * * * * * * * * * * * * * * * * * * * * * * * * * * * * * * * * * * * //

dimensions      [0 2 -2 0 0 0 0];

internalField   nonuniform List<scalar> 
21600
(
0.044262039
0.041676761
0.036699293
0.032004928
0.028434307
0.025821748
0.023696722
0.021660008
0.019489655
0.017106182
0.014516484
0.01178166
0.0090051687
0.0063257483
0.0039056282
0.0019078588
0.00045437592
-0.00040585818
-0.00070632609
-0.00054923592
-7.2700312e-05
0.0005844675
0.0013065919
0.0020102636
0.0026437377
0.0031807651
0.0036133189
0.0039456656
0.0041895466
0.0043600522
0.0044726421
0.0045413871
0.0045782301
0.0045927999
0.0045925674
0.0045830965
0.0045683886
0.0045511804
0.0045332604
0.0045156956
0.0044990601
0.0044835698
0.0044692296
0.0044558934
0.0044433549
0.0044313604
0.004419667
0.0044080277
0.0043962351
0.0043840942
0.0043714596
0.0043581996
0.004344231
0.0043294789
0.0043139129
0.0042975031
0.004280259
0.0042621829
0.0042433111
0.0042236659
0.0042032996
0.0041822441
0.0041605589
0.0041382783
0.0041154625
0.0040921432
0.0040683777
0.004044192
0.0040196387
0.0039947367
0.0039695333
0.0039440403
0.0039182998
0.0038923174
0.0038661307
0.0038397396
0.0038131784
0.0037864425
0.0037595638
0.0037325338
0.0037053828
0.0036780994
0.0036507129
0.0036232092
0.0035956174
0.0035679211
0.0035401493
0.0035122835
0.003484353
0.0034563373
0.0034282661
0.003400117
0.0033719202
0.0033436512
0.0033153409
0.003286963
0.003258549
0.0032300704
0.0032015599
0.0031729868
0.0031443846
0.0031157208
0.0030870299
0.0030582772
0.0030294985
0.003000657
0.00297179
0.0029428582
0.0029139007
0.0028848758
0.0028558244
0.0028267023
0.0027975524
0.002768328
0.0027390742
0.0027097415
0.0026803778
0.0026509302
0.0026214497
0.0025918801
0.0025622756
0.0025325763
0.00250284
0.0024730029
0.0024431268
0.0024131434
0.0023831193
0.0023529812
0.002322801
0.0022924997
0.0022621551
0.0022316821
0.0022011651
0.0021705119
0.0021398144
0.0021089726
0.0020780869
0.0020470486
0.0020159674
0.0019847246
0.0019534412
0.0019219868
0.0018904949
0.0018588221
0.0018271162
0.0017952189
0.0017632943
0.0017311671
0.00169902
0.0016666583
0.0016342861
0.0016016865
0.0015690877
0.0015362475
0.0015034225
0.0014703406
0.001437291
0.0014039676
0.0013706972
0.0013371345
0.0013036493
0.0012698511
0.0012361598
0.0012021324
0.0011682466
0.0011339988
0.0010999339
0.0010654777
0.0010312531
0.00099660394
0.00096224423
0.00092742214
0.00089295778
0.00085798772
0.00082345637
0.00078836955
0.00075381755
0.00071865276
0.00068413718
0.00064894244
0.00061453365
0.00057936869
0.00054515369
0.00051009278
0.00047617993
0.00044131635
0.00040784179
0.0003732935
0.00034043048
0.00030634865
0.00027432117
0.00024090231
0.00021000687
0.0001775115
0.00014815411
0.00011693353
8.9699034e-05
6.0213855e-05
3.6029734e-05
8.5548801e-06
0.039754406
0.038562295
0.03525331
0.031401117
0.028045253
0.025409394
0.023259682
0.021264346
0.019186074
0.016914988
0.01443955
0.011815159
0.0091439751
0.0065643071
0.0042333057
0.0022970846
0.00086631735
-8.5453116e-06
-0.0003494695
-0.00024392962
0.00018135638
0.00079283249
0.0014753288
0.0021447204
0.0027501007
0.0032654462
0.003681948
0.0040029446
0.0042390422
0.0044042092
0.004513031
0.0045789857
0.0046136364
0.0046263699
0.0046245082
0.0046135273
0.0045973827
0.0045787899
0.0045595326
0.0045406798
0.0045228121
0.0045061505
0.0044907048
0.0044763305
0.0044628225
0.0044499254
0.0044373942
0.0044249768
0.004412462
0.0043996494
0.0043863898
0.0043725462
0.004358032
0.0043427683
0.0043267217
0.004309859
0.0042921876
0.0042737069
0.0042544518
0.0042344423
0.0042137296
0.0041923436
0.0041703433
0.0041477612
0.0041246573
0.0041010617
0.0040770317
0.004052592
0.004027795
0.0040026587
0.0039772302
0.0039515206
0.0039255719
0.0038993887
0.0038730089
0.0038464314
0.003819691
0.0037927819
0.0037657365
0.0037385451
0.0037112389
0.003683805
0.0036562737
0.0036286295
0.0036009024
0.0035730747
0.0035451763
0.0035171874
0.0034891383
0.0034610072
0.0034328248
0.0034045672
0.003376266
0.003347895
0.0033194865
0.0032910125
0.0032625061
0.003233937
0.0032053394
0.0031766809
0.0031479966
0.003119252
0.0030904837
0.0030616546
0.0030328027
0.0030038889
0.0029749527
0.0029459524
0.0029169294
0.0028878395
0.0028587262
0.0028295423
0.0028003338
0.0027710506
0.0027417413
0.0027123527
0.0026829362
0.0026534355
0.002623905
0.0025942848
0.0025646328
0.0025348852
0.0025051039
0.0024752206
0.0024453017
0.0024152743
0.0023852096
0.0023550294
0.0023248105
0.0022944689
0.0022640877
0.0022335761
0.0022030242
0.002172334
0.0021416034
0.002110726
0.0020798089
0.0020487364
0.0020176254
0.0019863498
0.001955038
0.0019235521
0.0018920332
0.00186033
0.0018285986
0.001796672
0.0017647232
0.0017325677
0.0017003976
0.0016680086
0.0016356147
0.0016029885
0.0015703693
0.0015375034
0.001504659
0.0014715522
0.0014384843
0.0014051368
0.0013718493
0.0013382631
0.0013047618
0.0012709406
0.0012372342
0.0012031845
0.0011692846
0.001135015
0.0011009369
0.0010664594
0.0010322227
0.00099755261
0.00096318173
0.00092833912
0.00089386454
0.0008588743
0.00082433367
0.00078922698
0.00075466665
0.00071948227
0.00068495931
0.00064974523
0.00061533
0.00058014594
0.00054592546
0.00051084567
0.0004769283
0.00044204605
0.00040856797
0.00037400123
0.0003411357
0.0003070357
0.00027500679
0.0002415701
0.00021067436
0.00017816164
0.00014880523
0.00011756797
9.03362e-05
6.0834733e-05
3.6654971e-05
9.1745692e-06
0.036530175
0.036054028
0.033942305
0.030915243
0.027843303
0.025176951
0.022937936
0.020921135
0.018902186
0.016743908
0.014410741
0.011945616
0.0094439893
0.0070334505
0.0048513952
0.0030215992
0.0016370291
0.00074346863
0.00032981586
0.00033033982
0.00064160896
0.0011472685
0.0017411322
0.0023408947
0.0028909446
0.0033625632
0.0037471468
0.0040472712
0.0042714487
0.004430988
0.004538046
0.0046042871
0.0046400983
0.0046541734
0.0046534659
0.004643279
0.0046275165
0.0046089065
0.0045892835
0.0045697797
0.0045510446
0.0045333607
0.004516794
0.004501243
0.0044865392
0.0044724527
0.0044587603
0.004445223
0.0044316412
0.004417819
0.0044036115
0.0043888803
0.0043735392
0.0043575051
0.0043407435
0.004323216
0.0043049282
0.0042858741
0.0042660869
0.0042455811
0.0042244066
0.0042025886
0.0041801849
0.0041572238
0.0041337646
0.0041098338
0.0040854885
0.0040607498
0.0040356709
0.0040102662
0.003984584
0.003958632
0.0039324536
0.0039060505
0.0038794619
0.003852684
0.0038257531
0.0037986606
0.0037714408
0.0037440813
0.003716615
0.0036890265
0.0036613478
0.0036335611
0.0036056981
0.0035777386
0.0035497146
0.0035216036
0.0034934382
0.0034651938
0.0034369034
0.0034085404
0.0033801386
0.0033516694
0.0033231673
0.0032946015
0.0032660077
0.0032373528
0.0032086734
0.0031799344
0.0031511736
0.0031223534
0.0030935133
0.0030646131
0.0030356939
0.0030067132
0.0029777136
0.0029486502
0.0029195676
0.0028904181
0.0028612486
0.0028320084
0.0028027469
0.0027734105
0.0027440512
0.0027146121
0.0026851484
0.0026555998
0.0026260247
0.0025963589
0.0025666648
0.0025368738
0.0025070526
0.0024771281
0.0024471715
0.0024171047
0.0023870042
0.0023567865
0.0023265338
0.0022961564
0.0022657431
0.0022351972
0.0022046149
0.002173892
0.0021431325
0.0021122239
0.0020812794
0.0020501768
0.0020190399
0.0019877354
0.0019563991
0.0019248854
0.0018933434
0.0018616134
0.00182986
0.0017979076
0.001765938
0.0017337576
0.001701568
0.0016691549
0.0016367425
0.0016040931
0.0015714564
0.0015385679
0.0015057072
0.0014725785
0.0014394952
0.0014061264
0.0013728244
0.0013392174
0.0013057027
0.0012718613
0.0012381424
0.0012040728
0.0011701614
0.0011358722
0.0011017836
0.0010672869
0.0010330405
0.0009983515
0.00096397186
0.00092911056
0.00089462814
0.00085961939
0.00082507184
0.00078994675
0.00075538043
0.00072017774
0.00068564972
0.00065041733
0.00061599802
0.00058079561
0.00054657202
0.00051147379
0.00047755431
0.00044265347
0.00040917431
0.0003745888
0.00034172323
0.00030760421
0.00027557631
0.00024212032
0.00021122663
0.00017869432
0.00014934096
0.00011808386
9.0855985e-05
6.1336217e-05
3.7138728e-05
9.6248293e-06
0.034243
0.034031477
0.032608551
0.030247635
0.027521039
0.02492205
0.022635461
0.020590697
0.018615444
0.016567157
0.014389133
0.012106016
0.0097978276
0.0075744971
0.005552899
0.0038378053
0.002508118
0.0016053434
0.0011263947
0.0010236563
0.0012153533
0.0016035255
0.0020933442
0.0026068163
0.0030889081
0.0035089776
0.0038558576
0.0041298735
0.0043372
0.0044867119
0.0045883353
0.0046519477
0.0046866659
0.0047003506
0.0046994496
0.0046889763
0.0046726916
0.0046532681
0.0046325462
0.004611692
0.0045914098
0.0045720371
0.0045536967
0.004536333
0.0045198185
0.0045039487
0.0044885241
0.0044733233
0.0044581633
0.0044428544
0.0044272575
0.0044112318
0.0043946909
0.0043775448
0.0043597561
0.004341278
0.0043221123
0.0043022443
0.0042817035
0.0042604965
0.00423867
0.0042162422
0.0041932688
0.0041697718
0.0041458098
0.0041214034
0.0040966098
0.0040714455
0.004045964
0.0040201756
0.0039941296
0.00396783
0.0039413216
0.0039146025
0.0038877136
0.0038606478
0.0038334431
0.0038060879
0.0037786182
0.0037510186
0.003723324
0.0036955158
0.0036676284
0.0036396405
0.0036115864
0.0035834425
0.0035552433
0.003526963
0.0034986367
0.0034702365
0.0034417981
0.0034132916
0.0033847534
0.0033561517
0.0033275237
0.0032988353
0.003270125
0.0032413565
0.0032125692
0.0031837247
0.0031548638
0.0031259455
0.0030970122
0.0030680206
0.0030390147
0.0030099486
0.0029808682
0.002951725
0.0029225669
0.0028933427
0.0028641026
0.0028347923
0.0028054648
0.0027760625
0.0027466412
0.0027171403
0.0026876185
0.0026580116
0.0026283819
0.0025986612
0.0025689158
0.002539073
0.0025092035
0.00247923
0.0024492279
0.0024191147
0.0023889714
0.0023587097
0.0023284166
0.0022979975
0.002267546
0.0022369606
0.0022063423
0.0021755816
0.0021447882
0.0021138436
0.0020828671
0.0020517303
0.0020205631
0.0019892259
0.001957861
0.001926316
0.0018947469
0.001862987
0.0018312081
0.001799227
0.0017672333
0.0017350254
0.001702813
0.0016703735
0.0016379396
0.0016052647
0.0015726078
0.0015396948
0.0015068149
0.0014736625
0.0014405613
0.0014071695
0.0013738507
0.0013402215
0.001306691
0.001272828
0.0012390943
0.0012050038
0.0011710786
0.001136769
0.0011026675
0.0010681508
0.0010338925
0.00099918397
0.00096479334
0.00092991286
0.00089542034
0.00086039271
0.00082583596
0.00079069225
0.00075611758
0.00072089647
0.00068636094
0.00065111029
0.00061668429
0.00058146373
0.00054723423
0.00051211791
0.00047819327
0.00044327436
0.00040979069
0.00037518711
0.00034231756
0.00030818045
0.00027614888
0.00024267481
0.00021177736
0.00017922705
0.00014986908
0.00011859463
9.135874e-05
6.1828341e-05
3.7567535e-05
1.001234e-05
0.032418586
0.032285742
0.031237934
0.029366706
0.027009945
0.024575538
0.022316689
0.020269328
0.018333474
0.016388068
0.014364585
0.012265469
0.010149844
0.0081080292
0.0062385532
0.0046312778
0.0033550992
0.0024488066
0.0019155481
0.001721938
0.0018042186
0.0020811155
0.0024694654
0.0028972843
0.0033115236
0.0036801699
0.0039890942
0.0042358882
0.004424493
0.0045618132
0.0046559849
0.0047153349
0.004747759
0.0047602264
0.0047585871
0.0047474722
0.004730424
0.0047100018
0.0046880106
0.0046656232
0.0046435832
0.0046222753
0.0046018784
0.0045823849
0.0045637146
0.0045456975
0.0045281678
0.0045109248
0.0044938059
0.0044766306
0.004459269
0.0044415803
0.0044234804
0.004404874
0.0043857225
0.0043659712
0.0043456193
0.0043246433
0.0043030697
0.0042808962
0.0042581671
0.0042348919
0.0042111247
0.0041868798
0.0041622149
0.0041371437
0.0041117234
0.004085964
0.0040599199
0.004033596
0.0040070424
0.0039802583
0.00395329
0.0039261309
0.003898824
0.0038713577
0.0038437721
0.0038160515
0.0037882342
0.0037603007
0.0037322883
0.0037041744
0.003675996
0.0036477279
0.003619407
0.0035910059
0.0035625618
0.0035340453
0.0035054939
0.0034768762
0.0034482307
0.0034195237
0.0033907946
0.0033620078
0.0033332035
0.0033043441
0.0032754709
0.0032465439
0.0032176058
0.0031886144
0.0031596137
0.0031305591
0.003101496
0.0030723777
0.0030432512
0.0030140672
0.0029848746
0.0029556215
0.002926359
0.0028970323
0.0028676948
0.0028382888
0.0028088703
0.0027793786
0.0027498724
0.0027202877
0.0026906865
0.0026610011
0.0026312972
0.0026015028
0.0025716878
0.0025417758
0.0025118411
0.0024818025
0.0024517392
0.0024215649
0.002391364
0.0023610447
0.0023306975
0.0023002241
0.0022697218
0.0022390849
0.0022084188
0.0021776096
0.0021467712
0.0021157806
0.0020847616
0.0020535813
0.0020223741
0.0019909956
0.0019595929
0.0019280088
0.0018964041
0.001864607
0.0018327944
0.0018007779
0.0017687525
0.0017365108
0.0017042684
0.0016717967
0.0016393345
0.0016066288
0.0015739452
0.0015410027
0.0015080977
0.001474917
0.0014417921
0.0014083732
0.001375032
0.0013413768
0.0013078251
0.001273937
0.0012401834
0.0012060687
0.0011721248
0.0011377918
0.0011036727
0.0010691334
0.0010348585
0.0010001281
0.00096572186
0.00093082014
0.00089631294
0.00086126465
0.00082669408
0.00079153024
0.00075694258
0.0007217018
0.00068715402
0.00065188415
0.00061744653
0.00058220715
0.00054796654
0.00051283179
0.00047889638
0.00044395943
0.00041046508
0.00037584386
0.00034296333
0.00030880908
0.00027676561
0.00024327502
0.0002123637
0.0001797979
0.00015042188
0.00011913498
9.1869393e-05
6.2341408e-05
3.7955559e-05
1.0355336e-05
0.030843313
0.030722384
0.029883307
0.028360078
0.026349485
0.024143147
0.021984614
0.0199747
0.018085202
0.016232441
0.01434977
0.012422369
0.010487057
0.0086136748
0.0068841978
0.0053763136
0.0041514496
0.0032466919
0.0026699946
0.0023989124
0.002384341
0.0025596108
0.0028528813
0.0031989843
0.0035475643
0.0038658812
0.0041372151
0.004356429
0.0045253028
0.0046490399
0.0047343153
0.0047881413
0.0048172933
0.0048278488
0.0048250112
0.0048129684
0.0047949914
0.0047734825
0.0047501817
0.0047262452
0.004702441
0.0046791896
0.0046567201
0.0046350681
0.0046141998
0.0045939798
0.0045742768
0.00455491
0.0045357382
0.0045165897
0.0044973466
0.0044778685
0.004458077
0.004437872
0.0044172166
0.0043960485
0.0043743666
0.0043521386
0.00432939
0.0043061091
0.0042823393
0.0042580809
0.0042333875
0.0042082648
0.0041827707
0.004156911
0.0041307438
0.0041042719
0.0040775513
0.0040505801
0.0040234108
0.0039960363
0.0039685056
0.0039408064
0.0039129844
0.0038850227
0.0038569646
0.0038287889
0.0038005374
0.0037721854
0.0037437736
0.0037152745
0.0036867285
0.0036581056
0.0036294461
0.0036007179
0.0035719616
0.0035431432
0.0035143037
0.0034854071
0.0034564954
0.0034275305
0.0033985552
0.0033695296
0.0033404974
0.0033114165
0.0032823319
0.0032531994
0.0032240651
0.0031948827
0.0031656996
0.0031364673
0.0031072346
0.0030779508
0.0030486662
0.0030193279
0.002989988
0.002960591
0.0029311909
0.0029017297
0.0028722638
0.0028427321
0.0028131936
0.0027835841
0.0027539656
0.0027242707
0.0026945644
0.0026647757
0.0026349732
0.002605082
0.0025751745
0.0025451717
0.0025151502
0.0024850263
0.0024548815
0.0024246269
0.0023943496
0.0023639548
0.0023335357
0.0023029911
0.0022724211
0.0022417173
0.0022109875
0.0021801151
0.0021492167
0.0021181666
0.0020870911
0.0020558545
0.0020245939
0.0019931623
0.0019617093
0.0019300749
0.0018984227
0.001866578
0.0018347206
0.001802659
0.0017705912
0.0017383068
0.0017060244
0.0016735121
0.0016410121
0.0016082679
0.0015755485
0.0015425694
0.0015096305
0.001476415
0.001443258
0.0014098059
0.0013764343
0.0013427474
0.001309167
0.0012752486
0.0012414678
0.0012073242
0.0011733543
0.0011389937
0.00110485
0.0010702842
0.001035986
0.0010012301
0.00096680167
0.0009318755
0.00089734709
0.0008622753
0.00082768442
0.00079249798
0.00075789076
0.00072262824
0.00068806151
0.00065277073
0.00061831454
0.00058305508
0.00054879604
0.00051364207
0.00047968799
0.00044473274
0.00041121896
0.00037658048
0.00034367901
0.00030950875
0.00027744158
0.00024393671
0.00021299671
0.00018041948
0.00015100506
0.00011971415
9.2385489e-05
6.2878068e-05
3.8292392e-05
1.0645329e-05
0.029429391
0.029300948
0.028591916
0.027321927
0.025608564
0.023648004
0.021639668
0.019708569
0.017879246
0.016110702
0.014350537
0.012575249
0.010802587
0.0090826979
0.0074817409
0.0060664142
0.0048920739
0.0039945142
0.003385273
0.0030501799
0.0029517913
0.0030359535
0.0032415293
0.0035105342
0.0037958989
0.0040648794
0.0042987928
0.0044900436
0.0046383395
0.0047473095
0.0048223666
0.0048693988
0.004894181
0.0049019373
0.0048972135
0.0048837198
0.0048644197
0.0048415273
0.0048166936
0.0047910391
0.0047653429
0.0047400493
0.0047154297
0.0046915555
0.0046684359
0.0046459652
0.0046240448
0.0046025104
0.0045812418
0.0045600739
0.0045389021
0.0045175858
0.0044960533
0.0044741997
0.004451991
0.0044293569
0.0044062972
0.0043827697
0.0043588003
0.0043343667
0.0043095124
0.0042842275
0.004258566
0.0042325237
0.0042061596
0.0041794705
0.0041525162
0.0041252913
0.0040978541
0.004070195
0.0040423697
0.0040143638
0.0039862299
0.0039579488
0.0039295705
0.0039010712
0.0038724988
0.0038438255
0.0038150977
0.0037862845
0.0037574312
0.0037285043
0.0036995487
0.0036705285
0.0036414888
0.0036123915
0.003583282
0.0035541203
0.0035249524
0.0034957364
0.0034665191
0.0034372567
0.0034079968
0.0033786938
0.0033493962
0.0033200566
0.0032907243
0.0032613502
0.0032319846
0.0032025763
0.003173177
0.0031437334
0.0031142984
0.0030848167
0.0030553428
0.0030258191
0.0029963018
0.0029667309
0.0029371645
0.0029075402
0.0028779182
0.0028482333
0.0028185482
0.0027887949
0.0027590387
0.0027292086
0.0026993728
0.002669457
0.0026395327
0.0026095219
0.0025794998
0.0025493844
0.0025192549
0.0024890249
0.0024587785
0.0024284239
0.0023980507
0.0023675617
0.0023370521
0.0023064187
0.0022757634
0.0022449757
0.0022141653
0.0021832138
0.0021522392
0.0021211143
0.0020899668
0.0020586596
0.0020273309
0.0019958325
0.0019643152
0.0019326176
0.0019009044
0.001869
0.0018370849
0.0018049667
0.0017728442
0.0017405062
0.001708172
0.0016756089
0.0016430598
0.0016102674
0.0015775014
0.0015444766
0.0015114934
0.0014782346
0.0014450355
0.0014115423
0.0013781307
0.0013444047
0.0013107862
0.0012768307
0.0012430136
0.0012088346
0.0011748301
0.0011404359
0.0011062591
0.0010716613
0.0010373313
0.001002545
0.00096808601
0.00093313084
0.00089857299
0.00086347361
0.00082885417
0.0007936415
0.00075900636
0.00072371898
0.00068912469
0.00065381041
0.00061932669
0.00058404513
0.00054975813
0.00051458355
0.00048060046
0.00044562627
0.00041208153
0.00037742609
0.00034449035
0.00031030561
0.00027819869
0.00024468283
0.00021369363
0.00018111137
0.00015162983
0.00012034761
9.2910127e-05
6.3443999e-05
3.857772e-05
1.0892522e-05
0.028139296
0.028002054
0.027385288
0.026306596
0.024838505
0.023111728
0.021277606
0.019457433
0.01770589
0.016018415
0.014363977
0.012719745
0.011090528
0.0095092017
0.0080268522
0.0066995767
0.0055768322
0.0046928189
0.0040615408
0.0036751215
0.0035054544
0.0035090498
0.0036346163
0.0038313716
0.0040560344
0.0042766038
0.0044731516
0.00463604
0.0047630425
0.0048562632
0.0049199456
0.004958984
0.004978271
0.0049822467
0.0049748214
0.0049592181
0.004938072
0.0049133838
0.004886694
0.0048590684
0.0048312821
0.0048037903
0.004776897
0.0047507009
0.0047252482
0.004700457
0.004676258
0.0046525003
0.0046290831
0.0046058465
0.0045826987
0.0045594983
0.0045361813
0.0045126369
0.0044888353
0.0044646971
0.0044402242
0.0044153637
0.0043901422
0.0043645263
0.0043385604
0.004312223
0.0042855697
0.004258585
0.0042313302
0.0042037914
0.0041760316
0.0041480354
0.0041198649
0.004091501
0.0040630041
0.0040343509
0.0040055991
0.0039767209
0.0039477718
0.0039187199
0.0038896189
0.003860433
0.0038312147
0.0038019251
0.0037726159
0.0037432457
0.0037138659
0.0036844327
0.0036549977
0.0036255152
0.0035960371
0.0035665157
0.0035370036
0.0035074514
0.0034779123
0.0034483353
0.0034187742
0.0033891764
0.0033595966
0.0033299804
0.0033003834
0.0032707496
0.0032411354
0.003211483
0.00318185
0.0031521767
0.0031225219
0.003092824
0.0030631431
0.0030334155
0.0030037032
0.00297394
0.0029441897
0.002914384
0.0028845884
0.0028547323
0.0028248833
0.0027949682
0.0027650572
0.0027350742
0.0027050921
0.0026750318
0.0026449691
0.0026148215
0.0025846685
0.0025544237
0.0025241703
0.0024938179
0.002463454
0.0024329835
0.0024024992
0.0023719003
0.0023412854
0.0023105479
0.0022797926
0.0022489064
0.0022180011
0.0021869562
0.0021558916
0.0021246781
0.0020934452
0.0020620539
0.0020306442
0.0019990661
0.0019674717
0.0019356985
0.0019039121
0.0018719359
0.0018399511
0.0018077649
0.0017755761
0.0017431735
0.0017107762
0.0016781517
0.0016455425
0.0016126918
0.0015798686
0.0015467885
0.0015137507
0.0014804392
0.001447188
0.0014136449
0.0013801835
0.00134641
0.0013127438
0.0012787433
0.0012448805
0.0012106587
0.0011766104
0.0011421755
0.0011079565
0.0010733201
0.0010389494
0.0010041264
0.00096962799
0.00093463813
0.00090004183
0.00086490965
0.00083025249
0.00079500891
0.00076033647
0.00072502008
0.0006903885
0.00065504719
0.00062052562
0.00058521914
0.00055089305
0.00051569586
0.00048167147
0.00044667736
0.0004130877
0.00037841558
0.00034542917
0.00031123197
0.00027906518
0.00024554292
0.00021447842
0.00018189992
0.00015231487
0.00012105691
9.3455942e-05
6.4049044e-05
3.8826296e-05
1.1123306e-05
0.026954851
0.026813893
0.02626997
0.025339323
0.024070824
0.022552605
0.020896151
0.019205787
0.017548292
0.015944305
0.014384328
0.012852981
0.011348876
0.0098918409
0.0085194023
0.0072770868
0.006207913
0.0053437354
0.0046999986
0.0042736735
0.0040442611
0.0039773645
0.0040305625
0.0041600313
0.0043266446
0.0044998357
0.0046591388
0.0047933537
0.0048985128
0.0049752304
0.0050266046
0.0050566097
0.0050693557
0.0050685841
0.0050576186
0.0050392106
0.0050156588
0.0049887325
0.0049598409
0.0049299754
0.0048998901
0.0048700369
0.0048407409
0.0048121191
0.0047842476
0.0047570628
0.0047305204
0.0047044805
0.0046788596
0.0046535017
0.0046283272
0.0046031934
0.0045780442
0.0045527627
0.0045273233
0.0045016379
0.0044757103
0.0044494769
0.0044229656
0.0043961313
0.0043690196
0.0043415973
0.0043139217
0.004285966
0.0042577935
0.0042293797
0.0042007907
0.0041720009
0.0041430764
0.0041139884
0.0040848019
0.0040554843
0.0040260988
0.0039966085
0.003967075
0.0039374573
0.0039078155
0.0038781053
0.0038483857
0.0038186092
0.0037888346
0.0037590115
0.0037291987
0.0036993437
0.0036695055
0.0036396296
0.0036097754
0.0035798865
0.0035500232
0.0035201273
0.0034902596
0.0034603606
0.0034304918
0.0034005919
0.0033707236
0.0033408236
0.0033109555
0.0032810546
0.0032511855
0.0032212815
0.0031914084
0.0031614978
0.0031316166
0.0031016946
0.0030717999
0.0030418605
0.0030119461
0.0029819826
0.0029520411
0.0029220456
0.002892069
0.0028620329
0.0028320125
0.0028019268
0.0027718532
0.0027417082
0.0027115718
0.0026813576
0.0026511484
0.0026208546
0.0025905624
0.0025601786
0.0025297929
0.0024993082
0.0024688185
0.0024382222
0.002407618
0.0023768994
0.0023461704
0.0023153189
0.0022844551
0.0022534602
0.0022224515
0.002191303
0.0021601398
0.0021288278
0.0020975007
0.0020660155
0.002034516
0.0020028484
0.0019711683
0.0019393097
0.0019074415
0.0018753839
0.001843321
0.0018110571
0.0017787937
0.0017463171
0.0017138484
0.0016811534
0.0016484758
0.0016155579
0.0015826692
0.0015495249
0.0015164244
0.0014830518
0.0014497405
0.0014161391
0.0013826199
0.0013487908
0.0013150692
0.0012810157
0.0012470994
0.0012128272
0.0011787272
0.0011442444
0.0011099753
0.0010752933
0.0010408739
0.0010060078
0.00097146181
0.00093643107
0.00090178801
0.00086661728
0.0008319138
0.00079663405
0.00076191526
0.00072656517
0.00069188665
0.00065651427
0.00062194442
0.00058660973
0.000552233
0.0005170109
0.0004829321
0.00044791697
0.00041426714
0.00037957882
0.0003465234
0.00031231637
0.00028006677
0.00024654388
0.00021537414
0.00018280958
0.00015308032
0.0001218617
9.4040518e-05
6.470208e-05
3.9062424e-05
1.1366741e-05
0.025865017
0.025726673
0.025243737
0.024430639
0.023324122
0.021985758
0.020497544
0.01894418
0.017392359
0.015877135
0.014406209
0.012974381
0.011579729
0.010233838
0.0089630431
0.007802683
0.0067887438
0.005949864
0.0053019703
0.0048457446
0.0045669602
0.0044389816
0.0044272627
0.0044945297
0.0046060077
0.0047331279
0.0048555259
0.0049609283
0.0050438711
0.0051035413
0.0051418943
0.0051620165
0.0051673073
0.0051608945
0.0051455802
0.0051236787
0.0050971589
0.005067549
0.0050361082
0.0050037341
0.0049711412
0.0049387638
0.0049069356
0.0048757832
0.0048454047
0.0048157499
0.0047867954
0.00475841
0.0047305256
0.0047029894
0.0046757326
0.0046486112
0.004621576
0.0045945052
0.0045673766
0.004540094
0.0045126627
0.0044850093
0.0044571623
0.0044290657
0.0044007657
0.0043722183
0.0043434815
0.0043145181
0.0042853931
0.0042560716
0.0042266221
0.0041970095
0.0041673031
0.0041374652
0.0041075645
0.0040775597
0.0040475187
0.0040173962
0.0039872589
0.0039570577
0.0039268583
0.003896608
0.0038663722
0.0038360949
0.0038058415
0.0037755533
0.0037452957
0.0037150081
0.0036847562
0.0036544771
0.0036242375
0.0035939725
0.0035637496
0.0035335022
0.0035032988
0.0034730707
0.0034428877
0.0034126794
0.0033825165
0.0033523269
0.0033221825
0.0032920093
0.0032618804
0.0032317199
0.0032016023
0.0031714497
0.003141338
0.0031111874
0.0030810752
0.0030509197
0.0030207997
0.0029906315
0.0029604955
0.002930306
0.0029001452
0.0028699251
0.0028397299
0.0028094693
0.00277923
0.0027489187
0.0027186249
0.0026882524
0.0026578936
0.0026274491
0.0025970144
0.0025664869
0.0025359656
0.0025053439
0.0024747249
0.0024439978
0.0024132704
0.002382427
0.0023515804
0.0023206095
0.0022896334
0.0022585245
0.0022274084
0.0021961509
0.0021648851
0.0021334687
0.0021020436
0.0020704584
0.0020388651
0.0020071019
0.0019753319
0.0019433817
0.0019114274
0.0018792822
0.0018471368
0.0018147889
0.0017824463
0.0017498892
0.0017173446
0.0016845724
0.001651822
0.0016188301
0.0015858714
0.0015526563
0.0015194884
0.0014860479
0.0014526717
0.0014190052
0.0013854234
0.0013515322
0.00131775
0.001283637
0.0012496621
0.0012153329
0.001181176
0.0011466389
0.0011123143
0.0010775805
0.0010431067
0.0010081915
0.00097359189
0.00093851457
0.00090381836
0.00086860369
0.00083384701
0.00079852611
0.00076375347
0.00072836522
0.00069363144
0.00065822417
0.00062359662
0.00058823072
0.00055379252
0.00051854352
0.00048439763
0.00044936078
0.00041563555
0.00038093208
0.00034778888
0.00031357536
0.00028121926
0.00024770201
0.00021639642
0.00018385543
0.0001539421
0.00012277321
9.4681167e-05
6.5407209e-05
3.9313054e-05
1.1643393e-05
0.024861421
0.024731576
0.024301483
0.023584145
0.022609433
0.02142348
0.020087768
0.018669759
0.017229616
0.015808332
0.014425075
0.013084269
0.011786909
0.010540501
0.0093630621
0.0082808541
0.0073226982
0.0065133164
0.0058682263
0.0053908101
0.0050719738
0.004891678
0.0048222918
0.0048326015
0.0048922116
0.0049749545
0.005061104
0.0051377831
0.005198316
0.0052405737
0.0052653847
0.0052749603
0.0052720338
0.0052591907
0.005238779
0.0052127238
0.0051826835
0.0051499464
0.005115607
0.0050804532
0.005045141
0.0050100727
0.0049755775
0.0049417836
0.0049088029
0.0048765951
0.0048451525
0.004814352
0.0047841377
0.0047543606
0.00472496
0.0046957919
0.0046668119
0.0046378946
0.00460902
0.0045800854
0.004551096
0.0045219706
0.0044927364
0.004463329
0.004433793
0.0044040756
0.0043742337
0.0043442217
0.0043141042
0.0042838381
0.0042534923
0.0042230237
0.0041925031
0.0041618854
0.0041312415
0.0041005231
0.0040698006
0.0040390222
0.0040082579
0.0039774519
0.0039466739
0.0039158647
0.0038850936
0.0038542986
0.0038235493
0.0037927806
0.0037620629
0.0037313287
0.0037006491
0.0036699545
0.0036393169
0.0036086645
0.0035780707
0.0035474616
0.0035169119
0.0034863458
0.0034558391
0.0034253141
0.0033948482
0.0033643617
0.0033339331
0.0033034809
0.0032730852
0.0032426622
0.0032122936
0.0031818937
0.0031515457
0.0031211617
0.0030908267
0.0030604507
0.0030301203
0.0029997434
0.0029694086
0.0029390213
0.0029086724
0.0028782646
0.0028478913
0.0028174525
0.0027870442
0.0027565636
0.0027261093
0.0026955756
0.0026650644
0.0026344663
0.0026038867
0.0025732127
0.0025425534
0.0025117919
0.0024810415
0.0024501809
0.0024193282
0.002388357
0.0023573909
0.0023262979
0.0022952076
0.0022639817
0.0022327566
0.0022013869
0.0021700168
0.0021384929
0.0021069681
0.0020752797
0.0020435908
0.0020117285
0.0019798671
0.0019478217
0.0019157797
0.001883543
0.0018513135
0.0018188777
0.0017864543
0.0017538126
0.0017211904
0.0016883369
0.0016555117
0.0016224417
0.001589411
0.0015561207
0.0015228834
0.0014893706
0.0014559273
0.0014221913
0.0013885446
0.0013545865
0.0013207413
0.0012865642
0.001252528
0.0012181373
0.0011839206
0.0011493246
0.0011149413
0.0010801512
0.0010456196
0.0010106507
0.00097599374
0.00094086553
0.00090611184
0.0008708492
0.00083603437
0.00080066862
0.00076583641
0.00073040674
0.00069561102
0.0006601662
0.00062547306
0.00059007405
0.00055556492
0.00052028811
0.00048606362
0.00045100542
0.00041719063
0.00038247392
0.00034922535
0.00031500912
0.00028252443
0.00024901854
0.0002175495
0.00018503866
0.00015490776
0.00012379059
9.5390114e-05
6.6161778e-05
3.9600854e-05
1.1958181e-05
0.023937207
0.023821248
0.023438128
0.022800196
0.021933478
0.020875535
0.019674397
0.018384107
0.017056447
0.015732343
0.014437148
0.013182581
0.011973725
0.010816901
0.0097246271
0.0087158192
0.0078126451
0.007035583
0.0063989814
0.0059079669
0.0055575135
0.0053331093
0.0052131295
0.0051718916
0.0051832722
0.0052237517
0.0052746659
0.0053229649
0.0053610711
0.0053857009
0.0053966064
0.0053951375
0.0053833848
0.0053634435
0.0053372666
0.005306443
0.0052723499
0.0052360466
0.0051984568
0.0051602468
0.0051219964
0.0050840637
0.005046759
0.0050102053
0.0049745195
0.0049396688