/*--------------------------------*- C++ -*----------------------------------*\
| =========                 |                                                 |
| \\      /  F ield         | OpenFOAM: The Open Source CFD Toolbox           |
|  \\    /   O peration     | Version:  5.x                                   |
|   \\  /    A nd           | Web:      www.OpenFOAM.org                      |
|    \\/     M anipulation  |                                                 |
\*---------------------------------------------------------------------------*/
FoamFile
{
    version     2.0;
    format      ascii;
    class       surfaceScalarField;
    location    "0.6";
    object      phi;
}
// * * * * * * * * * * * * * * * * * * * * * * * * * * * * * * * * * * * * * //

dimensions      [0 3 -1 0 0 0 0];

internalField   nonuniform List<scalar> 
42870
(
7.8538047e-08
2.9351982e-09
-8.1473245e-08
7.4590377e-08
3.9476701e-09
7.042885e-08
4.1615263e-09
6.6319246e-08
4.1096047e-09
6.2251652e-08
4.0675935e-09
5.8182315e-08
4.0693373e-09
5.4103276e-08
4.0790387e-09
5.0034067e-08
4.0692086e-09
4.6014549e-08
4.0195183e-09
4.2093853e-08
3.920696e-09
3.8324864e-08
3.7689891e-09
3.4762713e-08
3.5621513e-09
3.1467975e-08
3.294738e-09
2.8497211e-08
2.970764e-09
2.589102e-08
2.6061909e-09
2.3677349e-08
2.2136704e-09
2.1858723e-08
1.8186269e-09
2.0410172e-08
1.4485502e-09
1.928504e-08
1.1251325e-09
1.8425821e-08
8.5921926e-10
1.7773559e-08
6.5226105e-10
1.7274356e-08
4.9920381e-10
1.688256e-08
3.9179613e-10
1.6561678e-08
3.2088128e-10
1.6285227e-08
2.7645105e-10
1.6034341e-08
2.5088664e-10
1.5795705e-08
2.3863588e-10
1.5560988e-08
2.3471713e-10
1.5325941e-08
2.3504688e-10
1.5089146e-08
2.36795e-10
1.4850913e-08
2.3823238e-10
1.4612436e-08
2.3847732e-10
1.4375261e-08
2.3717538e-10
1.4140929e-08
2.3433157e-10
1.3910814e-08
2.3011459e-10
1.3686013e-08
2.248016e-10
1.3467346e-08
2.1866726e-10
1.325535e-08
2.1199596e-10
1.3050338e-08
2.0501207e-10
1.2852414e-08
1.9792369e-10
1.2661545e-08
1.9086874e-10
1.2477572e-08
1.8397307e-10
1.2300272e-08
1.7730044e-10
1.2129356e-08
1.7091612e-10
1.1964521e-08
1.648344e-10
1.1805438e-08
1.5908294e-10
1.1651791e-08
1.5364697e-10
1.1503254e-08
1.4853719e-10
1.1359528e-08
1.437261e-10
1.1220313e-08
1.3921509e-10
1.1085343e-08
1.3496952e-10
1.0954355e-08
1.3098811e-10
1.0827121e-08
1.2723432e-10
1.0703413e-08
1.2370758e-10
1.0583042e-08
1.2037172e-10
1.0465813e-08
1.1722842e-10
1.035157e-08
1.1424296e-10
1.024015e-08
1.1141997e-10
1.0131424e-08
1.0872663e-10
1.0025253e-08
1.0617066e-10
9.9215317e-09
1.0372122e-10
9.8201428e-09
1.0138895e-10
9.720998e-09
9.914476e-11
9.6239961e-09
9.7001885e-11
9.5290635e-09
9.4932652e-11
9.436111e-09
9.2952476e-11
9.3450762e-09
9.1034745e-11
9.2558796e-09
8.9196604e-11
9.1684674e-09
8.7412211e-11
9.0827674e-09
8.5700029e-11
8.9987327e-09
8.4034712e-11
8.9162969e-09
8.2435727e-11
8.8354189e-09
8.087803e-11
8.7560371e-09
7.9381793e-11
8.6781149e-09
7.7922177e-11
8.6015951e-09
7.6519846e-11
8.526445e-09
7.515011e-11
8.452611e-09
7.383394e-11
8.3800642e-09
7.2546805e-11
8.3087544e-09
7.1309847e-11
8.2386557e-09
7.0098726e-11
8.169721e-09
6.8934616e-11
8.1019276e-09
6.7793465e-11
8.0352312e-09
6.6696389e-11
7.9696115e-09
6.5619683e-11
7.9050272e-09
6.4584277e-11
7.8414603e-09
6.3566932e-11
7.778872e-09
6.2588274e-11
7.7172464e-09
6.1625643e-11
7.6565471e-09
6.069924e-11
7.59676e-09
5.9787102e-11
7.5378512e-09
5.8908872e-11
7.4798078e-09
5.8043402e-11
7.4225981e-09
5.7209643e-11
7.3662107e-09
5.6387394e-11
7.310616e-09
5.5594757e-11
7.2558033e-09
5.4812621e-11
7.2017452e-09
5.4058082e-11
7.148432e-09
5.3313263e-11
7.0958379e-09
5.2594089e-11
7.0439538e-09
5.1884064e-11
6.9927561e-09
5.1197771e-11
6.9422358e-09
5.052026e-11
6.8923712e-09
4.9864593e-11
6.8431537e-09
4.9217524e-11
6.7945633e-09
4.8590417e-11
6.7465914e-09
4.7971909e-11
6.6992199e-09
4.7371473e-11
6.6524401e-09
4.6779814e-11
6.6062357e-09
4.6204324e-11
6.5605978e-09
4.5637948e-11
6.515512e-09
4.5085807e-11
6.4709687e-09
4.4543274e-11
6.4269557e-09
4.4013011e-11
6.3834627e-09
4.3493006e-11
6.3404794e-09
4.2983251e-11
6.2979949e-09
4.2484548e-11
6.2560008e-09
4.1994038e-11
6.2144853e-09
4.1515524e-11
6.1734422e-09
4.1043092e-11
6.1328585e-09
4.0583734e-11
6.0927302e-09
4.0128301e-11
6.053043e-09
3.9687154e-11
6.0137953e-09
3.9247716e-11
5.9749714e-09
3.8823898e-11
5.9365719e-09
3.839952e-11
5.8985797e-09
3.7992205e-11
5.8609977e-09
3.7582019e-11
5.8238072e-09
3.7190444e-11
5.7870136e-09
3.6793626e-11
5.7505965e-09
3.6417087e-11
5.7145636e-09
3.6032918e-11
5.6788928e-09
3.5670747e-11
5.6435943e-09
3.5298515e-11
5.6086442e-09
3.4950116e-11
5.574055e-09
3.458921e-11
5.539801e-09
3.4253967e-11
5.5058973e-09
3.3903786e-11
5.4723161e-09
3.3581172e-11
5.4390749e-09
3.3241198e-11
5.4061442e-09
3.2930656e-11
5.3735438e-09
3.2600389e-11
5.3412424e-09
3.2301424e-11
5.3092619e-09
3.1980459e-11
5.2775694e-09
3.169256e-11
5.2461889e-09
3.1380508e-11
5.2150857e-09
3.1103191e-11
5.1842859e-09
3.0799749e-11
5.1537534e-09
3.0532536e-11
5.123516e-09
3.0237436e-11
5.0935361e-09
2.9979817e-11
5.0638433e-09
2.9692875e-11
5.0343989e-09
2.9444379e-11
5.0052334e-09
2.9165459e-11
4.9763079e-09
2.8925532e-11
4.9476533e-09
2.8654605e-11
4.9192306e-09
2.842273e-11
4.8910707e-09
2.8159842e-11
4.8631353e-09
2.7935391e-11
4.8354546e-09
2.7680688e-11
4.8079916e-09
2.7463055e-11
4.7807748e-09
2.7216827e-11
4.7537695e-09
2.7005252e-11
4.7270016e-09
2.6767887e-11
4.70044e-09
2.6561623e-11
4.6741063e-09
2.6333719e-11
4.6479745e-09
2.6131812e-11
4.6220603e-09
2.5914127e-11
4.5963448e-09
2.5715572e-11
4.5708356e-09
2.5509137e-11
4.5455229e-09
2.5312687e-11
4.5204041e-09
2.5118808e-11
4.4954811e-09
2.4923055e-11
4.4707377e-09
2.4743413e-11
4.446191e-09
2.4546667e-11
4.4218076e-09
2.4383401e-11
4.3976239e-09
2.4183649e-11
4.3735845e-09
2.403945e-11
4.3497502e-09
2.3834282e-11
4.3260376e-09
2.3712595e-11
4.3025386e-09
2.3499052e-11
4.2791343e-09
2.3404276e-11
4.2559555e-09
2.317879e-11
4.2328389e-09
2.3116601e-11
4.2099642e-09
2.2874715e-11
4.1871117e-09
2.2852501e-11
4.164523e-09
2.2588681e-11
4.1419067e-09
2.2616251e-11
4.1195833e-09
2.2323487e-11
4.0971691e-09
2.2414157e-11
4.0750856e-09
2.2083473e-11
4.0528297e-09
2.2255918e-11
4.0309542e-09
2.1875519e-11
4.0087971e-09
2.2157055e-11
3.9870864e-09
2.1710748e-11
3.964943e-09
2.2143352e-11
3.9433383e-09
2.1604745e-11
3.9210864e-09
2.2251879e-11
3.89954e-09
2.1546366e-11
2.3499126e-11
8.5870671e-08
2.60134e-09
-8.5536813e-08
8.6009506e-08
3.8088344e-09
8.5657445e-08
4.5135874e-09
8.5023801e-08
4.7432489e-09
8.4250322e-08
4.8410731e-09
8.3355197e-08
4.9644617e-09
8.22983e-08
5.1359356e-09
8.1056705e-08
5.3108037e-09
7.9635673e-08
5.4405507e-09
7.8055973e-08
5.5003961e-09
7.6342937e-08
5.4820249e-09
7.4524001e-08
5.3810873e-09
7.2626565e-08
5.1921739e-09
7.0679743e-08
4.917586e-09
6.8718464e-08
4.5674698e-09
6.6776313e-08
4.1558218e-09
6.4885735e-08
3.7092046e-09
6.3073815e-08
3.2604698e-09
6.135829e-08
2.8406581e-09
5.9746324e-08
2.4711853e-09
5.823667e-08
2.1619148e-09
5.6823476e-08
1.9123983e-09
5.5498747e-08
1.7165246e-09
5.4251928e-08
1.5677004e-09
5.3076092e-08
1.4522871e-09
5.1964724e-08
1.362255e-09
5.091012e-08
1.2932401e-09
4.9905631e-08
1.2392062e-09
4.8945847e-08
1.1948301e-09
4.802654e-08
1.1561019e-09
4.7144464e-08
1.1203087e-09
4.6297083e-08
1.0858579e-09
4.5482397e-08
1.0518619e-09
4.4698762e-08
1.0179661e-09
4.3944801e-08
9.8407573e-10
4.3219279e-08
9.5032371e-10
4.252106e-08
9.1688604e-10
4.1849036e-08
8.8402087e-10
4.1202119e-08
8.5192887e-10
4.0579208e-08
8.20834e-10
3.9979211e-08
7.9086617e-10
3.9401017e-08
7.6216655e-10
3.8843539e-08
7.3477872e-10
3.8305688e-08
7.0876696e-10
3.7786416e-08
6.8410709e-10
3.7284693e-08
6.6080611e-10
3.6799547e-08
6.3879256e-10
3.6330036e-08
6.180485e-10
3.5875279e-08
5.9848236e-10
3.5434435e-08
5.8005948e-10
3.5006728e-08
5.6267689e-10
3.4591419e-08
5.4629668e-10
3.4187838e-08
5.3081502e-10
3.3795348e-08
5.1619791e-10
3.3413374e-08
5.0234593e-10
3.304137e-08
4.8923267e-10
3.2678847e-08
4.7676572e-10
3.2325339e-08
4.6492784e-10
3.1980431e-08
4.5363475e-10
3.1643723e-08
4.4287849e-10
3.1314861e-08
4.3258292e-10
3.0993502e-08
4.2274855e-10
3.067934e-08
4.1330659e-10
3.0372077e-08
4.0426488e-10
3.0071449e-08
3.9556096e-10
2.9777192e-08
3.8720851e-10
2.9489077e-08
3.7915028e-10
2.9206869e-08
3.7140433e-10
2.8930364e-08
3.6391778e-10
2.8659352e-08
3.5671169e-10
2.839365e-08
3.4973671e-10
2.813307e-08
3.4301583e-10
2.7877445e-08
3.3650269e-10
2.7626606e-08
3.302212e-10
2.73804e-08
3.2412773e-10
2.7138674e-08
3.1824629e-10
2.6901288e-08
3.1253591e-10
2.6668102e-08
3.0702e-10
2.6438988e-08
3.0166031e-10
2.6213819e-08
2.9647911e-10
2.5992477e-08
2.9144103e-10
2.5774845e-08
2.8656662e-10
2.5560815e-08
2.818238e-10
2.535028e-08
2.7723093e-10
2.514314e-08
2.7275948e-10
2.4939299e-08
2.6842511e-10
2.4738663e-08
2.6420333e-10
2.4541145e-08
2.601065e-10
2.4346656e-08
2.5611469e-10
2.4155119e-08
2.522364e-10
2.3966449e-08
2.4845674e-10
2.3780578e-08
2.4477977e-10
2.3597425e-08
2.411962e-10
2.341693e-08
2.3770497e-10
2.3239014e-08
2.3430299e-10
2.3063626e-08
2.3098342e-10
2.2890688e-08
2.2774999e-10
2.2720157e-08
2.2458934e-10
2.2551957e-08
2.2151272e-10
2.2386052e-08
2.1849945e-10
2.2222367e-08
2.1556904e-10
2.2060872e-08
2.1269266e-10
2.1901494e-08
2.0989887e-10
2.1744208e-08
2.0714983e-10
2.1588942e-08
2.0448397e-10
2.1435679e-08
2.0185353e-10
2.1284343e-08
1.9930771e-10
2.1134927e-08
1.9678786e-10
2.0987352e-08
1.9435491e-10
2.0841618e-08
1.919383e-10
2.0697644e-08
1.8961168e-10
2.0555438e-08
1.8729152e-10
2.0414916e-08
1.8506522e-10
2.0276094e-08
1.8283524e-10
2.0138883e-08
1.8070381e-10
2.0003308e-08
1.7855816e-10
1.9869276e-08
1.7651656e-10
1.973682e-08
1.7444984e-10
1.9605842e-08
1.7249351e-10
1.9476385e-08
1.7050068e-10
1.9348343e-08
1.6862542e-10
1.922177e-08
1.6670181e-10
1.9096553e-08
1.6490379e-10
1.8972756e-08
1.6304502e-10
1.8850259e-08
1.6132071e-10
1.8729136e-08
1.5952268e-10
1.8609259e-08
1.5786882e-10
1.8490713e-08
1.5612768e-10
1.8373363e-08
1.5454131e-10
1.8257303e-08
1.528534e-10
1.8142388e-08
1.5133184e-10
1.8028727e-08
1.4969382e-10
1.7916163e-08
1.4823458e-10
1.7804819e-08
1.4664322e-10
1.7694525e-08
1.4524409e-10
1.7585417e-08
1.4369639e-10
1.7477316e-08
1.4235525e-10
1.7370372e-08
1.4084834e-10
1.7264389e-08
1.3956335e-10
1.7159536e-08
1.3809456e-10
1.7055603e-08
1.3686395e-10
1.6952772e-08
1.3543068e-10
1.6850821e-08
1.3425292e-10
1.6749949e-08
1.3285282e-10
1.6649915e-08
1.3172646e-10
1.6550938e-08
1.3035723e-10
1.645276e-08
1.2928097e-10
1.6355619e-08
1.2794052e-10
1.6259239e-08
1.2691319e-10
1.6163877e-08
1.2559948e-10
1.6069237e-08
1.2461997e-10
1.5975598e-08
1.2333118e-10
1.5882644e-08
1.2239854e-10
1.5790677e-08
1.211329e-10
1.5699356e-08
1.2024617e-10
1.5609008e-08
1.1900217e-10
1.5519271e-08
1.1816054e-10
1.5430494e-08
1.1693677e-10
1.534229e-08
1.1613935e-10
1.5255036e-08
1.1493462e-10
1.5168318e-08
1.141807e-10
1.5082541e-08
1.1299406e-10
1.4997263e-08
1.1228272e-10
1.4912918e-08
1.1111343e-10
1.4829036e-08
1.1044396e-10
1.4746078e-08
1.0929164e-10
1.4663546e-08
1.0866304e-10
1.4581933e-08
1.0752765e-10
1.450071e-08
1.0693899e-10
1.4420398e-08
1.0582101e-10
1.4340439e-08
1.0527102e-10
1.4261387e-08
1.0417148e-10
1.4182651e-08
1.0365879e-10
1.4104815e-08
1.0257949e-10
1.4027259e-08
1.0210235e-10
1.3950596e-08
1.0104608e-10
1.3874178e-08
1.0060229e-10
1.3798644e-08
9.9573046e-11
1.3723319e-08
9.9159855e-11
1.3648868e-08
9.8163307e-11
1.357459e-08
9.7777112e-11
1.3501173e-08
9.6821192e-11
1.3427894e-08
9.6457461e-11
1.3355458e-08
9.5553125e-11
1.3283127e-08
9.5205846e-11
1.3211611e-08
9.4368264e-11
1.314017e-08
9.4029654e-11
1.3069506e-08
9.3280065e-11
1.299889e-08
9.293991e-11
1.2928995e-08
9.2308542e-11
1.2859125e-08
9.1953516e-11
1.2789897e-08
9.1484402e-11
1.2720675e-08
9.1097071e-11
1.2651976e-08
9.0856402e-11
1.2583272e-08
9.0414091e-11
1.2514911e-08
9.0504543e-11
1.2446546e-08
8.9970161e-11
1.237824e-08
9.0557542e-11
1.2310026e-08
8.9760733e-11
9.3654644e-11
8.9434386e-08
2.5350437e-09
-8.936809e-08
8.9792432e-08
3.4507887e-09
9.0035332e-08
4.2706879e-09
9.0110993e-08
4.6675874e-09
9.0120958e-08
4.8311078e-09
9.011772e-08
4.9677002e-09
9.0102166e-08
5.1514894e-09
9.0043565e-08
5.3694049e-09
8.9917606e-08
5.5665091e-09
8.9712971e-08
5.7050316e-09
8.9425588e-08
5.7694082e-09
8.9053466e-08
5.7532092e-09
8.8592448e-08
5.6531915e-09
8.8041423e-08
5.4686107e-09
8.7405403e-08
5.2034906e-09
8.6691976e-08
4.869248e-09
8.5914102e-08
4.4870785e-09
8.5088898e-08
4.085674e-09
8.4234255e-08
3.6953015e-09
8.3364943e-08
3.3404975e-09
8.2491155e-08
3.0357022e-09
8.1618629e-08
2.7849248e-09
8.0750051e-08
2.5851023e-09
7.9888102e-08
2.4296495e-09
7.9032487e-08
2.3079019e-09
7.8182877e-08
2.2118652e-09
7.7339501e-08
2.1366163e-09
7.6501828e-08
2.0768786e-09
7.566923e-08
2.0274281e-09
7.4841312e-08
1.9840199e-09
7.4018034e-08
1.943587e-09
7.3199654e-08
1.904238e-09
7.2386664e-08
1.8648519e-09
7.1579702e-08
1.8249283e-09
7.0779507e-08
1.7842707e-09
6.9986855e-08
1.7429759e-09
6.9202528e-08
1.7012125e-09
6.8427269e-08
1.6592801e-09
6.7661766e-08
1.6174315e-09
6.6906627e-08
1.5759732e-09
6.616238e-08
1.5351129e-09
6.5429461e-08
1.4950863e-09
6.4708222e-08
1.4560174e-09
6.3998929e-08
1.4180597e-09
6.3301774e-08
1.381262e-09
6.2616875e-08
1.3457055e-09
6.1944292e-08
1.3113754e-09
6.1284023e-08
1.2783174e-09
6.0636021e-08
1.2464849e-09
6.000019e-08
1.2158901e-09
5.9376404e-08
1.1864628e-09
5.8764501e-08
1.1581992e-09
5.8164299e-08
1.1310179e-09
5.7575589e-08
1.1049079e-09
5.699815e-08
1.0797844e-09
5.6431748e-08
1.0556348e-09
5.5876138e-08
1.0323754e-09
5.5331071e-08
1.0099954e-09
5.479629e-08
9.8841521e-10
5.4271542e-08
9.676271e-10
5.3756567e-08
9.475577e-10
5.3251113e-08
9.2820248e-10
5.2754925e-08
9.0949471e-10
5.2267757e-08
8.9143295e-10
5.178936e-08
8.7395714e-10
5.1319501e-08
8.5706797e-10
5.0857939e-08
8.4071195e-10
5.0404453e-08
8.2489063e-10
4.9958814e-08
8.0955718e-10
4.9520813e-08
7.9471264e-10
4.9090233e-08
7.8031667e-10
4.866688e-08
7.6636881e-10
4.8250547e-08
7.5283525e-10
4.7841056e-08
7.3971266e-10
4.7438209e-08
7.2697417e-10
4.7041843e-08
7.1461257e-10
4.6651771e-08
7.0260833e-10
4.6267841e-08
6.9094918e-10
4.5889878e-08
6.7962364e-10
4.5517744e-08
6.6861339e-10
4.5151269e-08
6.5791571e-10
4.4790331e-08
6.4750501e-10
4.4434766e-08
6.3738838e-10
4.4084465e-08
6.2753204e-10
4.3739271e-08
6.1795366e-10
4.3399086e-08
6.0861003e-10
4.3063759e-08
5.9953066e-10
4.2733204e-08
5.9066156e-10
4.2407273e-08
5.820453e-10
4.2085893e-08
5.7361579e-10
4.176892e-08
5.6542992e-10
4.1456292e-08
5.5740806e-10
4.1147865e-08
5.4962277e-10
4.0843591e-08
5.4197936e-10
4.0543326e-08
5.3456758e-10
4.0247034e-08
5.2727595e-10
3.9954571e-08
5.2021306e-10
3.9665911e-08
5.1324883e-10
3.9380912e-08
5.0651243e-10
3.9099558e-08
4.998533e-10
3.8821704e-08
4.93423e-10
3.8547348e-08
4.8704847e-10
3.8276341e-08
4.809057e-10
3.8008694e-08
4.7479694e-10
3.7744253e-08
4.689247e-10
3.7483043e-08
4.630643e-10
3.7224903e-08
4.5744711e-10
3.6969872e-08
4.5181898e-10
3.6717784e-08
4.4644265e-10
3.6468691e-08
4.4103196e-10
3.6222419e-08
4.3588348e-10
3.5979034e-08
4.3067636e-10
3.5738355e-08
4.2574381e-10
3.5500463e-08
4.2072737e-10
3.5265167e-08
4.1599982e-10
3.5032563e-08
4.1116199e-10
3.4802451e-08
4.066294e-10
3.4574942e-08
4.0195891e-10
3.4349823e-08
3.9761212e-10
3.4127225e-08
3.9309844e-10
3.3906922e-08
3.8892906e-10
3.3689061e-08
3.8456228e-10
3.3473402e-08
3.8056266e-10
3.3260114e-08
3.7633345e-10
3.3048938e-08
3.7249654e-10
3.2840064e-08
3.6839608e-10
3.2633218e-08
3.6471546e-10
3.242861e-08
3.6073537e-10
3.2225946e-08
3.5720519e-10
3.2025462e-08
3.5333753e-10
3.1826841e-08
3.4995254e-10
3.1630345e-08
3.4618983e-10
3.1435635e-08
3.4294524e-10
3.1242998e-08
3.3928028e-10
3.105207e-08
3.3617188e-10
3.0863168e-08
3.3259783e-10
3.0675902e-08
3.2962168e-10
3.0490618e-08
3.2613194e-10
3.0306897e-08
3.2328471e-10
3.0125119e-08
3.1987294e-10
2.9944831e-08
3.1715154e-10
2.976645e-08
3.1381161e-10
2.958949e-08
3.1121348e-10
2.9414403e-08
3.0793956e-10
2.9240667e-08
3.0546241e-10
2.9068775e-08
3.0224874e-10
2.8898166e-08
2.9989075e-10
2.8729374e-08
2.9673184e-10
2.8561796e-08
2.9449147e-10
2.8396014e-08
2.9138192e-10
2.8231376e-08
2.8925796e-10
2.8068514e-08
2.8619258e-10
2.7906728e-08
2.8418424e-10
2.7746704e-08
2.8115788e-10
2.7587685e-08
2.7926456e-10
2.7430415e-08
2.7627237e-10
2.7274082e-08
2.7449392e-10
2.7119487e-08
2.7153108e-10
2.6965759e-08
2.698675e-10
2.6813764e-08
2.6692944e-10
2.6662564e-08
2.6538121e-10
2.6513094e-08
2.6246351e-10
2.6364346e-08
2.6103115e-10
2.621733e-08
2.5812963e-10
2.6070959e-08
2.5681422e-10
2.5926326e-08
2.5392501e-10
2.5782262e-08
2.5272755e-10
2.5639942e-08
2.4984715e-10
2.5498112e-08
2.4876915e-10
2.5358038e-08
2.4589459e-10
2.5218372e-08
2.4493745e-10
2.5080477e-08
2.4206637e-10
2.4942904e-08
2.4123178e-10
2.4807121e-08
2.3836281e-10
2.4671571e-08
2.3765243e-10
2.4537831e-08
2.3478539e-10
2.4404233e-08
2.342008e-10
2.4272469e-08
2.3133716e-10
2.4140749e-08
2.3087971e-10
2.4010889e-08
2.2802325e-10
2.3880972e-08
2.2769379e-10
2.3752942e-08
2.2485166e-10
2.3624749e-08
2.2465044e-10
2.3498467e-08
2.2183438e-10
2.3371913e-08
2.2176037e-10
2.3247292e-08
2.1898878e-10
2.3122283e-08
2.1903937e-10
2.2999222e-08
2.1634056e-10
2.2875651e-08
2.1651074e-10
2.2754032e-08
2.1392823e-10
2.2631775e-08
2.142098e-10
2.2511449e-08
2.1181106e-10
2.2390355e-08
2.1219116e-10
2.2271127e-08
2.1008386e-10
2.2151e-08
2.1054161e-10
2.2032596e-08
2.0890773e-10
2.1913188e-08
2.0937885e-10
2.1795142e-08
2.0860353e-10
2.1676235e-08
2.0866752e-10
2.1335993e-10
9.3191003e-08
2.5359703e-09
-9.319193e-08
9.3412591e-08
3.2292007e-09
9.3695164e-08
3.9881149e-09
9.3898301e-08
4.464451e-09
9.4023735e-08
4.7056736e-09
9.4139692e-08
4.8517431e-09
9.428541e-08
5.0057714e-09
9.4456284e-08
5.1985313e-09
9.4632909e-08
5.389884e-09
9.479728e-08
5.5406602e-09
9.4938218e-08
5.6284704e-09
9.5048735e-08
5.642692e-09
9.5119496e-08
5.5824308e-09
9.5141103e-08
5.4470031e-09
9.5106234e-08
5.2383601e-09
9.5009571e-08
4.9659107e-09
9.4850542e-08
4.6461076e-09
9.4634152e-08
4.3020643e-09
9.4369863e-08
3.9595903e-09
9.4068552e-08
3.6418084e-09
9.3740022e-08
3.3642322e-09
9.3391396e-08
3.133551e-09
9.302768e-08
2.9488184e-09
9.2652865e-08
2.8044646e-09
9.2268128e-08
2.6926385e-09
9.1873968e-08
2.6060255e-09
9.14714e-08
2.539184e-09
9.1060815e-08
2.4874636e-09
9.0641957e-08
2.4462867e-09
9.0214295e-08
2.4116811e-09
8.9777352e-08
2.38053e-09
8.9330831e-08
2.3507597e-09
8.8874642e-08
2.3210399e-09
8.8408883e-08
2.2906875e-09
8.7933809e-08
2.2593454e-09
8.7449803e-08
2.226981e-09
8.6957357e-08
2.1936586e-09
8.6457035e-08
2.1596028e-09
8.594945e-08
2.1250159e-09
8.5435248e-08
2.0901753e-09
8.4915083e-08
2.0552784e-09
8.4389608e-08
2.0205611e-09
8.3859464e-08
1.9861615e-09
8.3325275e-08
1.9522482e-09
8.2787642e-08
1.9188953e-09
8.2247142e-08
1.8862052e-09
8.1704321e-08
1.8541967e-09
8.1159705e-08
1.8229339e-09
8.0613784e-08
1.7924056e-09
8.0067032e-08
1.7626417e-09
7.9519887e-08
1.7336083e-09
7.8972771e-08
1.7053151e-09
7.8426071e-08
1.6777178e-09
7.7880165e-08
1.6508145e-09
7.733539e-08
1.624559e-09
7.6792082e-08
1.598943e-09
7.6250534e-08
1.5739229e-09
7.5711042e-08
1.5494875e-09
7.5173858e-08
1.5255996e-09
7.4639239e-08
1.5022461e-09
7.4107398e-08
1.4793984e-09
7.3578559e-08
1.4570414e-09
7.3052898e-08
1.4351562e-09
7.2530606e-08
1.413725e-09
7.2011824e-08
1.3927392e-09
7.1496715e-08
1.3721769e-09
7.0985387e-08
1.3520399e-09
7.0477977e-08
1.3323005e-09
6.9974563e-08
1.3129715e-09
6.9475258e-08
1.2940174e-09
6.8980112e-08
1.2754624e-09
6.8489219e-08
1.2572617e-09
6.8002603e-08
1.2394513e-09
6.7520341e-08
1.221975e-09
6.7042433e-08
1.2048819e-09
6.6568943e-08
1.1881029e-09
6.609985e-08
1.1717011e-09
6.5635207e-08
1.1555926e-09
6.5174974e-08
1.1398563e-09
6.4719196e-08
1.1243918e-09
6.4267816e-08
1.109295e-09
6.3820874e-08
1.0944472e-09
6.3378299e-08
1.0799639e-09
6.2940125e-08
1.0657059e-09
6.2506268e-08
1.05181e-09
6.2076764e-08
1.0381146e-09
6.1651514e-08
1.0247802e-09
6.1230555e-08
1.0116207e-09
6.0813778e-08
9.9882248e-10
6.0401221e-08
9.861725e-10
5.9992765e-08
9.7388582e-10
5.9588454e-08
9.6171983e-10
5.9188155e-08
9.4992092e-10
5.8791921e-08
9.3821418e-10
5.8399608e-08
9.2688037e-10
5.8011275e-08
9.1560916e-10
5.7626769e-08
9.0471883e-10
5.7246157e-08
8.9386042e-10
5.6869277e-08
8.8339314e-10
5.6496204e-08
8.7292587e-10
5.6126765e-08
8.6286234e-10
5.5761048e-08
8.5276551e-10
5.5398866e-08
8.4308757e-10
5.5040321e-08
8.3334152e-10
5.4685214e-08
8.2403207e-10
5.433366e-08
8.14618e-10
5.3985446e-08
8.0566106e-10
5.3640704e-08
7.965611e-10
5.3299205e-08
7.8794172e-10
5.2961098e-08
7.7913895e-10
5.2626138e-08
7.7084313e-10
5.2294493e-08
7.6232128e-10
5.1965901e-08
7.5433596e-10
5.1640549e-08
7.4607958e-10
5.1318156e-08
7.3839264e-10
5.0998931e-08
7.3038687e-10
5.0682574e-08
7.22987e-10
5.0369315e-08
7.1521773e-10
5.0058832e-08
7.0809452e-10
4.9751383e-08
7.0054824e-10
4.944662e-08
6.9369208e-10
4.9144826e-08
6.8635582e-10
4.8845631e-08
6.797579e-10
4.8549345e-08
6.7261921e-10
4.825557e-08
6.6627138e-10
4.7964648e-08
6.5931822e-10
4.767615e-08
6.5321307e-10
4.7390452e-08
6.4643382e-10
4.7107093e-08
6.4056459e-10
4.6826482e-08
6.33948e-10
4.6548126e-08
6.2830874e-10
4.6272472e-08
6.2184399e-10
4.5998988e-08
6.1642927e-10
4.5728162e-08
6.101058e-10
4.5459423e-08
6.0491101e-10
4.5193302e-08
5.9871851e-10
4.4929185e-08
5.9373941e-10
4.4667649e-08
5.8766778e-10
4.4408033e-08
5.8290099e-10
4.4150965e-08
5.7694034e-10
4.3895734e-08
5.7238283e-10
4.3643022e-08
5.6652335e-10
4.3392063e-08
5.6217295e-10
4.3143597e-08
5.5640512e-10
4.2896799e-08
5.5226003e-10
4.2652474e-08
5.4657427e-10
4.2409731e-08
5.4263353e-10
4.2169443e-08
5.3702045e-10
4.193065e-08
5.3328354e-10
4.1694299e-08
5.2773368e-10
4.1459356e-08
5.2420074e-10
4.1226844e-08
5.1870479e-10
4.0995651e-08
5.1537667e-10
4.0766884e-08
5.0992512e-10
4.0539345e-08
5.0680318e-10
4.0314231e-08
5.0138679e-10
4.0090252e-08
4.9847319e-10
3.98687e-08
4.9308242e-10
3.9648188e-08
4.9037982e-10
3.9430112e-08
4.8500537e-10
3.9212976e-08
4.8251736e-10
3.899829e-08
4.7714972e-10
3.8784441e-08
4.7488026e-10
3.857306e-08
4.695101e-10
3.836241e-08
4.674643e-10
3.8154253e-08
4.6208229e-10
3.7946715e-08
4.6026557e-10
3.7741699e-08
4.548626e-10
3.7537187e-08
4.5328153e-10
3.7335233e-08
4.4784882e-10
3.713366e-08
4.4651033e-10
3.6934687e-08
4.4103959e-10
3.6735967e-08
4.3995157e-10
3.6539894e-08
4.3443543e-10
3.634394e-08
4.3360639e-10
3.6150687e-08
4.2803871e-10
3.595741e-08
4.2747772e-10
3.5766893e-08
4.2185425e-10
3.5576202e-08
4.2157085e-10
3.5388335e-08
4.1589012e-10
3.5200135e-08
4.1589397e-10
3.5014827e-08
4.1015891e-10
3.4829018e-08
4.1045977e-10
3.4646173e-08
4.0467951e-10
3.4462647e-08
4.0528622e-10
3.4282157e-08
3.9947943e-10
3.4100797e-08
4.0039939e-10
3.3922538e-08
3.9459938e-10
3.3743211e-08
3.9583713e-10
3.3567039e-08
3.9010066e-10
3.3389593e-08
3.9165573e-10
3.3215326e-08
3.8607828e-10
3.3039577e-08
3.879398e-10
3.2866974e-08
3.8268667e-10
3.2692699e-08
3.8481725e-10
3.2521407e-08
3.8019898e-10
3.2348346e-08
3.8244072e-10
3.217774e-08
3.7920914e-10
3.2005586e-08
3.8082097e-10
3.8495635e-10
9.710753e-08
2.54149e-09
-9.711305e-08
9.7235539e-08
3.1011917e-09
9.7479429e-08
3.7442253e-09
9.7710422e-08
4.2334579e-09
9.7877806e-08
4.5382902e-09
9.8012093e-08
4.7174557e-09
9.816267e-08
4.8551939e-09
9.8348219e-08
5.012983e-09
9.8558366e-08
5.1797364e-09
9.8777793e-08
5.3212333e-09
9.8994095e-08
5.4121687e-09
9.9198667e-08
5.4381197e-09
9.9384953e-08
5.3961455e-09
9.954575e-08
5.2862052e-09
9.9673154e-08
5.1109566e-09
9.9760352e-08
4.8787127e-09
9.9803462e-08
4.6029976e-09
9.9802802e-08
4.3027241e-09
9.9763094e-08
3.9992989e-09
9.9691917e-08
3.7129846e-09
9.9597324e-08
3.4588256e-09
9.9486092e-08
3.2447827e-09
9.9363329e-08
3.0715818e-09
9.923257e-08
2.9352239e-09
9.9095495e-08
2.8297133e-09
9.8952894e-08
2.7486264e-09
9.8805612e-08
2.6864658e-09
9.8654163e-08
2.6389122e-09
9.8498401e-08
2.602049e-09
9.8337677e-08
2.5724052e-09
9.8171138e-08
2.5470687e-09
9.7997957e-08
2.5239409e-09
9.7817415e-08
2.5015827e-09
9.7628934e-08
2.4791682e-09
9.7432064e-08
2.4562156e-09
9.7226484e-08
2.4325603e-09
9.7011979e-08
2.4081643e-09
9.6788438e-08
2.3831438e-09
9.6555823e-08
2.3576306e-09
9.6314177e-08
2.3318217e-09
9.6063579e-08
2.3058764e-09
9.5804165e-08
2.2799742e-09
9.5536087e-08
2.2542402e-09
9.5259533e-08
2.2288013e-09
9.4974695e-08
2.203734e-09
9.4681792e-08
2.1791083e-09
9.4381029e-08
2.1549589e-09
9.4072648e-08
2.1313153e-09
9.3756865e-08
2.1081885e-09
9.3433932e-08
2.085575e-09
9.3104071e-08
2.0634693e-09
9.2767541e-08
2.0418443e-09
9.242457e-08
2.0206895e-09
9.2075422e-08
1.9999623e-09
9.1720325e-08
1.9796555e-09
9.1359553e-08
1.9597158e-09
9.0993331e-08
1.9401445e-09
9.0621938e-08
1.9208805e-09
9.0245599e-08
1.9019381e-09
8.9864597e-08
1.8832485e-09
8.9479153e-08
1.8648424e-09
8.9089551e-08
1.846643e-09
8.8696009e-08
1.8286985e-09
8.8298811e-08
1.8109234e-09
8.7898165e-08
1.7933844e-09
8.7494357e-08
1.7759853e-09
8.7087584e-08
1.7588124e-09
8.6678129e-08
1.7417559e-09
8.6266177e-08
1.7249232e-09
8.5852007e-08
1.7081881e-09
8.5435789e-08
1.6916798e-09
8.5017797e-08
1.6752535e-09
8.4598187e-08
1.6590617e-09
8.4177225e-08
1.6429374e-09
8.3755048e-08
1.6270583e-09
8.3331918e-08
1.611233e-09
8.2907953e-08
1.5956661e-09
8.2483407e-08
1.5801385e-09
8.2058379e-08
1.5648843e-09
8.1633117e-08
1.5496541e-09
8.1207698e-08
1.5347139e-09
8.0782365e-08
1.5197804e-09
8.0357174e-08
1.5051551e-09
7.9932362e-08
1.4905178e-09
7.9507964e-08
1.4762082e-09
7.9084213e-08
1.4618657e-09
7.8661121e-08
1.4478721e-09
7.8238919e-08
1.4338226e-09
7.7817596e-08
1.4201449e-09
7.7397383e-08
1.406386e-09
7.6978245e-08
1.3930235e-09
7.6560413e-08
1.3795523e-09
7.614383e-08
1.3665041e-09
7.5728727e-08
1.353317e-09
7.5315025e-08
1.340582e-09
7.4902959e-08
1.327675e-09
7.4492427e-08
1.3152515e-09
7.4083667e-08
1.3026201e-09
7.3676554e-08
1.2905062e-09
7.3271334e-08
1.2781456e-09
7.2867857e-08
1.2663392e-09
7.2466379e-08
1.2542438e-09
7.2066724e-08
1.2427425e-09
7.1669159e-08
1.2309064e-09
7.1273484e-08
1.2197075e-09
7.0879978e-08
1.2081243e-09
7.0488414e-08
1.197225e-09
7.0099087e-08
1.1858878e-09
6.9711743e-08
1.1752852e-09
6.9326695e-08
1.164187e-09
6.8943661e-08
1.1538778e-09
6.8562971e-08
1.1430109e-09
6.8184315e-08
1.1329921e-09
6.7808046e-08
1.1223487e-09
6.7433821e-08
1.1126171e-09
6.7062019e-08
1.1021888e-09
6.6692265e-08
1.0927413e-09
6.6324963e-08
1.0825196e-09
6.5959705e-08
1.0733532e-09
6.5596923e-08
1.0633295e-09
6.5236174e-08
1.0544414e-09
6.4877923e-08
1.0446066e-09
6.4521687e-08
1.0359943e-09
6.4167967e-08
1.0263394e-09
6.3816237e-08
1.0180005e-09
6.346704e-08
1.0085161e-09
6.3119804e-08
1.0004484e-09
6.2775113e-08
9.9112492e-10
6.2432351e-08
9.8332674e-10
6.2092145e-08
9.7415442e-10
6.1753829e-08
9.666245e-10
6.1418079e-08
9.5759352e-10
6.1084178e-08
9.5033087e-10
6.0752852e-08
9.4143116e-10
6.0423328e-08
9.3443549e-10
6.009639e-08
9.2565679e-10
5.9771201e-08
9.1892794e-10
5.9448609e-08
9.1025979e-10
5.9127712e-08
9.0379846e-10
5.8809422e-08
8.9523011e-10
5.8492767e-08
8.8903725e-10
5.8178733e-08
8.8055771e-10
5.7866271e-08
8.7463517e-10
5.7556443e-08
8.6623331e-10
5.7248119e-08
8.6058331e-10
5.6942446e-08
8.5224756e-10
5.6638206e-08
8.4687331e-10
5.6336635e-08
8.3859194e-10
5.6036421e-08
8.3349716e-10
5.5738897e-08
8.2525791e-10
5.544265e-08
8.2044719e-10
5.5149118e-08
8.1223768e-10
5.4856778e-08
8.077165e-10
5.4567179e-08
7.9952363e-10
5.4278684e-08
7.9529825e-10
5.3992962e-08
7.8710893e-10
5.3708249e-08
7.8318673e-10
5.3426344e-08
7.7498706e-10
5.3145347e-08
7.7137621e-10
5.2867201e-08
7.6315223e-10
5.2589856e-08
7.5986231e-10
5.2315406e-08
7.515993e-10
5.2041646e-08
7.4864062e-10
5.1770832e-08
7.4032374e-10
5.1500588e-08
7.3770835e-10
5.1233348e-08
7.2932225e-10
5.0966551e-08
7.2706295e-10
5.0702821e-08
7.1859219e-10
5.0439399e-08
7.1670362e-10
5.0179115e-08
7.0813265e-10
4.9918995e-08
7.0663038e-10
4.9662091e-08
6.9794383e-10
4.9405197e-08
6.9684514e-10
4.9151604e-08
6.8802836e-10
4.8897859e-08
6.8735183e-10
4.8647506e-08
6.7839132e-10
4.8396827e-08
6.781568e-10
4.814964e-08
6.6904114e-10
4.7901942e-08
6.6926963e-10
4.7657841e-08
6.5999068e-10
4.7413031e-08
6.6070388e-10
4.7171931e-08
6.5125917e-10
4.6929911e-08
6.5247926e-10
4.6691716e-08
6.4287458e-10
4.645238e-08
6.4462275e-10
4.6216982e-08
6.3487721e-10
4.5980209e-08
6.3717233e-10
4.5747482e-08
6.2732616e-10
4.5513138e-08
6.3018181e-10
4.5282928e-08
6.2031014e-10
4.5050855e-08
6.2372925e-10
4.4822966e-08
6.1396691e-10
4.4592977e-08
6.1792871e-10
4.4367142e-08
6.0852186e-10
4.4139013e-08
6.1294599e-10
4.3914834e-08
6.0437823e-10
4.3688302e-08
6.0897279e-10
4.3465094e-08
6.0241677e-10
4.3239689e-08
6.062259e-10
6.0836626e-10
1.0116318e-07
2.54231e-09
-1.01164e-07
1.0124875e-07
3.0156263e-09
1.0144388e-07
3.5490938e-09
1.0166359e-07
4.013744e-09
1.0185311e-07
4.3487739e-09
1.0200685e-07
4.5637145e-09
1.0215656e-07
4.7054859e-09
1.0232996e-07
4.8395796e-09
1.0253031e-07
4.9793878e-09
1.0274648e-07
5.1050649e-09
1.0296557e-07
5.1930778e-09
1.0317731e-07
5.2263758e-09
1.0337565e-07
5.1978102e-09
1.0355513e-07
5.1067194e-09
1.0370953e-07
4.956557e-09
1.0383335e-07
4.754891e-09
1.0392278e-07
4.513567e-09
1.0397715e-07
4.2483566e-09
1.0399939e-07
3.9770616e-09
1.0399535e-07
3.7170246e-09
1.0397203e-07
3.4821401e-09
1.0393599e-07
3.280831e-09
1.0389222e-07
3.1153521e-09
1.0384407e-07
2.9833712e-09
1.0379359e-07
2.8801903e-09
1.0374195e-07
2.8002657e-09
1.0369e-07
2.7384209e-09
1.0363836e-07
2.6905458e-09
1.0358719e-07
2.6532202e-09
1.0353613e-07
2.6234637e-09
1.034845e-07
2.5987046e-09
1.0343151e-07
2.5769291e-09
1.033764e-07
2.5566948e-09
1.0331849e-07
2.5370736e-09
1.0325719e-07
2.5175214e-09
1.0319199e-07
2.4977597e-09
1.0312245e-07
2.4776988e-09
1.0304825e-07
2.4573492e-09
1.0296907e-07
2.4368104e-09
1.028847e-07
2.4161885e-09
1.0279494e-07
2.3956342e-09
1.0269967e-07
2.3752509e-09
1.0259873e-07
2.3551765e-09
1.0249206e-07
2.3354714e-09
1.0237955e-07
2.3162409e-09
1.0226117e-07
2.2974936e-09
1.0213682e-07
2.2793061e-09
1.0200649e-07
2.261643e-09