/*--------------------------------*- C++ -*----------------------------------*\
| =========                 |                                                 |
| \\      /  F ield         | OpenFOAM: The Open Source CFD Toolbox           |
|  \\    /   O peration     | Version:  5.x                                   |
|   \\  /    A nd           | Web:      www.OpenFOAM.org                      |
|    \\/     M anipulation  |                                                 |
\*---------------------------------------------------------------------------*/
FoamFile
{
    version     2.0;
    format      ascii;
    class       volVectorField;
    location    "0.6";
    object      U;
}
// * * * * * * * * * * * * * * * * * * * * * * * * * * * * * * * * * * * * * //

dimensions      [0 1 -1 0 0 0 0];

internalField   nonuniform List<vector> 
21600
(
(0.94293518 0.0081608653 0)
(0.89633439 0.012247567 0)
(0.8518673 0.013937863 0)
(0.80675307 0.014109321 0)
(0.76014345 0.013756737 0)
(0.71222434 0.013399934 0)
(0.6636099 0.013130252 0)
(0.61493718 0.012849586 0)
(0.56674947 0.012440474 0)
(0.51955921 0.011837258 0)
(0.47389234 0.011016677 0)
(0.43036145 0.0099832885 0)
(0.38962795 0.0087431991 0)
(0.35248239 0.0073247144 0)
(0.31951842 0.0057449386 0)
(0.29118953 0.0040866594 0)
(0.2676487 0.0025016015 0)
(0.24868694 0.0011529914 0)
(0.2337888 0.00014768787 0)
(0.2222851 -0.00049807853 0)
(0.21349128 -0.00084265759 0)
(0.20676141 -0.00097224755 0)
(0.20154012 -0.00096261772 0)
(0.19735131 -0.00086238384 0)
(0.19383636 -0.00071193985 0)
(0.19073393 -0.00054480581 0)
(0.18785318 -0.00038251209 0)
(0.18506486 -0.00023860838 0)
(0.18229711 -0.00011991126 0)
(0.17951526 -2.7475927e-05 0)
(0.17671432 4.1119637e-05 0)
(0.17390164 8.9793039e-05 0)
(0.17109541 0.00012261768 0)
(0.16831238 0.0001433696 0)
(0.16557185 0.00015521217 0)
(0.16288656 0.00016075048 0)
(0.16026992 0.00016195469 0)
(0.15772789 0.00016034266 0)
(0.15526765 0.00015695719 0)
(0.15288941 0.00015256807 0)
(0.1505959 0.00014763882 0)
(0.14838354 0.00014251335 0)
(0.14625257 0.00013735372 0)
(0.14419734 0.00013230258 0)
(0.14221707 0.00012739151 0)
(0.14030517 0.00012267839 0)
(0.13846077 0.00011814022 0)
(0.13667703 0.00011381559 0)
(0.13495341 0.00010967387 0)
(0.1332831 0.00010574605 0)
(0.13166616 0.00010199473 0)
(0.13009594 9.8448064e-05 0)
(0.12857318 9.5064786e-05 0)
(0.12709143 9.1870876e-05 0)
(0.12565214 8.8822043e-05 0)
(0.12424899 8.5943459e-05 0)
(0.12288412 8.3189427e-05 0)
(0.12155128 8.0585699e-05 0)
(0.12025326 7.8086449e-05 0)
(0.11898383 7.5718992e-05 0)
(0.11774638 7.3438196e-05 0)
(0.11653458 7.1273344e-05 0)
(0.11535242 6.9180201e-05 0)
(0.1141934 6.7189961e-05 0)
(0.11306205 6.5259298e-05 0)
(0.11195167 6.3421183e-05 0)
(0.11086731 6.1633091e-05 0)
(0.10980198 5.9929456e-05 0)
(0.10876126 5.8268315e-05 0)
(0.10773781 5.6685231e-05 0)
(0.10673777 5.5138615e-05 0)
(0.10575339 5.3664878e-05 0)
(0.10479136 5.2222671e-05 0)
(0.1038435 5.0849008e-05 0)
(0.10291707 4.9502669e-05 0)
(0.1020034 4.8221064e-05 0)
(0.10111035 4.6963079e-05 0)
(0.10022874 4.5766398e-05 0)
(0.099367062 4.4590007e-05 0)
(0.098515545 4.3471717e-05 0)
(0.097683375 4.237061e-05 0)
(0.096860148 4.1324583e-05 0)
(0.096055777 4.0292963e-05 0)
(0.095259178 3.9313647e-05 0)
(0.094481035 3.8346165e-05 0)
(0.093709529 3.7428325e-05 0)
(0.09295617 3.6519964e-05 0)
(0.092208344 3.5658764e-05 0)
(0.091478442 3.4804923e-05 0)
(0.09075299 3.399592e-05 0)
(0.090045325 3.3192379e-05 0)
(0.089341043 3.2431525e-05 0)
(0.08865449 3.1674459e-05 0)
(0.087970261 3.0958081e-05 0)
(0.087303786 3.0244017e-05 0)
(0.086638574 2.9568786e-05 0)
(0.08599122 2.8894583e-05 0)
(0.085344064 2.8257486e-05 0)
(0.084714948 2.76203e-05 0)
(0.08408495 2.7018607e-05 0)
(0.083473253 2.6415857e-05 0)
(0.082859574 2.5847091e-05 0)
(0.082264537 2.527643e-05 0)
(0.081666391 2.4738328e-05 0)
(0.081087311 2.419761e-05 0)
(0.08050396 2.3688106e-05 0)
(0.079940182 2.3175365e-05 0)
(0.07937093 2.2692572e-05 0)
(0.078821847 2.2206008e-05 0)
(0.078266038 2.1748198e-05 0)
(0.077731083 2.1286158e-05 0)
(0.077188095 2.0851739e-05 0)
(0.076666743 2.0412691e-05 0)
(0.076135988 2.0000207e-05 0)
(0.075627749 1.9582739e-05 0)
(0.075108666 1.9190832e-05 0)
(0.074613086 1.8793619e-05 0)
(0.074105141 1.8421043e-05 0)
(0.073621797 1.804287e-05 0)
(0.073124481 1.768848e-05 0)
(0.07265298 1.7328208e-05 0)
(0.072165803 1.6990955e-05 0)
(0.071705785 1.6647534e-05 0)
(0.071228276 1.6326445e-05 0)
(0.070779403 1.5998887e-05 0)
(0.070311111 1.5693065e-05 0)
(0.069873075 1.5380435e-05 0)
(0.069413559 1.5089055e-05 0)
(0.068986076 1.4790477e-05 0)
(0.068534911 1.4512763e-05 0)
(0.068117722 1.422742e-05 0)
(0.067674494 1.39627e-05 0)
(0.067267363 1.3689804e-05 0)
(0.066831667 1.3437422e-05 0)
(0.066434381 1.317626e-05 0)
(0.066005818 1.2935654e-05 0)
(0.065618188 1.2685496e-05 0)
(0.065196367 1.2456126e-05 0)
(0.064818223 1.2216322e-05 0)
(0.064402755 1.1997726e-05 0)
(0.064033953 1.1767602e-05 0)
(0.063624453 1.1559342e-05 0)
(0.063264868 1.1338281e-05 0)
(0.062860951 1.1140002e-05 0)
(0.062510484 1.0927378e-05 0)
(0.062111762 1.0738746e-05 0)
(0.061770333 1.0533959e-05 0)
(0.061376418 1.0354713e-05 0)
(0.061043973 1.0157172e-05 0)
(0.060654469 9.9870827e-06 0)
(0.060330975 9.796177e-06 0)
(0.05994548 9.6350843e-06 0)
(0.059630932 9.45024e-06 0)
(0.059249034 9.2980182e-06 0)
(0.05894345 9.1186024e-06 0)
(0.058564725 8.975208e-06 0)
(0.058268152 8.8006237e-06 0)
(0.057892161 8.6660614e-06 0)
(0.057604673 8.495637e-06 0)
(0.05723096 8.36998e-06 0)
(0.056952661 8.2030703e-06 0)
(0.056580749 8.0864831e-06 0)
(0.056311776 7.922343e-06 0)
(0.055941165 7.8150442e-06 0)
(0.055681687 7.652951e-06 0)
(0.055311847 7.5552828e-06 0)
(0.055062072 7.3943874e-06 0)
(0.054692442 7.3067725e-06 0)
(0.054452617 7.1462087e-06 0)
(0.054082597 7.0692186e-06 0)
(0.053853012 6.907982e-06 0)
(0.05348196 6.8423198e-06 0)
(0.053262949 6.679327e-06 0)
(0.052890173 6.6258766e-06 0)
(0.052682125 6.4598944e-06 0)
(0.052306875 6.4197522e-06 0)
(0.052110229 6.2493826e-06 0)
(0.051731688 6.2238859e-06 0)
(0.051546948 6.0475356e-06 0)
(0.051164222 6.0383506e-06 0)
(0.050991952 5.8541472e-06 0)
(0.050604059 5.8633355e-06 0)
(0.050444896 5.6691107e-06 0)
(0.050050746 5.6992566e-06 0)
(0.049905402 5.4924053e-06 0)
(0.049503778 5.5467717e-06 0)
(0.049373046 5.3241644e-06 0)
(0.048962581 5.4069597e-06 0)
(0.048847338 5.1647317e-06 0)
(0.048426472 5.2815163e-06 0)
(0.048327684 5.0147971e-06 0)
(0.04789461 5.173207e-06 0)
(0.047813332 4.8755949e-06 0)
(0.047365897 5.086663e-06 0)
(0.047303289 4.7490588e-06 0)
(0.046838791 5.0301423e-06 0)
(0.046796237 4.6356491e-06 0)
(0.046310882 5.0165643e-06 0)
(0.046291148 4.5320763e-06 0)
(0.045775442 5.411295e-06 0)
(0.9730438 0.0155049 0)
(0.97185561 0.022703438 0)
(0.97044893 0.026284475 0)
(0.96744791 0.02730509 0)
(0.96184538 0.027316705 0)
(0.95335227 0.027255799 0)
(0.94215093 0.02736326 0)
(0.92858704 0.027518548 0)
(0.9129603 0.027533665 0)
(0.89554859 0.027288087 0)
(0.87657549 0.026719562 0)
(0.85630923 0.025803658 0)
(0.83502414 0.024519754 0)
(0.81311106 0.022864133 0)
(0.79092341 0.020845085 0)
(0.76885594 0.018526715 0)
(0.74727838 0.016040733 0)
(0.72646411 0.013556 0)
(0.70659796 0.011236275 0)
(0.68776482 0.0091964637 0)
(0.67001366 0.007488876 0)
(0.65332731 0.006109879 0)
(0.63768211 0.0050278527 0)
(0.62299485 0.0041976443 0)
(0.60918367 0.0035774739 0)
(0.59616754 0.0031312537 0)
(0.58385992 0.0028208985 0)
(0.57217019 0.0026082077 0)
(0.56102957 0.0024593284 0)
(0.55037467 0.0023483763 0)
(0.54016506 0.0022575888 0)
(0.53036067 0.002176103 0)
(0.52094015 0.0020977118 0)
(0.51187678 0.0020194953 0)
(0.50315937 0.0019403264 0)
(0.49476712 0.0018603545 0)
(0.48669325 0.0017801567 0)
(0.4789186 0.0017007007 0)
(0.47143789 0.0016228085 0)
(0.46423169 0.0015473558 0)
(0.45729519 0.0014748818 0)
(0.4506082 0.0014059074 0)
(0.44416644 0.0013406061 0)
(0.43794916 0.0012791745 0)
(0.43195303 0.0012215145 0)
(0.42615719 0.0011676174 0)
(0.42055971 0.0011172265 0)
(0.41513996 0.0010702326 0)
(0.40989773 0.0010263157 0)
(0.40481274 0.00098533422 0)
(0.39988671 0.00094695727 0)
(0.39509974 0.00091105617 0)
(0.39045557 0.00087732136 0)
(0.38593464 0.00084565503 0)
(0.38154264 0.00081577768 0)
(0.3772602 0.00078762543 0)
(0.37309495 0.00076094963 0)
(0.3690275 0.00073571875 0)
(0.36506732 0.00071171246 0)
(0.36119481 0.00068892734 0)
(0.35742121 0.00066716709 0)
(0.35372651 0.0006464516 0)
(0.35012366 0.00062660448 0)
(0.34659203 0.00060766414 0)
(0.34314624 0.00058946985 0)
(0.33976487 0.00057207383 0)
(0.3364642 0.0005553274 0)
(0.33322184 0.00053929281 0)
(0.33005576 0.00052383072 0)
(0.32694245 0.00050901027 0)
(0.32390157 0.00049469934 0)
(0.32090838 0.00048097146 0)
(0.31798428 0.00046770031 0)
(0.31510313 0.00045496196 0)
(0.31228819 0.00044263506 0)
(0.30951176 0.00043079684 0)
(0.30679904 0.0004193305 0)
(0.30412066 0.00040831328 0)
(0.30150384 0.00039763283 0)
(0.2989174 0.00038736569 0)
(0.29639071 0.00037740404 0)
(0.29389059 0.00036782282 0)
(0.29144874 0.00035851901 0)
(0.28902982 0.00034956554 0)
(0.28666796 0.00034086452 0)
(0.28432551 0.00033248617 0)
(0.2820392 0.00032433808 0)
(0.27976886 0.00031648717 0)
(0.27755402 0.0003088469 0)
(0.27535181 0.00030148033 0)
(0.27320469 0.0002943072 0)
(0.27106688 0.00028738609 0)
(0.26898404 0.00028064339 0)
(0.26690722 0.00027413261 0)
(0.26488548 0.00026778726 0)
(0.26286648 0.00026165514 0)
(0.26090291 0.00025567728 0)
(0.25893877 0.0002498952 0)
(0.25703066 0.00024425789 0)
(0.25511863 0.00023879995 0)
(0.25326348 0.00023347879 0)
(0.25140099 0.00022832149 0)
(0.24959647 0.00022329435 0)
(0.24778112 0.00021841631 0)
(0.24602509 0.00021366304 0)
(0.24425461 0.00020904475 0)
(0.24254506 0.00020454698 0)
(0.24081734 0.00020017063 0)
(0.23915242 0.00019591157 0)
(0.23746545 0.00019176083 0)
(0.23584342 0.00018772512 0)
(0.23419531 0.00018378501 0)
(0.23261458 0.0001799585 0)
(0.23100353 0.00017621522 0)
(0.22946261 0.00017258493 0)
(0.2278869 0.00016902575 0)
(0.22638441 0.0001655797 0)
(0.22484243 0.0001621929 0)
(0.22337708 0.00015892006 0)
(0.22186728 0.00015569483 0)
(0.22043788 0.00015258501 0)
(0.21895876 0.00014951136 0)
(0.21756422 0.00014655515 0)
(0.21611436 0.0001436238 0)
(0.21475365 0.00014081247 0)
(0.21333167 0.00013801483 0)
(0.21200386 0.00013534026 0)
(0.21060843 0.00013266836 0)
(0.20931265 0.000130123 0)
(0.20794248 0.0001275694 0)
(0.20667797 0.00012514627 0)
(0.2053318 0.00012270418 0)
(0.20409783 0.00012039672 0)
(0.20277442 0.0001180597 0)
(0.20157036 0.00011586191 0)
(0.20026852 0.00011362409 0)
(0.19909379 0.00011153017 0)
(0.19781232 0.000109386 0)
(0.19666642 0.00010739071 0)
(0.19540416 0.00010533509 0)
(0.19428664 0.00010343333 0)
(0.19304241 0.00010146148 0)
(0.19195291 9.9648578e-05 0)
(0.19072555 9.7756146e-05 0)
(0.18966378 9.6027609e-05 0)
(0.18845211 9.4210484e-05 0)
(0.18741783 9.2562115e-05 0)
(0.18622068 9.0816575e-05 0)
(0.18521372 8.9244383e-05 0)
(0.18402989 8.7566942e-05 0)
(0.18305018 8.606707e-05 0)
(0.18187845 8.4454597e-05 0)
(0.18092597 8.3023455e-05 0)
(0.1797651 8.1473039e-05 0)
(0.17883992 8.0107041e-05 0)
(0.17768863 7.8616144e-05 0)
(0.17679088 7.7311955e-05 0)
(0.17564785 7.5878277e-05 0)
(0.17477778 7.4632495e-05 0)
(0.17364162 7.3254056e-05 0)
(0.17279956 7.2063501e-05 0)
(0.17166884 7.0738666e-05 0)
(0.1708552 6.9599996e-05 0)
(0.16972841 6.8327401e-05 0)
(0.16894373 6.7237486e-05 0)
(0.16781927 6.6016199e-05 0)
(0.16706419 6.4971657e-05 0)
(0.16594037 6.3801093e-05 0)
(0.16521565 6.2798632e-05 0)
(0.16409067 6.1678714e-05 0)
(0.1633972 6.0714751e-05 0)
(0.16226913 5.9645899e-05 0)
(0.16160795 5.8716757e-05 0)
(0.16047472 5.7700035e-05 0)
(0.15984701 5.6801723e-05 0)
(0.15870636 5.5838951e-05 0)
(0.1581135 5.4967115e-05 0)
(0.156963 5.4060984e-05 0)
(0.15640653 5.3210828e-05 0)
(0.1552435 5.2365206e-05 0)
(0.15472517 5.1531256e-05 0)
(0.15354668 5.0751474e-05 0)
(0.15306846 4.992754e-05 0)
(0.15187129 4.9220848e-05 0)
(0.15143539 4.8399618e-05 0)
(0.15021594 4.7775823e-05 0)
(0.14982482 4.6948668e-05 0)
(0.14857907 4.6421174e-05 0)
(0.14823548 4.5577648e-05 0)
(0.14695888 4.5165048e-05 0)
(0.14666584 4.4292352e-05 0)
(0.14535316 4.4021134e-05 0)
(0.14511404 4.3103202e-05 0)
(0.14375914 4.301248e-05 0)
(0.14357763 4.2028464e-05 0)
(0.14217299 4.2177769e-05 0)
(0.14205343 4.1097642e-05 0)
(0.14058895 4.1564858e-05 0)
(0.14053801 4.0337055e-05 0)
(0.13899784 4.287064e-05 0)
(0.97637339 0.015439541 0)
(0.97673351 0.020971524 0)
(0.97861365 0.02470475 0)
(0.9811803 0.026460941 0)
(0.98343612 0.02713336 0)
(0.98480986 0.027563303 0)
(0.9851545 0.028127981 0)
(0.98456003 0.028808025 0)
(0.98314705 0.029430419 0)
(0.98097928 0.029833159 0)
(0.97804771 0.029910113 0)
(0.97430395 0.029594897 0)
(0.96969498 0.028848369 0)
(0.96418733 0.027651611 0)
(0.95779084 0.026028683 0)
(0.95055327 0.024050978 0)
(0.94258514 0.021842542 0)
(0.9340063 0.019559477 0)
(0.92496889 0.017360637 0)
(0.91560284 0.015368898 0)
(0.90605196 0.013653735 0)
(0.8964161 0.012229069 0)
(0.88679502 0.011073334 0)
(0.87723007 0.01014463 0)
(0.86775825 0.009401267 0)
(0.85838783 0.0088091185 0)
(0.84911808 0.008335048 0)
(0.83992538 0.0079472861 0)
(0.83080473 0.0076176549 0)
(0.82173762 0.0073243106 0)
(0.81272907 0.0070519038 0)
(0.80376869 0.0067910942 0)
(0.79486976 0.0065365739 0)
(0.78602694 0.006286078 0)
(0.77725861 0.0060388418 0)
(0.76856135 0.0057953275 0)
(0.75995591 0.0055562695 0)
(0.75143819 0.0053228418 0)
(0.74302931 0.0050959766 0)
(0.73472295 0.0048767368 0)
(0.7265396 0.004665755 0)
(0.71846997 0.0044637115 0)
(0.71053371 0.004270827 0)
(0.70271844 0.0040873934 0)
(0.69504311 0.0039132822 0)
(0.68749241 0.0037484989 0)
(0.68008499 0.0035926905 0)
(0.67280285 0.0034456832 0)
(0.6656647 0.0033069675 0)
(0.65865007 0.003176255 0)
(0.65177815 0.0030529611 0)
(0.64502621 0.0029367607 0)
(0.63841424 0.0028270603 0)
(0.63191743 0.0027235479 0)
(0.62555691 0.0026256583 0)
(0.61930587 0.0025331172 0)
(0.61318685 0.0024454058 0)
(0.60717107 0.0023622985 0)
(0.60128277 0.0022833305 0)
(0.59549121 0.0022083279 0)
(0.5898225 0.0021368802 0)
(0.58424392 0.0020688608 0)
(0.57878365 0.0020039095 0)
(0.57340692 0.0019419407 0)
(0.56814418 0.0018826389 0)
(0.56295849 0.0018259515 0)
(0.55788274 0.0017716013 0)
(0.55287771 0.0017195608 0)
(0.54797889 0.0016695851 0)
(0.54314465 0.0016216643 0)
(0.53841325 0.0015755817 0)
(0.53374046 0.0015313388 0)
(0.52916753 0.0014887428 0)
(0.52464742 0.0014478018 0)
(0.52022454 0.0014083445 0)
(0.51584889 0.0013703811 0)
(0.51156822 0.0013337606 0)
(0.50732931 0.0012984919 0)
(0.50318353 0.0012644436 0)
(0.49907418 0.0012316202 0)
(0.49505644 0.0011999098 0)
(0.49106994 0.0011693106 0)
(0.48717389 0.0011397301 0)
(0.48330395 0.0011111576 0)
(0.47952367 0.0010835209 0)
(0.47576443 0.0010567984 0)
(0.4720944 0.0010309393 0)
(0.46844038 0.001005909 0)
(0.46487546 0.00098167872 0)
(0.46132152 0.00095819903 0)
(0.45785694 0.00093546437 0)
(0.45439828 0.00091340843 0)
(0.45102956 0.00089205001 0)
(0.44766166 0.00087130386 0)
(0.44438466 0.00085121446 0)
(0.44110328 0.0008316756 0)
(0.43791409 0.00081275879 0)
(0.43471526 0.00079433482 0)
(0.43161026 0.00077650372 0)
(0.42849021 0.00075911115 0)
(0.42546601 0.00074228723 0)
(0.42242119 0.00072585043 0)
(0.41947463 0.00070996254 0)
(0.41650168 0.00069441274 0)
(0.41362979 0.00067939628 0)
(0.41072554 0.00066467087 0)
(0.40792556 0.000650467 0)
(0.40508698 0.00063650879 0)
(0.40235633 0.00062306387 0)
(0.39958056 0.00060982056 0)
(0.39691681 0.00059708556 0)
(0.39420111 0.00058450913 0)
(0.39160201 0.00057243905 0)
(0.38894378 0.00056048534 0)
(0.38640722 0.0005490389 0)
(0.38380395 0.00053766718 0)
(0.38132797 0.00052680642 0)
(0.37877728 0.00051597922 0)
(0.37636005 0.00050566928 0)
(0.37385962 0.00049535196 0)
(0.37149944 0.00048556069 0)
(0.36904706 0.00047572124 0)
(0.36674237 0.00046641901 0)
(0.36433588 0.00045702772 0)
(0.36208521 0.0004481871 0)
(0.35972253 0.00043921639 0)
(0.35752455 0.00043081198 0)
(0.35520366 0.0004222362 0)
(0.35305713 0.00041424451 0)
(0.35077606 0.00040603976 0)
(0.34867986 0.00039843907 0)
(0.34643667 0.00039058323 0)
(0.34438979 0.00038335332 0)
(0.34218257 0.00037582562 0)
(0.3401841 0.00036894786 0)
(0.33801099 0.00036172899 0)
(0.33606012 0.00035518583 0)
(0.33391924 0.00034825765 0)
(0.33201527 0.000342033 0)
(0.32990479 0.00033537859 0)
(0.32804712 0.0003294572 0)
(0.32596519 0.00032306066 0)
(0.32415332 0.00031742855 0)
(0.32209809 0.0003112751 0)
(0.32033163 0.00030591906 0)
(0.31830124 0.00029999472 0)
(0.31657992 0.00029490254 0)
(0.31457247 0.00028919431 0)
(0.31289611 0.00028435454 0)
(0.3109097 0.00027885012 0)
(0.30927825 0.00027425198 0)
(0.3073109 0.00026893998 0)
(0.30572443 0.0002645735 0)
(0.30377414 0.0002594431 0)
(0.30223284 0.00025529877 0)
(0.30029752 0.00025034004 0)
(0.29880172 0.00024640909 0)
(0.29687921 0.00024161265 0)
(0.29542939 0.00023788662 0)
(0.29351745 0.00023324386 0)
(0.29211421 0.00022971498 0)
(0.29021048 0.00022521796 0)
(0.28885461 0.00022187856 0)
(0.28695663 0.00021751999 0)
(0.28564906 0.0002143631 0)
(0.2837542 0.0002101365 0)
(0.28249609 0.00020715509 0)
(0.28060158 0.00020305469 0)
(0.27939424 0.00020024227 0)
(0.27749712 0.00019626322 0)
(0.27634212 0.00019361314 0)
(0.2744392 0.00018975154 0)
(0.27333834 0.0001872574 0)
(0.27142621 0.00018351055 0)
(0.27038152 0.00018116582 0)
(0.26845649 0.0001775324 0)
(0.26747031 0.00017533036 0)
(0.26552836 0.00017181066 0)
(0.26460334 0.00016974429 0)
(0.26264009 0.00016634078 0)
(0.2617792 0.00016440242 0)
(0.25978986 0.0001611204 0)
(0.25899645 0.00015930173 0)
(0.25697574 0.00015615016 0)
(0.25625355 0.0001544416 0)
(0.25419562 0.00015143447 0)
(0.25354884 0.00014982497 0)
(0.25144718 0.00014698342 0)
(0.25088043 0.00014545994 0)
(0.24872772 0.00014281563 0)
(0.24824612 0.00014136271 0)
(0.24603408 0.00013896325 0)
(0.24564322 0.00013756267 0)
(0.24336229 0.00013548084 0)
(0.24306825 0.00013411287 0)
(0.24070712 0.00013245949 0)
(0.24051645 0.00013110179 0)
(0.23806139 0.00013006389 0)
(0.23798076 0.0001284963 0)
(0.2354182 0.00013172747 0)
(0.97895561 0.014900901 0)
(0.97909281 0.018983659 0)
(0.98046104 0.022343733 0)
(0.98278714 0.024441922 0)
(0.98547254 0.025552294 0)
(0.9879818 0.026232339 0)
(0.9900995 0.026881492 0)
(0.99185771 0.027610335 0)
(0.9933998 0.028330608 0)
(0.99482518 0.028892944 0)
(0.99615983 0.029170449 0)
(0.9973373 0.029078127 0)
(0.99825958 0.0285703 0)
(0.99879443 0.027635546 0)
(0.99883712 0.026304771 0)
(0.99829194 0.02464949 0)
(0.99712338 0.022777131 0)
(0.9953187 0.020819247 0)
(0.99292991 0.018908654 0)
(0.99002159 0.017155641 0)
(0.98670444 0.01562831 0)
(0.98307047 0.014351683 0)
(0.97922643 0.013314463 0)
(0.97523235 0.01248727 0)
(0.97114974 0.011831779 0)
(0.9669915 0.01130979 0)
(0.96277817 0.010888425 0)
(0.95849029 0.010540228 0)
(0.95413454 0.010242066 0)
(0.94968612 0.0099757983 0)
(0.94515414 0.0097277967 0)
(0.94051598 0.0094890823 0)
(0.93578633 0.0092539176 0)
(0.93094582 0.0090194273 0)
(0.92601497 0.0087842071 0)
(0.92097694 0.0085482651 0)
(0.91585703 0.0083119999 0)
(0.91063945 0.0080764582 0)
(0.90535283 0.0078425472 0)
(0.89998091 0.0076114621 0)
(0.8945546 0.0073840258 0)
(0.88905615 0.0071612083 0)
(0.88351815 0.0069435382 0)
(0.87792073 0.0067316678 0)
(0.87229795 0.006525823 0)
(0.86662748 0.0063263811 0)
(0.86094484 0.0061333435 0)
(0.85522507 0.0059468879 0)
(0.8495052 0.0057668419 0)
(0.84375752 0.0055932341 0)
(0.83802075 0.0054257862 0)
(0.83226428 0.005264443 0)
(0.82652871 0.0051088792 0)
(0.82078046 0.0049590014 0)
(0.81506216 0.004814474 0)
(0.80933715 0.0046751916 0)
(0.80365029 0.0045408294 0)
(0.79796168 0.0044112829 0)
(0.79231865 0.0042862503 0)
(0.78667791 0.0041656343 0)
(0.78108944 0.0040491621 0)
(0.77550642 0.0039367448 0)
(0.7699817 0.0038281407 0)
(0.76446475 0.0037232664 0)
(0.75901152 0.0036219113 0)
(0.75356759 0.0035239941 0)
(0.74819226 0.0034293347 0)
(0.742827 0.0033378497 0)
(0.73753474 0.003249388 0)
(0.73225263 0.0031638598 0)
(0.7270475 0.0030811429 0)
(0.72185193 0.0030011368 0)
(0.71673697 0.0029237488 0)
(0.71163038 0.002848864 0)
(0.70660774 0.0027764199 0)
(0.70159173 0.0027062839 0)
(0.69666278 0.0026384253 0)
(0.69173821 0.0025726908 0)
(0.68690368 0.0025090834 0)
(0.68207078 0.0024474266 0)
(0.6773308 0.0023877588 0)
(0.67258928 0.0023298779 0)
(0.66794354 0.0022738606 0)
(0.66329269 0.0022194756 0)
(0.65874048 0.0021668402 0)
(0.65417921 0.0021156911 0)
(0.64971955 0.002066189 0)
(0.64524648 0.0020180357 0)
(0.64087813 0.0019714382 0)
(0.63649169 0.0019260598 0)
(0.63221322 0.0018821567 0)
(0.62791166 0.0018393505 0)
(0.62372153 0.0017979495 0)
(0.61950294 0.0017575297 0)
(0.61539952 0.0017184548 0)
(0.61126191 0.0016802512 0)
(0.60724351 0.0016433413 0)
(0.60318484 0.0016071982 0)
(0.59924973 0.0015723059 0)
(0.59526789 0.0015380804 0)
(0.59141433 0.0015050712 0)
(0.5875072 0.0014726323 0)
(0.58373348 0.0014413825 0)
(0.5798989 0.00141061 0)
(0.57620331 0.0013810063 0)
(0.57243916 0.0013517894 0)
(0.56882004 0.0013237279 0)
(0.56512416 0.0012959646 0)
(0.56157988 0.0012693496 0)
(0.55795015 0.0012429459 0)
(0.55447914 0.0012176895 0)
(0.55091345 0.0011925586 0)
(0.54751419 0.0011685796 0)
(0.54401043 0.001144641 0)
(0.54068148 0.0011218645 0)
(0.53723755 0.0010990436 0)
(0.53397753 0.0010774005 0)
(0.53059138 0.0010556281 0)
(0.52739896 0.0010350544 0)
(0.52406854 0.0010142664 0)
(0.52094249 0.0009947029 0)
(0.51766575 0.00097483954 0)
(0.5146049 0.00095623169 0)
(0.51137982 0.00093723729 0)
(0.50838309 0.0009195343 0)
(0.50520765 0.0009013569 0)
(0.50227404 0.00088451166 0)
(0.49914622 0.0008671027 0)
(0.49627481 0.00085107149 0)
(0.4931926 0.00083438554 0)
(0.49038257 0.0008191279 0)
(0.48734396 0.00080312257 0)
(0.48459456 0.0007886008 0)
(0.48159752 0.00077323619 0)
(0.47890811 0.00075941547 0)
(0.4759506 0.00074465415 0)
(0.47332062 0.00073150175 0)
(0.47040059 0.0007173085 0)
(0.4678296 0.00070479435 0)
(0.46494496 0.00069113599 0)
(0.46243262 0.00067923173 0)
(0.45958126 0.00066607694 0)
(0.45712732 0.00065475655 0)
(0.45430707 0.0006420759 0)
(0.45191142 0.00063131491 0)
(0.44912007 0.00061908047 0)
(0.44678272 0.00060885637 0)
(0.444018 0.00059704183 0)
(0.44173906 0.00058733357 0)
(0.43899864 0.00057591389 0)
(0.43677839 0.00056670193 0)
(0.43405983 0.00055565352 0)
(0.43189867 0.00054691984 0)
(0.42919947 0.00053622013 0)
(0.42709796 0.00052794786 0)
(0.42441548 0.00051757574 0)
(0.42237436 0.00050974945 0)
(0.41970586 0.00049968463 0)
(0.41772602 0.00049228984 0)
(0.41506861 0.00048251331 0)
(0.41315115 0.0004755369 0)
(0.41050178 0.00046603057 0)
(0.40864801 0.00045946006 0)
(0.40600344 0.00045020694 0)
(0.40421488 0.0004440313 0)
(0.40157168 0.00043501541 0)
(0.39985009 0.00042922402 0)
(0.3972046 0.00042043053 0)
(0.39555202 0.00041501398 0)
(0.39290031 0.00040642928 0)
(0.39131906 0.00040137851 0)
(0.38865691 0.00039299031 0)
(0.38714962 0.00038829716 0)
(0.38447247 0.00038009482 0)
(0.38304212 0.0003757515 0)
(0.38034504 0.00036772631 0)
(0.37899499 0.00036372542 0)
(0.37627262 0.00035587096 0)
(0.37500663 0.00035220527 0)
(0.37225313 0.00034451822 0)
(0.37107542 0.00034118033 0)
(0.36828438 0.00033366153 0)
(0.36719965 0.00033064387 0)
(0.36436404 0.00032329965 0)
(0.36337752 0.00032059362 0)
(0.36048959 0.00031343803 0)
(0.35960707 0.0003110338 0)
(0.35665824 0.00030409217 0)
(0.35588607 0.00030197788 0)
(0.3528668 0.00029529256 0)
(0.35221193 0.00029345364 0)
(0.34911154 0.00028709353 0)
(0.34858142 0.00028551149 0)
(0.34538792 0.00027958963 0)
(0.3449903 0.0002782395 0)
(0.3416902 0.00027295168 0)
(0.34143248 0.00027175663 0)
(0.33801118 0.00026758756 0)
(0.33789789 0.00026593572 0)
(0.33434495 0.00026799445 0)
(0.98102179 0.014583568 0)
(0.98109689 0.017839571 0)
(0.98209959 0.020813419 0)
(0.98394089 0.023053026 0)
(0.98628861 0.024476884 0)
(0.98871315 0.025363915 0)
(0.99095897 0.026044283 0)
(0.99297262 0.026700429 0)
(0.99486036 0.027334163 0)
(0.99672821 0.027842681 0)
(0.99865034 0.028106155 0)
(1.0006035 0.02803643 0)
(1.0025315 0.027588245 0)
(1.0043207 0.026757208 0)
(1.0058784 0.025577421 0)
(1.007094 0.024116333 0)
(1.0079119 0.022467109 0)
(1.0082775 0.02073942 0)
(1.0082069 0.019043323 0)
(1.0077181 0.017473042 0)
(1.0068952 0.016091507 0)
(1.0057998 0.014926934 0)
(1.0045336 0.013976152 0)
(1.0031448 0.013216832 0)
(1.0017049 0.012615985 0)
(1.0002199 0.012138738 0)
(0.99872413 0.011754559 0)
(0.99719196 0.011439067 0)
(0.99564172 0.011172374 0)
(0.99403717 0.010938757 0)
(0.99239551 0.010725725 0)
(0.99067832 0.010524385 0)
(0.98890635 0.010328481 0)
(0.9870415 0.010134393 0)
(0.98510971 0.0099399754 0)
(0.98307382 0.0097445684 0)
(0.98096507 0.0095480355 0)
(0.97874661 0.0093509716 0)
(0.97645433 0.0091539595 0)
(0.97405065 0.0089579145 0)
(0.97157544 0.0087634927 0)
(0.96898949 0.0085715024 0)
(0.96633619 0.0083824163 0)
(0.96357408 0.0081967998 0)
(0.96074991 0.008014896 0)
(0.95781952 0.0078370355 0)
(0.95483293 0.0076632709 0)
(0.95174303 0.0074937488 0)
(0.9486032 0.0073283949 0)
(0.94536305 0.0071672302 0)
(0.94207948 0.0070101095 0)
(0.93869866 0.0068569772 0)
(0.93528116 0.0067076638 0)
(0.93176945 0.0065620719 0)
(0.92822801 0.0064200386 0)
(0.92459536 0.0062814449 0)
(0.9209401 0.0061461534 0)
(0.91719658 0.0060140339 0)
(0.91343774 0.0058849846 0)
(0.90959347 0.0057588676 0)
(0.90574133 0.0056356228 0)
(0.90180646 0.0055151039 0)
(0.89787127 0.0053972956 0)
(0.89385588 0.005282039 0)
(0.88984781 0.0051693634 0)
(0.88576183 0.0050590918 0)
(0.88169087 0.0049512983 0)
(0.87754401 0.004845782 0)
(0.87341991 0.0047426613 0)
(0.86922156 0.0046417052 0)
(0.86505373 0.0045430765 0)
(0.86081294 0.004446508 0)
(0.8566104 0.0043522084 0)
(0.85233577 0.0042598689 0)
(0.8481071 0.0041697457 0)
(0.84380676 0.0040814835 0)
(0.83956004 0.0039953887 0)
(0.8352416 0.0039110549 0)
(0.83098443 0.0038288421 0)
(0.82665496 0.0037482882 0)
(0.82239439 0.0036698109 0)
(0.8180604 0.0035928884 0)
(0.81380295 0.0035180004 0)
(0.80947043 0.0034445606 0)
(0.80522209 0.0033731153 0)
(0.80089646 0.0033030094 0)
(0.7966627 0.0032348608 0)
(0.79234885 0.0031679411 0)
(0.78813465 0.0031029451 0)
(0.78383696 0.0030390661 0)
(0.77964681 0.0029770815 0)
(0.77536918 0.0029161007 0)
(0.77120712 0.0028569895 0)
(0.76695297 0.0027987684 0)
(0.76282261 0.0027423971 0)
(0.75859494 0.0026868012 0)
(0.7544995 0.0026330407 0)
(0.75030088 0.0025799402 0)
(0.74624324 0.0025286664 0)
(0.74207586 0.0024779365 0)
(0.73805853 0.0024290304 0)
(0.73392425 0.0023805511 0)
(0.72994947 0.0023338988 0)
(0.7258498 0.0022875553 0)
(0.72191951 0.0022430482 0)
(0.71785568 0.0021987306 0)
(0.71397161 0.0021562652 0)
(0.70994457 0.0021138689 0)
(0.7061082 0.0020733469 0)
(0.70211864 0.002032772 0)
(0.69833129 0.0019941003 0)
(0.69437969 0.0019552519 0)
(0.6906425 0.0019183423 0)
(0.68672912 0.0018811301 0)
(0.68304309 0.0018458991 0)
(0.67916799 0.0018102372 0)
(0.675534 0.0017766057 0)
(0.67169708 0.0017424125 0)
(0.66811591 0.001710306 0)
(0.66431689 0.0016775041 0)
(0.66078924 0.0016468524 0)
(0.6570277 0.0016153684 0)
(0.65355419 0.0015861053 0)
(0.64982956 0.0015558694 0)
(0.64641078 0.0015279327 0)
(0.64272235 0.0014988787 0)
(0.63935885 0.0014722095 0)
(0.6357058 0.0014442745 0)
(0.63239809 0.0014188178 0)
(0.62877947 0.001391942 0)
(0.62552806 0.001367646 0)
(0.62194281 0.0013417729 0)
(0.61874823 0.0013185891 0)
(0.61519516 0.0012936646 0)
(0.61205793 0.0012715476 0)
(0.60853575 0.0012475204 0)
(0.60545644 0.0012264272 0)
(0.60196374 0.0012032485 0)
(0.59894296 0.0011831395 0)
(0.5954782 0.0011607624 0)
(0.59251659 0.0011415998 0)
(0.58907815 0.00111998 0)
(0.58617643 0.0011017289 0)
(0.58276253 0.0010808238 0)
(0.5799215 0.0010634516 0)
(0.57653025 0.0010432205 0)
(0.57375079 0.0010266969 0)
(0.57038016 0.0010071008 0)
(0.56766325 0.00099139749 0)
(0.56431107 0.00097239911 0)
(0.56165781 0.00095748982 0)
(0.55832176 0.00093905344 0)
(0.55573337 0.00092491403 0)
(0.55241097 0.00090700501 0)
(0.54988883 0.00089361305 0)
(0.54657741 0.00087619857 0)
(0.54412305 0.00086353366 0)
(0.54081976 0.0008465817 0)
(0.53843489 0.00083462492 0)
(0.53513666 0.0008181051 0)
(0.5328232 0.00080683959 0)
(0.52952674 0.00079072234 0)
(0.52728681 0.00078013238 0)
(0.52398859 0.00076438958 0)
(0.52182456 0.00075446162 0)
(0.51852074 0.00073906614 0)
(0.51643525 0.00072978758 0)
(0.51312172 0.00071471369 0)
(0.5111177 0.00070607391 0)
(0.50778998 0.00069129717 0)
(0.5058707 0.00068328642 0)
(0.50252396 0.00066878398 0)
(0.50069302 0.00066139414 0)
(0.49732199 0.00064714514 0)
(0.49558341 0.0006403691 0)
(0.49218237 0.000626355 0)
(0.49054059 0.00062018663 0)
(0.48710328 0.00060639184 0)
(0.4855632 0.00060082576 0)
(0.48208281 0.00058723868 0)
(0.48064985 0.00058226982 0)
(0.47711889 0.00056888455 0)
(0.47579902 0.00056450797 0)
(0.4722093 0.00055132626 0)
(0.47100906 0.00054753597 0)
(0.46735155 0.00053457074 0)
(0.46627812 0.00053135897 0)
(0.46254289 0.00051863992 0)
(0.46160403 0.0005159953 0)
(0.45778015 0.00050357845 0)
(0.45698417 0.00050148333 0)
(0.45305959 0.00048946761 0)
(0.4524152 0.00048789139 0)
(0.44837671 0.00047645294 0)
(0.44789259 0.00047533152 0)
(0.44372592 0.00046481405 0)
(0.44340961 0.00046392813 0)
(0.43910034 0.00045524089 0)
(0.43895523 0.00045360818 0)
(0.43449334 0.00045270585 0)
(0.98278783 0.014418158 0)
(0.98286027 0.017158661 0)
(0.98366226 0.019789548 0)
(0.98515204 0.021986348 0)
(0.9871494 0.023568693 0)
(0.9893432 0.024611019 0)
(0.99149874 0.025335519 0)
(0.9934941 0.025929608 0)
(0.99537368 0.026456953 0)
(0.99720449 0.026871148 0)
(0.99907374 0.027080327 0)
(1.0009768 0.027002292 0)
(1.0028969 0.026590798 0)
(1.0047402 0.025840985 0)
(1.0064449 0.024783854 0)
(1.0079062 0.023479228 0)
(1.0090852 0.022007142 0)
(1.0099157 0.020459386 0)
(1.0104154 0.01892807 0)
(1.0105763 0.017494114 0)
(1.010476 0.016215569 0)
(1.0101485 0.015122697 0)
(1.0096968 0.014218939 0)
(1.0091506 0.013488532 0)
(1.0085939 0.01290434 0)
(1.0080212 0.012436196 0)
(1.0074854 0.012056627 0)
(1.0069504 0.011743567 0)
(1.0064535 0.011479357 0)
(1.0059451 0.011250038 0)