/*--------------------------------*- C++ -*----------------------------------*\
| =========                 |                                                 |
| \\      /  F ield         | OpenFOAM: The Open Source CFD Toolbox           |
|  \\    /   O peration     | Version:  1.4.1-dev                             |
|   \\  /    A nd           | Web:      http://www.openfoam.org               |
|    \\/     M anipulation  |                                                 |
\*---------------------------------------------------------------------------*/

FoamFile
{
    version 2.0;
    format ascii;

    root "/home/mjaworsk/OpenFOAM/mjaworsk-1.4.1-dev/run/FlatPlate-Blasius";
    case "icoHeatFoam-flatPlate2";
    instance "0.2";
    local "";

    class volScalarField;
    object p;
}

// * * * * * * * * * * * * * * * * * * * * * * * * * * * * * * * * * * * * * //

dimensions      [0 2 -2 0 0 0 0];

internalField   nonuniform List<scalar> 
2475
(
0.00367514
0.00121225
-0.000374048
-0.00076003
-0.000700021
-0.000606395
-0.000550437
-0.000516131
-0.000490998
-0.000471539
-0.00045657
-0.000444897
-0.000435319
-0.000427016
-0.00041978
-0.000413667
-0.00040853
-0.0004041
-0.000400153
-0.000396492
-0.00039256
-0.00038732
-0.000379744
-0.000368147
-0.000349593
-0.000321805
-0.000285982
-0.000246135
-0.000206512
-0.00016922
-0.000134817
-0.000102608
-7.22694e-05
-4.28757e-05
-1.41776e-05
0.00314431
0.00121241
-0.000275843
-0.000698722
-0.000664278
-0.000584678
-0.000536947
-0.000506783
-0.000483823
-0.000465797
-0.000451901
-0.000441054
-0.000432122
-0.00042433
-0.000417503
-0.000411725
-0.00040687
-0.000402682
-0.000398946
-0.000395472
-0.00039171
-0.000386629
-0.000379201
-0.000367749
-0.000349336
-0.000321666
-0.000285927
-0.000246128
-0.000206524
-0.000169238
-0.000134835
-0.000102623
-7.22809e-05
-4.28835e-05
-1.41796e-05
0.00265672
0.00123039
-0.000127722
-0.00061462
-0.000621673
-0.000556713
-0.000518158
-0.00049435
-0.000474983
-0.000459031
-0.00044654
-0.000436731
-0.000428585
-0.000421394
-0.000415035
-0.000409633
-0.000405091
-0.000401166
-0.000397657
-0.000394385
-0.000390809
-0.000385898
-0.000378631
-0.000367338
-0.000349074
-0.000321523
-0.00028586
-0.0002461
-0.000206517
-0.00016924
-0.000134841
-0.000102631
-7.22872e-05
-4.28881e-05
-1.41805e-05
0.00228358
0.00124919
4.72673e-05
-0.000501883
-0.000565643
-0.000519611
-0.000491509
-0.000476542
-0.000462857
-0.000450104
-0.000439632
-0.000431271
-0.000424206
-0.000417828
-0.00041209
-0.000407171
-0.000403013
-0.000399402
-0.000396158
-0.000393117
-0.000389752
-0.000385033
-0.000377948
-0.000366833
-0.000348736
-0.000321316
-0.00028574
-0.00024603
-0.000206477
-0.00016922
-0.000134834
-0.000102629
-7.2288e-05
-4.28903e-05
-1.41813e-05
0.00198599
0.00123722
0.000210862
-0.000372851
-0.000497958
-0.000474449
-0.000456185
-0.000451249
-0.000445489
-0.000437534
-0.000429973
-0.000423633
-0.00041809
-0.000412884
-0.000408051
-0.000403828
-0.000400208
-0.000397022
-0.000394125
-0.000391381
-0.000388278
-0.000383795
-0.000376928
-0.000366029
-0.000348144
-0.000320909
-0.000285476
-0.000245866
-0.000206381
-0.000169166
-0.000134806
-0.000102617
-7.22841e-05
-4.28923e-05
-1.41835e-05
0.00173849
0.00118795
0.00034248
-0.000240951
-0.000423618
-0.000426501
-0.000416321
-0.000419807
-0.000422732
-0.000420856
-0.000417066
-0.000413292
-0.000409698
-0.000406038
-0.00040243
-0.000399162
-0.000396277
-0.000393664
-0.000391225
-0.000388858
-0.000386083
-0.000381889
-0.000375286
-0.000364651
-0.000347048
-0.000320099
-0.000284923
-0.000245517
-0.000206174
-0.000169051
-0.000134746
-0.000102589
-7.2273e-05
-4.28949e-05
-1.41889e-05
0.0015322
0.00111439
0.000437905
-0.000113692
-0.000343723
-0.000377758
-0.00037585
-0.000385129
-0.000395933
-0.00040071
-0.000401271
-0.000400399
-0.000399007
-0.000397147
-0.000395013
-0.000392919
-0.000390948
-0.000389052
-0.00038718
-0.000385268
-0.000382875
-0.000379015
-0.000372713
-0.000362386
-0.000345151
-0.000318632
-0.000283892
-0.000244854
-0.000205778
-0.000168825
-0.000134624
-0.000102536
-7.22472e-05
-4.28962e-05
-1.41982e-05
0.00136082
0.00103195
0.000499788
2.78741e-06
-0.000258881
-0.000327305
-0.000336373
-0.000349523
-0.000366517
-0.000377916
-0.00038326
-0.000385525
-0.000386434
-0.000386467
-0.000385926
-0.000385123
-0.000384176
-0.000383095
-0.000381869
-0.00038046
-0.000378474
-0.000374964
-0.000368975
-0.00035898
-0.000342193
-0.000316268
-0.000282184
-0.00024373
-0.000205089
-0.000168422
-0.000134395
-0.000102416
-7.21915e-05
-4.29012e-05
-1.42095e-05
0.00121757
0.000950697
0.000533373
0.000102685
-0.000172004
-0.000273872
-0.000297872
-0.000314482
-0.000335676
-0.000353053
-0.000363469
-0.000369154
-0.000372453
-0.000374406
-0.000375491
-0.000376019
-0.000376134
-0.000375909
-0.000375365
-0.000374474
-0.000372888
-0.00036971
-0.000364014
-0.000354344
-0.000338057
-0.000312874
-0.000279666
-0.000242029
-0.000204016
-0.00016777
-0.000134007
-0.000102201
-7.20821e-05
-4.28727e-05
-1.42184e-05
0.00109633
0.000875393
0.000545447
0.000182395
-8.77612e-05
-0.00021713
-0.000259367
-0.000280697
-0.000304472
-0.000326621
-0.000342085
-0.000351499
-0.000357351
-0.000361263
-0.000363993
-0.000365874
-0.000367067
-0.000367709
-0.000367859
-0.000367486
-0.000366278
-0.000363398
-0.000357956
-0.000348584
-0.000332815
-0.000308478
-0.000276325
-0.000239712
-0.000202507
-0.000166822
-0.000133421
-0.000101859
-7.1896e-05
-4.28068e-05
-1.42176e-05
0.000992357
0.000807491
0.000542956
0.000241594
-1.08115e-05
-0.000158123
-0.000219617
-0.000248026
-0.000273733
-0.000299203
-0.000319242
-0.000332588
-0.000341219
-0.00034718
-0.000351587
-0.00035485
-0.000357146
-0.000358676
-0.000359534
-0.000359684
-0.000358843
-0.000356238
-0.000351023
-0.000341923
-0.000326676
-0.000303244
-0.000272265
-0.000236824
-0.000200572
-0.000165569
-0.000132621
-0.000101373
-7.16185e-05
-4.26907e-05
-1.42001e-05
0.000902188
0.000746689
0.000531559
0.00028262
5.55207e-05
-9.91698e-05
-0.000177943
-0.000215715
-0.000243872
-0.000271455
-0.000295194
-0.00031241
-0.000324035
-0.00033219
-0.000338332
-0.00034301
-0.000346446
-0.000348896
-0.000350491
-0.000351184
-0.000350722
-0.000348395
-0.000343406
-0.000334579
-0.000319862
-0.000297367
-0.00026763
-0.000233458
-0.000198262
-0.000164034
-0.000131615
-0.000100743
-7.12467e-05
-4.25189e-05
-1.4162e-05
0.000823289
0.000692058
0.000515086
0.000309044
0.000109701
-4.31416e-05
-0.000134667
-0.000182898
-0.000214804
-0.000243933
-0.000270345
-0.000291034
-0.000305747
-0.000316263
-0.000324231
-0.000330366
-0.000334977
-0.000338387
-0.000340757
-0.000342029
-0.000341976
-0.000339954
-0.000335217
-0.000326686
-0.000312521
-0.000290992
-0.000262537
-0.000229694
-0.000195628
-0.000162248
-0.000130422
-9.99794e-05
-7.07851e-05
-4.22927e-05
-1.41034e-05
0.00075377
0.000642677
0.00049583
0.000324428
0.000151905
7.46791e-06
-9.10674e-05
-0.0001491
-0.000186084
-0.000216928
-0.000245168
-0.000268671
-0.000286346
-0.000299346
-0.000309257
-0.000316906
-0.000322723
-0.00032713
-0.000330318
-0.000332212
-0.00033261
-0.000330934
-0.000326491
-0.000318299
-0.000304722
-0.000284186
-0.000257047
-0.000225578
-0.000192699
-0.00016023
-0.000129054
-9.90891e-05
-7.02383e-05
-4.20149e-05
-1.40259e-05
0.000692209
0.000597857
0.000475134
0.000331706
0.000183401
5.10718e-05
-4.89143e-05
-0.000114497
-0.000157229
-0.00019043
-0.000220056
-0.000245649
-0.000265929
-0.000281408
-0.000293372
-0.000302611
-0.000309666
-0.0003151
-0.000319148
-0.000321709
-0.000322602
-0.000321322
-0.000317227
-0.000309424
-0.000296477
-0.000276967
-0.000251173
-0.000221118
-0.000189478
-0.000157979
-0.000127509
-9.80715e-05
-6.96062e-05
-4.16859e-05
-1.39304e-05
0.000637466
0.000557106
0.000453853
0.000333081
0.000205867
8.70946e-05
-9.8878e-06
-7.98576e-05
-0.000128013
-0.00016424
-0.000195237
-0.000222322
-0.000244705
-0.000262494
-0.000276549
-0.000287459
-0.000295794
-0.000302277
-0.000307221
-0.000310493
-0.000311926
-0.000311094
-0.000307405
-0.000300047
-0.000287776
-0.000269327
-0.000244907
-0.000216304
-0.000185953
-0.000155483
-0.000125778
-9.69186e-05
-6.88833e-05
-4.13031e-05
-1.38165e-05
0.000588499
0.000520005
0.00043259
0.000330191
0.000220951
0.000115725
2.47627e-05
-4.62859e-05
-9.85956e-05
-0.000138157
-0.000170777
-0.000198984
-0.000222947
-0.000242739
-0.000258814
-0.000271435
-0.0002811
-0.000288655
-0.000294521
-0.000298547
-0.000300563
-0.000300226
-0.000297004
-0.000290153
-0.000278607
-0.000261253
-0.000238235
-0.000211119
-0.000182107
-0.000152725
-0.000123844
-9.56176e-05
-6.80604e-05
-4.0861e-05
-1.36827e-05
0.00054427
0.000486092
0.000411774
0.000324306
0.000230129
0.000137572
5.43239e-05
-1.4901e-05
-6.9474e-05
-0.000112128
-0.00014666
-0.000175843
-0.00020092
-0.000222342
-0.000240261
-0.000254559
-0.000265583
-0.000274238
-0.000281044
-0.000285861
-0.000288503
-0.000288704
-0.000286006
-0.000279729
-0.000268958
-0.000252731
-0.00023114
-0.000205543
-0.000177917
-0.000149682
-0.00012169
-9.41532e-05
-6.71267e-05
-4.03533e-05
-1.35267e-05
0.000503763
0.000454797
0.000391638
0.000316457
0.000234747
0.000153475
7.85722e-05
1.33584e-05
-4.13613e-05
-8.62919e-05
-0.000122869
-0.000153047
-0.000178859
-0.000201515
-0.000221046
-0.000236906
-0.000249258
-0.000259036
-0.000266801
-0.000272431
-0.000275746
-0.000276528
-0.000274401
-0.000268761
-0.000258821
-0.000243753
-0.00022361
-0.00019956
-0.000173364
-0.000146335
-0.000119294
-9.2509e-05
-6.60699e-05
-3.97726e-05
-1.33459e-05
0.000466081
0.000425415
0.000372156
0.000307425
0.000236041
0.000164432
9.76684e-05
3.78347e-05
-1.50404e-05
-6.09679e-05
-9.94193e-05
-0.000130712
-0.000156984
-0.000180449
-0.000201338
-0.00021861
-0.000232186
-0.000243067
-0.000251812
-0.000258272
-0.000262296
-0.000263706
-0.00026219
-0.000257241
-0.000248188
-0.000234312
-0.000215632
-0.000193152
-0.000168429
-0.000142663
-0.000116639
-9.06678e-05
-6.48772e-05
-3.91111e-05
-1.31375e-05
0.00043064
0.000397239
0.000353027
0.000297656
0.000235069
0.000171542
0.000112094
5.81857e-05
8.7454e-06
-3.66457e-05
-7.63892e-05
-0.000108909
-0.000135526
-0.000159345
-0.000181284
-0.000199833
-0.000214488
-0.000226376
-0.000236107
-0.000243411
-0.000248162
-0.000250251
-0.000249389
-0.000245169
-0.000237053
-0.000224404
-0.0002072
-0.000186306
-0.000163092
-0.000138643
-0.000113703
-8.86125e-05
-6.35352e-05
-3.83609e-05
-1.28988e-05
0.000397351
0.000369779
0.000333784
0.000287204
0.000232568
0.000175881
0.00012262
7.44265e-05
2.94121e-05
-1.39295e-05
-5.39757e-05
-8.7655e-05
-0.000114688
-0.000138456
-0.000161021
-0.000180713
-0.000196328
-0.000209055
-0.000219721
-0.00022789
-0.000233373
-0.000236177
-0.000236021
-0.000232558
-0.000225416
-0.000214029
-0.000198314
-0.000179012
-0.000157337
-0.000134259
-0.000110467
-8.63257e-05
-6.20305e-05
-3.75137e-05
-1.2627e-05
0.000366652
0.00034301
0.000314053
0.000275825
0.000228859
0.000178321
0.000130178
8.69363e-05
4.66337e-05
6.55561e-06
-3.25433e-05
-6.69593e-05
-9.45774e-05
-0.000118077
-0.000140733
-0.000161348
-0.000177874
-0.000191261
-0.000202723
-0.000211761
-0.000217979
-0.000221508
-0.000222112
-0.000219435
-0.000213277
-0.000203183
-0.000188975
-0.000171269
-0.000151154
-0.000129494
-0.000106915
-8.37908e-05
-6.03491e-05
-3.65609e-05
-1.23192e-05
0.000339278
0.000317475
0.000293872
0.00026326
0.000223905
0.000179369
0.000135653
9.6392e-05
6.04252e-05
2.42986e-05
-1.26099e-05
-4.69443e-05
-7.51967e-05
-9.84718e-05
-0.000120703
-0.000141845
-0.000159251
-0.000173185
-0.000185232
-0.000195086
-0.000202053
-0.00020629
-0.000207695
-0.000205844
-0.000200659
-0.00019186
-0.000179179
-0.000163074
-0.000144535
-0.000124337
-0.000103034
-8.09957e-05
-5.84803e-05
-3.54949e-05
-1.1972e-05
0.000315715
0.000294031
0.000273791
0.000249512
0.000217498
0.000179134
0.000139663
0.000103603
7.11819e-05
3.90682e-05
5.29411e-06
-2.79015e-05
-5.65077e-05
-7.97641e-05
-0.000101259
-0.00012238
-0.000140533
-0.000154997
-0.000167419
-0.000177949
-0.000185673
-0.000190597
-0.000192809
-0.000191841
-0.000187618
-0.000180084
-0.000168933
-0.000154429
-0.000137469
-0.00011877
-9.8806e-05
-7.79269e-05
-5.64143e-05
-3.43111e-05
-1.15852e-05
0.000295749
0.000273401
0.000254707
0.000235021
0.000209537
0.00017743
0.000142418
0.00010923
7.95353e-05
5.09702e-05
2.07756e-05
-1.02675e-05
-3.85747e-05
-6.19371e-05
-8.26742e-05
-0.000103223
-0.000121807
-0.000136813
-0.000149474
-0.000160469
-0.000168915
-0.000174513
-0.0001775
-0.000177463
-0.000174222
-0.000167903
-0.000158268
-0.000145365
-0.000129975
-0.00011279
-9.42163e-05
-7.45654e-05
-5.41339e-05
-3.29976e-05
-1.11571e-05
0.000278348
0.000255724
0.000237472
0.000220589
0.000200273
0.00017406
0.000143781
0.00011358
8.61045e-05
6.03856e-05
3.36842e-05
5.48801e-06
-2.16629e-05
-4.49589e-05
-6.50935e-05
-8.47046e-05
-0.000103241
-0.000118712
-0.000131571
-0.000142812
-0.000151864
-0.000158125
-0.000161825
-0.000162725
-0.000160503
-0.000155357
-0.000147202
-0.000135911
-0.000122094
-0.00010643
-8.92848e-05
-7.09189e-05
-5.16389e-05
-3.15462e-05
-1.06747e-05
0.000262102
0.000240434
0.000222487
0.000207078
0.000190325
0.000169083
0.00014351
0.000116614
9.12909e-05
6.78233e-05
4.41556e-05
1.90362e-05
-6.1773e-06
-2.89036e-05
-4.85419e-05
-6.71119e-05
-8.51083e-05
-0.0001008
-0.000113849
-0.000125181
-0.000134658
-0.00014154
-0.000145887
-0.000147664
-0.000146481
-0.000142471
-0.000135725
-0.00012604
-0.000113815
-9.96933e-05
-8.40215e-05
-6.70071e-05
-4.89512e-05
-2.99809e-05
-1.01533e-05
0.000246002
0.000226621
0.000209585
0.000195069
0.000180495
0.000162938
0.000141564
0.000118149
9.52028e-05
7.37061e-05
5.25096e-05
3.02715e-05
7.45583e-06
-1.40387e-05
-3.3051e-05
-5.0651e-05
-6.77675e-05
-8.32951e-05
-9.64529e-05
-0.000107801
-0.000117504
-0.000124909
-0.000129852
-0.000132404
-0.000132228
-0.000129323
-0.000123883
-0.000115741
-0.000105107
-9.25361e-05
-7.83716e-05
-6.27835e-05
-4.60378e-05
-2.82907e-05
-9.6167e-06
0.000230053
0.000213679
0.000198308
0.000184727
0.000171499
0.000156407
0.000138365
0.000118248
9.78813e-05
7.8346e-05
5.91851e-05
3.93958e-05
1.90165e-05
-7.33827e-07
-1.87719e-05
-3.54616e-05
-5.15763e-05
-6.65529e-05
-7.96107e-05
-9.09262e-05
-0.000100695
-0.000108462
-0.000113948
-0.000117182
-0.000117934
-0.000116106
-0.000111873
-0.00010516
-9.60662e-05
-8.50214e-05
-7.23567e-05
-5.82305e-05
-4.28659e-05
-2.64232e-05
-8.99748e-06
0.000195341
0.000185584
0.000174762
0.000163863
0.000153215
0.00014233
0.000130408
0.000117078
0.000102674
8.78749e-05
7.30817e-05
5.81767e-05
4.29255e-05
2.74712e-05
1.23258e-05
-2.13721e-06
-1.60034e-05
-2.9277e-05
-4.15903e-05
-5.26384e-05
-6.23657e-05
-7.06343e-05
-7.71846e-05
-8.18742e-05
-8.46032e-05
-8.52176e-05
-8.3732e-05
-8.01846e-05
-7.45702e-05
-6.70257e-05
-5.78104e-05
-4.70966e-05
-3.50365e-05
-2.17706e-05
-7.42966e-06
0.00016375
0.000158045
0.000151408
0.000144212
0.00013682
0.000129306
0.000121437
0.000112918
0.000103654
9.3817e-05
8.36415e-05
7.32043e-05
6.24176e-05
5.12522e-05
3.9886e-05
2.86016e-05
1.7548e-05
6.78139e-06
-3.54158e-06
-1.31909e-05
-2.20212e-05
-2.99244e-05
-3.67419e-05
-4.23096e-05
-4.65071e-05
-4.91891e-05
-5.02768e-05
-4.97574e-05
-4.76151e-05
-4.38581e-05
-3.86014e-05
-3.19627e-05
-2.40721e-05
-1.50812e-05
-5.14537e-06
0.000140513
0.000136522
0.000132132
0.000127376
0.000122318
0.000116991
0.000111362
0.00010536
9.893e-05
9.20822e-05
8.48683e-05
7.734e-05
6.95234e-05
6.14466e-05
5.31723e-05
4.48043e-05
3.64475e-05
2.81896e-05
2.01199e-05
1.2351e-05
4.99396e-06
-1.84192e-06
-8.0403e-06
-1.34697e-05
-1.80071e-05
-2.15345e-05
-2.39666e-05
-2.52483e-05
-2.53434e-05
-2.42294e-05
-2.19417e-05
-1.85593e-05
-1.41969e-05
-8.98039e-06
-3.04902e-06
0.000121908
0.00011901
0.000115907
0.000112574
0.000109001
0.000105192
0.000101147
9.68539e-05
9.22946e-05
8.74589e-05
8.23547e-05
7.70055e-05
7.14385e-05
6.56777e-05
5.97467e-05
5.36814e-05
4.75304e-05
4.13459e-05
3.51807e-05
2.90988e-05
2.31759e-05
1.74955e-05
1.21439e-05
7.21397e-06
2.79931e-06
-1.01151e-06
-4.1417e-06
-6.52677e-06
-8.1184e-06
-8.88758e-06
-8.8352e-06
-7.99716e-06
-6.43494e-06
-4.2331e-06
-1.47599e-06
0.000106474
0.000104361
0.000102105
9.96945e-05
9.7125e-05
9.43929e-05
9.14952e-05
8.84266e-05
8.51814e-05
8.17551e-05
7.81471e-05
7.43592e-05
7.03953e-05
6.62588e-05
6.19558e-05
5.74984e-05
5.29092e-05
4.82174e-05
4.34594e-05
3.86768e-05
3.39189e-05
2.92393e-05
2.46964e-05
2.03516e-05
1.62712e-05
1.25212e-05
9.16309e-06
6.24946e-06
3.82435e-06
1.91585e-06
5.36021e-07
-3.28766e-07
-7.10792e-07
-6.68314e-07
-2.60972e-07
9.32192e-05
9.16784e-05
9.00335e-05
8.8281e-05
8.64185e-05
8.4442e-05
8.2347e-05
8.01279e-05
7.77794e-05
7.52957e-05
7.26713e-05
6.99003e-05
6.69792e-05
6.39073e-05
6.06882e-05
5.73295e-05
5.38455e-05
5.02528e-05
4.65722e-05
4.28261e-05
3.90416e-05
3.52486e-05
3.14824e-05
2.77794e-05
2.41823e-05
2.07323e-05
1.747e-05
1.44292e-05
1.16437e-05
9.13449e-06
6.91555e-06
4.98043e-06
3.31253e-06
1.87012e-06
6.09806e-07
8.13646e-05
8.02253e-05
7.90116e-05
7.77199e-05
7.63472e-05
7.48888e-05
7.334e-05
7.16957e-05
6.99516e-05
6.81031e-05
6.61463e-05
6.40763e-05
6.18908e-05
5.95881e-05
5.71695e-05
5.46366e-05
5.19953e-05
4.92504e-05
4.64106e-05
4.34843e-05
4.04848e-05
3.74261e-05
3.43276e-05
3.12082e-05
2.80929e-05
2.50043e-05
2.19677e-05
1.90029e-05
1.61335e-05
1.33722e-05
1.07308e-05
8.20407e-06
5.78411e-06
3.44095e-06
1.14721e-06
7.05541e-05
6.97045e-05
6.88007e-05
6.78392e-05
6.68169e-05
6.57294e-05
6.4573e-05
6.3344e-05
6.20397e-05
6.06564e-05
5.91912e-05
5.76393e-05
5.59974e-05
5.42614e-05
5.24297e-05
5.04995e-05
4.84719e-05
4.63462e-05
4.41252e-05
4.18107e-05
3.94084e-05
3.69235e-05
3.43658e-05
3.17429e-05
2.90684e-05
2.63527e-05
2.36097e-05
2.08484e-05
1.80828e-05
1.53175e-05
1.256e-05
9.80407e-06
7.04532e-06
4.26099e-06
1.43262e-06
6.07825e-05
6.01441e-05
5.94649e-05
5.87423e-05
5.79737e-05
5.71552e-05
5.62836e-05
5.53555e-05
5.43687e-05
5.332e-05
5.22065e-05
5.10235e-05
4.97674e-05
4.84339e-05
4.70201e-05
4.55224e-05
4.39397e-05
4.22692e-05
4.05106e-05
3.86619e-05
3.67246e-05
3.46981e-05
3.25861e-05
3.03892e-05
2.81134e-05
2.57609e-05
2.33379e-05
2.08456e-05
1.8291e-05
1.56731e-05
1.29957e-05
1.02514e-05
7.43707e-06
4.53461e-06
1.53114e-06
5.2046e-05
5.15598e-05
5.10421e-05
5.04909e-05
4.99038e-05
4.92777e-05
4.86097e-05
4.78968e-05
4.71371e-05
4.6328e-05
4.54669e-05
4.45495e-05
4.35726e-05
4.25321e-05
4.1425e-05
4.02474e-05
3.89972e-05
3.76704e-05
3.62648e-05
3.47764e-05
3.32038e-05
3.15437e-05
2.97959e-05
2.79574e-05
2.60297e-05
2.40102e-05
2.19005e-05
1.96973e-05
1.74034e-05
1.50142e-05
1.25309e-05
9.94524e-06
7.25483e-06
4.44444e-06
1.50476e-06
4.44083e-05
4.40316e-05
4.36299e-05
4.32015e-05
4.27448e-05
4.22569e-05
4.17355e-05
4.1178e-05
4.05828e-05
3.99475e-05
3.927e-05
3.85465e-05
3.7774e-05
3.69486e-05
3.60675e-05
3.51267e-05
3.4124e-05
3.30549e-05
3.19169e-05
3.07051e-05
2.94168e-05
2.80472e-05
2.65942e-05
2.5053e-05
2.34224e-05
2.16977e-05
1.98778e-05
1.79571e-05
1.59356e-05
1.38072e-05
1.15711e-05
9.21905e-06
6.7487e-06
4.14703e-06
1.40681e-06
3.79734e-05
3.76748e-05
3.73556e-05
3.70148e-05
3.6651e-05
3.62618e-05
3.58453e-05
3.53992e-05
3.49222e-05
3.44121e-05
3.38672e-05
3.3284e-05
3.26599e-05
3.19913e-05
3.12755e-05
3.05088e-05
2.9689e-05
2.8812e-05
2.78749e-05
2.68728e-05
2.58028e-05
2.46596e-05
2.34404e-05
2.21396e-05
2.07549e-05
1.92807e-05
1.77142e-05
1.60489e-05
1.42833e-05
1.24106e-05
1.0429e-05
8.33036e-06
6.11242e-06
3.76381e-06
1.27862e-06
3.28604e-05
3.26158e-05
3.2354e-05
3.2074e-05
3.17748e-05
3.14544e-05
3.11112e-05
3.07431e-05
3.0349e-05
2.9927e-05
2.94756e-05
2.89917e-05
2.84729e-05
2.7916e-05
2.73185e-05
2.6677e-05
2.59895e-05
2.5252e-05
2.44619e-05
2.36145e-05
2.27068e-05
2.17335e-05
2.06918e-05
1.9576e-05
1.83833e-05
1.71079e-05
1.57466e-05
1.42927e-05
1.27439e-05
1.10932e-05
9.33858e-06
7.47204e-06
5.4913e-06
3.38623e-06
1.15171e-06
2.92163e-05
2.90067e-05
2.8782e-05
2.85414e-05
2.82842e-05
2.80086e-05
2.7713e-05
2.73958e-05
2.70559e-05
2.66916e-05
2.63016e-05
2.5883e-05
2.54337e-05
2.49507e-05
2.44318e-05
2.38738e-05
2.32747e-05
2.2631e-05
2.19402e-05
2.11977e-05
2.04008e-05
1.95444e-05
1.86257e-05
1.7639e-05
1.65816e-05
1.54478e-05
1.42343e-05
1.29344e-05
1.15455e-05
1.00611e-05
8.47869e-06
6.79075e-06
4.99505e-06
3.08252e-06
1.04881e-06
2.72499e-05
2.70582e-05
2.68523e-05
2.66317e-05
2.63959e-05
2.61431e-05
2.58719e-05
2.55808e-05
2.52687e-05
2.49342e-05
2.45758e-05
2.41911e-05
2.37779e-05
2.33334e-05
2.28554e-05
2.2341e-05
2.17883e-05
2.11939e-05
2.05553e-05
1.98684e-05
1.91304e-05
1.83364e-05
1.74835e-05
1.65663e-05
1.55821e-05
1.45253e-05
1.33926e-05
1.21773e-05
1.0877e-05
9.48502e-06
7.99881e-06
6.41107e-06
4.71938e-06
2.91482e-06
9.92874e-07
0.000146905
0.000471396
0.000349871
0.00048139
0.000427376
0.00054522
0.000494418
0.000628037
0.000602885
0.000753597
0.00074449
0.000902996
0.000926612
0.00111639
0.00118921
0.00143896
0.00159764
0.00199393
0.00237251
0.00315774
0.000147256
0.000470829
0.000350523
0.000480753
0.000428458
0.000544447
0.000495447
0.000626784
0.000603829
0.000751504
0.000745182
0.000898803
0.000927496
0.00111038
0.00119011
0.00142784
0.00159808
0.00196197
0.00233096
0.00286747
0.00014787
0.000469621
0.000351907
0.000479518
0.000430487
0.00054294
0.000497437
0.000624032
0.000605977
0.000746752
0.000747534
0.000889983
0.000931369
0.00109619
0.00119443
0.00140172
0.00159603
0.0018929
0.00223006
0.00252173
0.000148696
0.00046842
0.000353585
0.000478441
0.000432686
0.000541418
0.000499747
0.000620504
0.000608835
0.000740536
0.000750831
0.000879474
0.00093546
0.00107841
0.00119605
0.00137054
0.00157784
0.00180813
0.00208528
0.00223155
0.000149988
0.000467334
0.000355529
0.000477624
0.000434922
0.000539863
0.000502327
0.000616142
0.000612371
0.000732929
0.000754584
0.000867045
0.000938114
0.00105918
0.00119122
0.00133778
0.0015398
0.00171643
0.00192413
0.00199897
0.000152004
0.000466211
0.000357777
0.000476847
0.000437196
0.000537929
0.000505169
0.000610708
0.000616454
0.000724019
0.000758194
0.000853403
0.000937931
0.00104024
0.00117791
0.00130381
0.00148395
0.00162069
0.00176332
0.00180026
0.000154865
0.000464851
0.000360316
0.000475835
0.000439521
0.000535249
0.000508206
0.000604145
0.000620757
0.000714419
0.000760815
0.000840021
0.000933356
0.00102246
0.00115547
0.00126717
0.00141554
0.00152162
0.00161044
0.00162173
0.000158545
0.000463068
0.00036314
0.000474344
0.000441995
0.000531562
0.000511367
0.000596635
0.00062478
0.000705042
0.00076141
0.000827942
0.000923526
0.0010052
0.00112514
0.00122566
0.00134045
0.00142018
0.00146866
0.00146026
0.000162915
0.000460713
0.000366301
0.000472201
0.0004448
0.000526762
0.000514519
0.000588566
0.000627842
0.000696685
0.000759282
0.000817469
0.000908706
0.000986486
0.00108928
0.00117801
0.0012629
0.00131858
0.00133893
0.0013161
0.000167827
0.000457676
0.000369898
0.000469316
0.000448105
0.000520921
0.000517357
0.000580451
0.000629237
0.000689675
0.000754128
0.000810759
0.000890213
0.000964389
0.00104986
0.0011246
0.00118513
0.00121953
0.0012211
0.00118902
0.000173193
0.000453854
0.00037404
0.00046567
0.000451964
0.000514279
0.000519376
0.000572764
0.000628481
0.000683797
0.000745929
0.000799875
0.000869293
0.000937952
0.00100781
0.00106718
0.00110831
0.00112523
0.00111445
0.00107751
0.000179009
0.000449113
0.000378794
0.000461312
0.000456246
0.00050723
0.000519979
0.000565778
0.000625375
0.000678421
0.00073544
0.000786489
0.000846286
0.000907107
0.000963456
0.00100782
0.00103334
0.00103691
0.00101811
0.000979425
0.000185355
0.000443275
0.000384126
0.000456392
0.000460603
0.000500265
0.000518647
0.000559462
0.000620095
0.000672627
0.000723434
0.000770093
0.000820833
0.000872457
0.000916996
0.00094805
0.00096105
0.000954916
0.000931146
0.00089269
0.00019236
0.000436166
0.000389859
0.000451193
0.00046451
0.000493822
0.000515103
0.000553425
0.000613113
0.00066548
0.000710059
0.000750557
0.000792702
0.00083474
0.000868799
0.000888772
0.000892038
0.00087916
0.000852652
0.000815649
0.000200166
0.00042762
0.000396487
0.000446192
0.000467457
0.000488132
0.000509442
0.000546986
0.000604828
0.000656406
0.000695083
0.000728275
0.000761899
0.000794663
0.000819482
0.000830596
0.000826635
0.00080933
0.00078176
0.000747003
0.000208903
0.000417495
0.000401674
0.000441965
0.00046904
0.000483163
0.000502051
0.000539452
0.000595365
0.000645229
0.000678137
0.000703592
0.000728765
0.000753005
0.000769886
0.000774086
0.000764955
0.000744983
0.000717578
0.000685614
0.000218646
0.000405882
0.00040551
0.000438915
0.000469112
0.000478609
0.000493327
0.000530308
0.000584587
0.000632109
0.000658958
0.000676647
0.000693795
0.000710609
0.000720979
0.000719902
0.000707107
0.000685642
0.00065918
0.000630356
0.000229375
0.000393218
0.000407066
0.000437068
0.000468079
0.000474067
0.000483441
0.000519191
0.000572213
0.000614661
0.000637466
0.000647473
0.000657323
0.000668141
0.000673692
0.000668828
0.000653406
0.000631023
0.000605769
0.000580153
0.000240946
0.000380211
0.000405545
0.000435952
0.000466614
0.000469432
0.000472396
0.000505863
0.000558255
0.000598179
0.000614215
0.00061632
0.000619468
0.000625814
0.000628564
0.000621542
0.000604357
0.000581189
0.000556863
0.000534118
0.000253083
0.000367319
0.000400412
0.000434635
0.000466568
0.000464946
0.000460346
0.000490026
0.000542085
0.00058041
0.000590063
0.000583975
0.000580489
0.000583596
0.000585527
0.000578236
0.00056036
0.000536452
0.000512398
0.000491706
0.000265338
0.000356209
0.000391781
0.000431758
0.000466781
0.000461213
0.000447677
0.000471381
0.000523039
0.000561528
0.000566329
0.000551952
0.000541247
0.000541358
0.000543933
0.000538378
0.000521337
0.000497096
0.000472652
0.000452824
0.000277038
0.000347097
0.000380572
0.00042587
0.000466488
0.000458723
0.000435035
0.000449919
0.000500274
0.000540823
0.000543793
0.000522111
0.000503326
0.000499417
0.000502952
0.000500771
0.000486479
0.000463001
0.00043798
0.000417801
0.000287491
0.000340349
0.000368323
0.000416006
0.00046411
0.000457551
0.000423237
0.000426705
0.0004733
0.000516955
0.000521833
0.000495652
0.000468693
0.000458994
0.000462306
0.00046407
0.000454348
0.000433398
0.000408439
0.000387137
0.000296199
0.000335784
0.000356599
0.000402032
0.000457547
0.000456998
0.000415165
0.000403632
0.000442675
0.000488792
0.000499072
0.000472525
0.000438859
0.00042189
0.000422685
0.000427463
0.000423296
0.000406818
0.000383395
0.000361062
0.000302769
0.000332885
0.000346558
0.000385313
0.000445423
0.000454728
0.000410317
0.000383387
0.000410145
0.000456178
0.000474004
0.000451695
0.000414331
0.000389804
0.000385602
0.000391123
0.000392058
0.000381364
0.000361321
0.00033902
0.000307002
0.000330789
0.000338733
0.000368071
0.000427726
0.000447903
0.000407375
0.000367891
0.000378786
0.000420366
0.000445126
0.00043096
0.000394313
0.000363762
0.00035296
0.000356346
0.000360411
0.000355455
0.00034021
0.000319607
0.00030902
0.000328366
0.000332904
0.00035189
0.000405494
0.000434939
0.000403643
0.000357259
0.000351995
0.000384141
0.000412208
0.000407694
0.000376451
0.000343349
0.00032612
0.000325
0.000329337
0.000328547
0.000318377
0.000301016
0.000309081
0.000324954
0.00032808
0.000337759
0.000381153
0.000415607
0.000396002
0.000349889
0.000331688
0.000351278
0.000377575
0.000380804
0.000357784
0.000326471
0.000305049
0.000298618
0.000300621
0.000301481
0.000295336
0.000281907
0.000307446
0.000320048
0.000323045
0.000326185
0.000357646
0.000391023
0.000382111
0.000342471
0.000316929
0.000324277
0.000344662
0.000351537
0.000336517
0.000310273
0.00028812
0.000277532
0.000275925
0.000276065
0.000272066
0.00026213
0.00030441
0.000313672
0.000316345
0.000316582
0.00033722
0.000364273
0.000362404
0.000331643
0.000305485
0.00030341
0.000315961
0.000322482
0.000313031
0.00029283
0.00027297
0.000260649
0.000255844
0.000253998
0.000250377
0.000242768
0.000292689
0.00029592
0.000296693
0.000292956
0.000294631
0.000304595
0.000308809
0.000297492
0.000277803
0.000263249
0.000258803
0.000259306
0.000257138
0.000249122
0.000237326
0.000225686
0.000216777
0.000210792
0.000206361
0.000201927
0.000262451
0.000261586
0.000258737
0.000253286
0.000248448
0.000248015
0.000248781
0.000243947
0.000232691
0.000220525
0.000212116
0.000207688
0.000204568
0.000200262
0.00019413
0.000187117
0.000180548
0.000175196
0.000171077
0.00016776
0.00022861
0.000226437
0.000222553
0.000217461
0.000212224
0.000207958
0.000204205
0.000199426
0.000192986
0.000185868
0.000179422
0.000174191
0.000169844
0.000165774
0.000161619
0.000157396
0.000153337
0.000149658
0.000146449
0.000143678
0.000195516
0.000193323
0.000189667
0.000185094
0.000180039
0.000175078
0.000170495
0.000166088
0.000161526
0.000156763
0.000152061
0.000147716
0.000143843
0.000140374
0.000137181
0.000134181
0.000131362
0.000128756
0.000126396
0.000124294
0.000165124
0.000163251
0.000160186
0.000156356
0.000152144
0.000147904
0.000143848
0.00014
0.000136289
0.000132678
0.000129205
0.000125943
0.00012294
0.000120198
0.000117694
0.000115404
0.000113316
0.000111425
0.000109724
0.000108207
0.000138327
0.000136867
0.000134483
0.000131523
0.000128263
0.000124922
0.000121646
0.00011851
0.000115539
0.000112735
0.000110102
0.000107648
0.000105383
0.00010331
0.000101426
9.97218e-05
9.81869e-05
9.68095e-05
9.55767e-05
9.44781e-05
0.000115396
0.000114293
0.000112492
0.000110263
0.000107806
0.000105269
0.000102753
0.000100327
9.80274e-05
9.58749e-05
9.38761e-05
9.20334e-05
9.03474e-05
8.88136e-05
8.74244e-05
8.61696e-05
8.50396e-05
8.40241e-05
8.31127e-05
8.22981e-05
9.59997e-05
9.51781e-05
9.38376e-05
9.21813e-05
9.03557e-05
8.84645e-05
8.65814e-05
8.47574e-05
8.30246e-05
8.14017e-05
7.98966e-05
7.85126e-05
7.72504e-05
7.61059e-05
7.50719e-05
7.41389e-05
7.32984e-05
7.2542e-05
7.18615e-05
7.12521e-05
7.97492e-05
7.91414e-05
7.815e-05
7.69259e-05
7.55766e-05
7.41767e-05
7.27797e-05
7.14227e-05
7.01292e-05
6.89136e-05
6.77828e-05
6.67415e-05
6.57923e-05
6.49336e-05
6.41599e-05
6.34636e-05
6.28368e-05
6.22723e-05
6.17634e-05
6.13066e-05
6.62671e-05
6.5816e-05
6.50799e-05
6.41715e-05
6.317e-05
6.21296e-05
6.10894e-05
6.00765e-05
5.91082e-05
5.81951e-05
5.73428e-05
5.65555e-05
5.58371e-05
5.51873e-05
5.46025e-05
5.40767e-05
5.36035e-05
5.31768e-05