/*--------------------------------*- C++ -*----------------------------------*\
| =========                 |                                                 |
| \\      /  F ield         | OpenFOAM: The Open Source CFD Toolbox           |
|  \\    /   O peration     | Version:  1.4.1-dev                             |
|   \\  /    A nd           | Web:      http://www.openfoam.org               |
|    \\/     M anipulation  |                                                 |
\*---------------------------------------------------------------------------*/

FoamFile
{
    version 2.0;
    format ascii;

    root "/home/mjaworsk/OpenFOAM/mjaworsk-1.4.1-dev/run/FlatPlate-Blasius";
    case "icoHeatFoam-flatPlate2";
    instance "0.2";
    local "";

    class surfaceScalarField;
    object phi;
}

// * * * * * * * * * * * * * * * * * * * * * * * * * * * * * * * * * * * * * //

dimensions      [0 3 -1 0 0 0 0];

internalField   nonuniform List<scalar> 
4850
(
9.48002e-09
5.51624e-09
-1.49963e-08
5.65383e-09
3.8262e-09
3.83469e-09
1.81913e-09
2.97672e-09
8.57977e-10
2.51735e-09
4.59362e-10
2.23191e-09
2.85444e-10
2.02661e-09
2.05305e-10
1.86433e-09
1.62272e-10
1.73013e-09
1.34206e-10
1.61636e-09
1.13771e-10
1.51823e-09
9.81252e-11
1.43257e-09
8.56641e-11
1.35715e-09
7.54129e-11
1.2903e-09
6.6851e-11
1.23058e-09
5.97274e-11
1.17683e-09
5.37473e-11
1.12831e-09
4.85229e-11
1.08452e-09
4.37864e-11
1.04513e-09
3.93934e-11
1.00986e-09
3.52675e-11
9.78617e-10
3.12405e-11
9.51477e-10
2.71403e-11
9.2853e-10
2.29474e-11
9.1006e-10
1.84694e-11
8.96695e-10
1.33656e-11
8.88745e-10
7.94931e-12
8.85469e-10
3.27651e-12
8.85272e-10
1.9652e-13
8.86552e-10
-1.27981e-12
8.88276e-10
-1.72434e-12
8.89951e-10
-1.6748e-12
8.9142e-10
-1.46923e-12
8.92552e-10
-1.13144e-12
8.93388e-10
-8.36461e-13
-2.67406e-13
1.63299e-08
6.25529e-09
-1.70689e-08
1.38827e-08
6.2733e-09
1.15978e-08
4.10408e-09
9.82193e-09
2.63385e-09
8.48463e-09
1.79667e-09
7.51461e-09
1.25546e-09
6.80171e-09
9.18207e-10
6.24686e-09
7.17121e-10
5.79211e-09
5.8896e-10
5.40767e-09
4.9821e-10
5.07666e-09
4.29138e-10
4.78816e-09
3.74166e-10
4.53445e-09
3.29114e-10
4.30959e-09
2.91713e-10
4.10869e-09
2.60633e-10
3.92799e-09
2.34448e-10
3.76493e-09
2.11576e-10
3.61782e-09
1.90903e-10
3.48548e-09
1.7173e-10
3.36718e-09
1.53568e-10
3.26271e-09
1.35712e-10
3.17227e-09
1.1758e-10
3.09637e-09
9.88486e-11
3.03615e-09
7.86904e-11
2.99312e-09
5.63964e-11
2.96716e-09
3.39093e-11
2.95526e-09
1.51689e-11
2.95252e-09
2.93703e-12
2.95445e-09
-3.20487e-12
2.9581e-09
-5.3795e-12
2.96208e-09
-5.64921e-12
2.96573e-09
-5.11712e-12
2.96863e-09
-4.03406e-12
2.97078e-09
-2.98727e-12
-8.84379e-13
1.92432e-08
5.5568e-09
-1.85447e-08
1.86586e-08
6.85789e-09
1.74055e-08
5.35724e-09
1.60488e-08
3.99052e-09
1.46839e-08
3.16156e-09
1.34254e-08
2.51394e-09
1.23469e-08
1.99675e-09
1.14387e-08
1.62531e-09
1.06643e-08
1.36331e-09
9.99385e-09
1.16871e-09
9.40674e-09
1.01625e-09
8.88864e-09
8.92264e-10
8.42879e-09
7.8897e-10
8.01835e-09
7.02144e-10
7.64979e-09
6.29201e-10
7.31702e-09
5.67211e-10
7.01574e-09
5.12862e-10
6.74295e-09
4.63688e-10
6.49673e-09
4.17956e-10
6.27598e-09
3.74317e-10
6.08054e-09
3.31147e-10
5.91087e-09
2.87248e-10
5.76814e-09
2.41577e-10
5.65454e-09
1.92296e-10
5.5723e-09
1.38639e-10
5.52045e-09
8.57585e-11
5.49347e-09
4.21451e-11
5.48305e-09
1.33631e-11
5.48179e-09
-1.94693e-12
5.48468e-09
-8.27059e-12
5.48918e-09
-1.01499e-11
5.49387e-09
-9.80527e-12
5.49785e-09
-8.01465e-12
5.5009e-09
-6.04252e-12
-1.646e-12
2.10183e-08
4.80123e-09
-2.02628e-08
2.13413e-08
6.53492e-09
2.09866e-08
5.71197e-09
2.03867e-08
4.59044e-09
1.95978e-08
3.95043e-09
1.86641e-08
3.44763e-09
1.76952e-08
2.96568e-09
1.67588e-08
2.56164e-09
1.58761e-08
2.24609e-09
1.50525e-08
1.99229e-09
1.42903e-08
1.77841e-09
1.35895e-08
1.59308e-09
1.2948e-08
1.43043e-09
1.23622e-08
1.28794e-09
1.18272e-08
1.16427e-09
1.13378e-08
1.0566e-09
1.08899e-08
9.60752e-10
1.04804e-08
8.73193e-10
1.01073e-08
7.9103e-10
9.7699e-09
7.11735e-10
9.46863e-09
6.32421e-10
9.20469e-09
5.51188e-10
8.98028e-09
4.65982e-10
8.79888e-09
3.73695e-10
8.66373e-09
2.73794e-10
8.57338e-09
1.76108e-10
8.52034e-09
9.51839e-11
8.49328e-09
4.04267e-11
8.48201e-09
9.31869e-12
8.47922e-09
-5.47564e-12
8.48088e-09
-1.18088e-11
8.48442e-09
-1.3349e-11
8.48813e-09
-1.17237e-11
8.49131e-09
-9.22423e-12
-2.1983e-12
2.27182e-08
4.25486e-09
-2.21718e-08
2.32916e-08
5.96144e-09
2.33608e-08
5.64278e-09
2.32302e-08
4.72103e-09
2.29722e-08
4.20847e-09
2.25356e-08
3.88425e-09
2.19614e-08
3.53987e-09
2.13124e-08
3.21066e-09
2.06207e-08
2.93773e-09
1.99035e-08
2.70945e-09
1.91768e-08
2.50516e-09
1.84559e-08
2.31402e-09
1.77539e-08
2.13243e-09
1.70805e-08
1.96126e-09
1.64417e-08
1.80307e-09
1.58401e-08
1.65828e-09
1.52762e-08
1.52457e-09
1.47502e-08
1.39926e-09
1.4262e-08
1.27925e-09
1.38127e-08
1.16103e-09
1.34048e-08
1.04027e-09
1.30415e-08
9.14495e-10
1.27268e-08
7.80704e-10
1.24659e-08
6.34544e-10
1.22639e-08
4.75797e-10
1.21201e-08
3.19948e-10
1.20265e-08
1.88771e-10
1.19701e-08
9.68334e-11
1.19386e-08
4.08692e-11
1.19223e-08
1.08152e-11
1.19155e-08
-5.00561e-12
1.1914e-08
-1.19344e-11
1.19151e-08
-1.27395e-11
1.19169e-08
-1.10673e-11
-1.87648e-12
2.45823e-08
3.8788e-09
-2.42063e-08
2.51741e-08
5.36971e-09
2.53942e-08
5.42262e-09
2.54307e-08
4.68452e-09
2.54332e-08
4.206e-09
2.53338e-08
3.98368e-09
2.51098e-08
3.76386e-09
2.47951e-08
3.52535e-09
2.44116e-08
3.32126e-09
2.39645e-08
3.15649e-09
2.34594e-08
3.01031e-09
2.29062e-08
2.86721e-09
2.23184e-08
2.72022e-09
2.17108e-08
2.56889e-09
2.10973e-08
2.41655e-09
2.04895e-08
2.26603e-09
1.98961e-08
2.11799e-09
1.93227e-08
1.97267e-09
1.87736e-08
1.82835e-09
1.82533e-08
1.68135e-09
1.77678e-08
1.5257e-09
1.73239e-08
1.35846e-09
1.69286e-08
1.176e-09
1.65899e-08
9.73209e-10
1.63156e-08
7.5007e-10
1.61076e-08
5.27951e-10
1.59601e-08
3.36303e-10
1.58606e-08
1.96297e-10
1.57964e-08
1.05064e-10
1.57564e-08
5.08539e-11
1.57332e-08
1.82085e-11
1.5721e-08
2.23097e-13
1.57155e-08
-7.18941e-12
1.57135e-08
-9.05731e-12
4.99625e-13
2.66175e-08
3.60819e-09
-2.63469e-08
2.71656e-08
4.82166e-09
2.74552e-08
5.13297e-09
2.75356e-08
4.60418e-09
2.76101e-08
4.13144e-09
2.76562e-08
3.9376e-09
2.76232e-08
3.79685e-09
2.7523e-08
3.62554e-09
2.73746e-08
3.46973e-09
2.71771e-08
3.35392e-09
2.69237e-08
3.26374e-09
2.66109e-08
3.18006e-09
2.62404e-08
3.09071e-09
2.58188e-08
2.9905e-09
2.53563e-08
2.87897e-09
2.48652e-08
2.75716e-09
2.43571e-08
2.62612e-09
2.38411e-08
2.48866e-09
2.33242e-08
2.34522e-09
2.28131e-08
2.19253e-09
2.23164e-08
2.02238e-09
2.18443e-08
1.83049e-09
2.14079e-08
1.61246e-09
2.10181e-08
1.36296e-09
2.06863e-08
1.08189e-09
2.04184e-08
7.95829e-10
2.02135e-08
5.412e-10
2.00631e-08
3.46776e-10
1.99565e-08
2.11657e-10
1.9883e-08
1.24364e-10
1.98347e-08
6.64666e-11
1.98048e-08
3.01673e-11
1.97875e-08
1.00676e-11
1.9778e-08
4.88982e-13
6.7725e-12
2.88126e-08
3.39154e-09
-2.85959e-08
2.92925e-08
4.34177e-09
2.96294e-08
4.79603e-09
2.97411e-08
4.49247e-09
2.9821e-08
4.05151e-09
2.99094e-08
3.84919e-09
2.99552e-08
3.75112e-09
2.99521e-08
3.62864e-09
2.99213e-08
3.50049e-09
2.98686e-08
3.40662e-09
2.97858e-08
3.34653e-09
2.96631e-08
3.30276e-09
2.94936e-08
3.26026e-09
2.9274e-08
3.21011e-09
2.90056e-08
3.14737e-09
2.86939e-08
3.06884e-09
2.83472e-08
2.97281e-09
2.79731e-08
2.86278e-09
2.75771e-08
2.74122e-09
2.71635e-08
2.6061e-09
2.67395e-08
2.44634e-09
2.63153e-08
2.25474e-09
2.59031e-08
2.02461e-09
2.55158e-08
1.75029e-09
2.5167e-08
1.43072e-09
2.48667e-08
1.09609e-09
2.46203e-08
7.87646e-10
2.44255e-08
5.41605e-10
2.42769e-08
3.60226e-10
2.41666e-08
2.3468e-10
2.40881e-08
1.44903e-10
2.40348e-08
8.35428e-11
2.40009e-08
4.39614e-11
2.39796e-08
2.17458e-11
1.92725e-11
3.1168e-08
3.19474e-09
-3.09712e-08
3.15731e-08
3.93671e-09
3.19341e-08
4.43494e-09
3.209e-08
4.33663e-09
3.21694e-08
3.9721e-09
3.22641e-08
3.75451e-09
3.23416e-08
3.67354e-09
3.23793e-08
3.59103e-09
3.2394e-08
3.48578e-09
3.24009e-08
3.39969e-09
3.23988e-08
3.34863e-09
3.23794e-08
3.32213e-09
3.23346e-08
3.30504e-09
3.22577e-08
3.28705e-09
3.21444e-08
3.2607e-09
3.19939e-08
3.21935e-09
3.18095e-08
3.15718e-09
3.15955e-08
3.07678e-09
3.13545e-08
2.98223e-09
3.10864e-08
2.8742e-09
3.0793e-08
2.73977e-09
3.04796e-08
2.56814e-09
3.01556e-08
2.3486e-09
2.98315e-08
2.07433e-09
2.95202e-08
1.74203e-09
2.92331e-08
1.38316e-09
2.89803e-08
1.04045e-09
2.87661e-08
7.55888e-10
2.85915e-08
5.34832e-10
2.84531e-08
3.73028e-10
2.8348e-08
2.49968e-10
2.82711e-08
1.60448e-10
2.82188e-08
9.63204e-11
2.8183e-08
5.75172e-11
4.00514e-11
3.36965e-08
3.00251e-09
-3.35043e-08
3.40361e-08
3.59711e-09
3.43952e-08
4.07586e-09
3.4598e-08
4.13382e-09
3.46894e-08
3.88074e-09
3.47815e-08
3.66235e-09
3.48743e-08
3.58078e-09
3.49361e-08
3.52926e-09
3.49713e-08
3.45058e-09
3.49991e-08
3.37188e-09
3.50264e-08
3.32134e-09
3.50495e-08
3.29902e-09
3.50626e-08
3.29193e-09
3.50601e-08
3.28957e-09
3.50371e-08
3.28365e-09
3.49904e-08
3.26607e-09
3.49202e-08
3.2274e-09
3.48287e-08
3.16831e-09
3.47173e-08
3.0936e-09
3.45836e-08
3.00789e-09
3.44247e-08
2.89864e-09
3.424e-08
2.75288e-09
3.40331e-08
2.55544e-09
3.38094e-08
2.29808e-09
3.35771e-08
1.97428e-09
3.33456e-08
1.61474e-09
3.31259e-08
1.26012e-09
3.29262e-08
9.55609e-10
3.27528e-08
7.08256e-10
3.26066e-08
5.19232e-10
3.24886e-08
3.67945e-10
3.23961e-08
2.52882e-10
3.23291e-08
1.63314e-10
3.22797e-08
1.0698e-10
6.96819e-11
3.64251e-08
2.81293e-09
-3.62355e-08
3.67158e-08
3.30639e-09
3.70532e-08
3.73848e-09
3.72915e-08
3.89554e-09
3.74086e-08
3.76359e-09
3.75001e-08
3.57085e-09
3.75995e-08
3.48143e-09
3.76802e-08
3.44857e-09
3.77322e-08
3.39858e-09
3.77706e-08
3.3334e-09
3.78084e-08
3.28357e-09
3.78468e-08
3.26064e-09
3.78825e-08
3.25621e-09
3.79118e-08
3.26026e-09
3.79314e-08
3.26407e-09
3.79379e-08
3.25961e-09
3.79303e-08
3.235e-09
3.79098e-08
3.18881e-09
3.78783e-08
3.12503e-09
3.78342e-08
3.05202e-09
3.77735e-08
2.95939e-09
3.76918e-08
2.8345e-09
3.75884e-08
2.65883e-09
3.74631e-08
2.42342e-09
3.73189e-08
2.11849e-09
3.71605e-08
1.77315e-09
3.69972e-08
1.42341e-09
3.68374e-08
1.1154e-09
3.66898e-08
8.55876e-10
3.65576e-08
6.51433e-10
3.64447e-08
4.80877e-10
3.635e-08
3.47512e-10
3.62771e-08
2.36194e-10
3.6219e-08
1.65128e-10
1.06566e-10
3.93912e-08
2.62916e-09
-3.92074e-08
3.96476e-08
3.04991e-09
3.99544e-08
3.43172e-09
4.02103e-08
3.63966e-09
4.03594e-08
3.61445e-09
4.04572e-08
3.47306e-09
4.05582e-08
3.38048e-09
4.06526e-08
3.35415e-09
4.07217e-08
3.32944e-09
4.0771e-08
3.28414e-09
4.08149e-08
3.23961e-09
4.08597e-08
3.21591e-09
4.09046e-08
3.21133e-09
4.09471e-08
3.2177e-09
4.09853e-08
3.22584e-09
4.10165e-08
3.22844e-09
4.10391e-08
3.21236e-09
4.10534e-08
3.17458e-09
4.10614e-08
3.11696e-09
4.10633e-08
3.05014e-09
4.10567e-08
2.96598e-09
4.1037e-08
2.85422e-09
4.10013e-08
2.69459e-09
4.0946e-08
2.47866e-09
4.08706e-08
2.19394e-09
4.07756e-08
1.86812e-09
4.06676e-08
1.53142e-09
4.05532e-08
1.22977e-09
4.04412e-08
9.67896e-10
4.0335e-08
7.57645e-10
4.02395e-08
5.76318e-10
4.01541e-08
4.32898e-10
4.00844e-08
3.05922e-10
4.00243e-08
2.25282e-10
1.47693e-10
4.26334e-08
2.45422e-09
-4.24585e-08
4.28648e-08
2.8185e-09
4.31406e-08
3.156e-09
4.33975e-08
3.38269e-09
4.35751e-08
3.43692e-09
4.36871e-08
3.36103e-09
4.37889e-08
3.27865e-09
4.38911e-08
3.25194e-09
4.39758e-08
3.24476e-09
4.40379e-08
3.22201e-09
4.40887e-08
3.18881e-09
4.41378e-08
3.16687e-09
4.41875e-08
3.16157e-09
4.42367e-08
3.16854e-09
4.42841e-08
3.1785e-09
4.43275e-08
3.18503e-09
4.43652e-08
3.17457e-09
4.43963e-08
3.1435e-09
4.44223e-08
3.091e-09
4.44441e-08
3.02835e-09
4.44615e-08
2.9486e-09
4.4471e-08
2.84473e-09
4.44696e-08
2.69596e-09
4.44527e-08
2.49554e-09
4.44179e-08
2.22875e-09
4.43636e-08
1.92246e-09
4.42942e-08
1.6008e-09
4.42146e-08
1.30936e-09
4.41327e-08
1.04978e-09
4.40512e-08
8.39151e-10
4.39751e-08
6.52409e-10
4.3903e-08
5.05038e-10
4.38409e-08
3.67958e-10
4.37834e-08
2.82855e-10
1.9043e-10
4.61833e-08
2.28939e-09
-4.60185e-08
4.63944e-08
2.60737e-09
4.66428e-08
2.90766e-09
4.689e-08
3.13551e-09
4.70855e-08
3.24135e-09
4.72168e-08
3.22973e-09
4.73225e-08
3.17296e-09
4.74279e-08
3.14657e-09
4.75242e-08
3.14847e-09
4.76001e-08
3.14611e-09
4.76599e-08
3.12902e-09
4.77138e-08
3.11298e-09
4.77673e-08
3.10799e-09
4.7821e-08
3.11493e-09
4.78739e-08
3.12556e-09
4.79244e-08
3.1345e-09
4.79709e-08
3.12805e-09
4.80115e-08
3.10292e-09
4.80466e-08
3.05587e-09
4.80772e-08
2.9978e-09
4.81042e-08
2.92162e-09
4.81253e-08
2.82357e-09
4.81383e-08
2.68301e-09
4.81382e-08
2.49558e-09
4.81224e-08
2.24461e-09
4.80882e-08
1.95665e-09
4.80392e-08
1.64973e-09
4.79792e-08
1.36936e-09
4.79154e-08
1.11358e-09
4.78498e-08
9.04827e-10
4.77872e-08
7.15007e-10
4.77253e-08
5.66887e-10
4.76701e-08
4.2315e-10
4.76159e-08
3.37088e-10
2.33761e-10
5.0063e-08
2.13467e-09
-4.99083e-08
5.02566e-08
2.41379e-09
5.04818e-08
2.68248e-09
5.07142e-08
2.90311e-09
5.09168e-08
3.03874e-09
5.10668e-08
3.07975e-09
5.11807e-08
3.05905e-09
5.12876e-08
3.03964e-09
5.13909e-08
3.04521e-09
5.14792e-08
3.05781e-09
5.15499e-08
3.05833e-09
5.16103e-08
3.05253e-09
5.16682e-08
3.05015e-09
5.17257e-08
3.05736e-09
5.1783e-08
3.06825e-09
5.18386e-08
3.07897e-09
5.18909e-08
3.07571e-09
5.19378e-08
3.05608e-09
5.19788e-08
3.0148e-09
5.20144e-08
2.96223e-09
5.20458e-08
2.89018e-09
5.20716e-08
2.79775e-09
5.209e-08
2.66463e-09
5.20963e-08
2.48928e-09
5.20878e-08
2.25317e-09
5.20615e-08
1.98287e-09
5.2021e-08
1.6903e-09
5.19691e-08
1.42121e-09
5.1913e-08
1.16967e-09
5.18542e-08
9.63692e-10
5.17976e-08
7.71535e-10
5.17406e-08
6.2395e-10
5.16887e-08
4.75049e-10
5.16359e-08
3.89837e-10
2.7811e-10
5.42902e-08
1.98947e-09
-5.4145e-08
5.44683e-08
2.23574e-09
5.46737e-08
2.47705e-09
5.48901e-08
2.68668e-09
5.50916e-08
2.83728e-09
5.52551e-08
2.91622e-09
5.53805e-08
2.93365e-09
5.54903e-08
2.92984e-09
5.55971e-08
2.93846e-09
5.56948e-08
2.96012e-09
5.57768e-08
2.97628e-09
5.58457e-08
2.98363e-09
5.5909e-08
2.98689e-09
5.59708e-08
2.99555e-09
5.60322e-08
3.00682e-09
5.6092e-08
3.01921e-09
5.61488e-08
3.0189e-09
5.62003e-08
3.00455e-09
5.62459e-08
2.96921e-09
5.62853e-08
2.92282e-09
5.63198e-08
2.8557e-09
5.63481e-08
2.76947e-09
5.63688e-08
2.64393e-09
5.63774e-08
2.48064e-09
5.63714e-08
2.25919e-09
5.63478e-08
2.00649e-09
5.63098e-08
1.72827e-09
5.62602e-08
1.47086e-09
5.62059e-08
1.22396e-09
5.61482e-08
1.02139e-09
5.60926e-08
8.27157e-10
5.60359e-08
6.80636e-10
5.5984e-08
5.2698e-10
5.59304e-08
4.43406e-10
3.24405e-10
5.8884e-08
1.85309e-09
-5.87476e-08
5.90482e-08
2.07152e-09
5.92364e-08
2.28885e-09
5.94374e-08
2.48572e-09
5.96328e-08
2.64185e-09
5.98033e-08
2.74571e-09
5.99406e-08
2.79632e-09
6.00559e-08
2.81455e-09
6.01649e-08
2.82952e-09
6.02687e-08
2.85632e-09
6.03608e-08
2.88411e-09
6.04393e-08
2.90515e-09
6.05093e-08
2.9169e-09
6.0576e-08
2.92889e-09
6.06416e-08
2.94116e-09
6.07054e-08
2.95543e-09
6.07662e-08
2.95813e-09
6.08217e-08
2.94906e-09
6.08711e-08
2.91974e-09
6.0914e-08
2.87997e-09
6.09512e-08
2.8185e-09
6.09814e-08
2.73925e-09
6.10035e-08
2.62179e-09
6.10133e-08
2.47089e-09
6.10082e-08
2.26422e-09
6.09854e-08
2.02936e-09
6.09479e-08
1.76575e-09
6.08981e-08
1.52062e-09
6.08432e-08
1.27887e-09
6.07842e-08
1.08041e-09
6.0727e-08
8.84342e-10
6.06684e-08
7.39285e-10
6.06145e-08
5.80881e-10
6.05585e-08
4.99338e-10
3.73381e-10
6.38685e-08
1.72485e-09
-6.37403e-08
6.40204e-08
1.9197e-09
6.41933e-08
2.11595e-09
6.43796e-08
2.2994e-09
6.45664e-08
2.45502e-09
6.47385e-08
2.57365e-09
6.48851e-08
2.6497e-09
6.5008e-08
2.69166e-09
6.51197e-08
2.71779e-09
6.52271e-08
2.74888e-09
6.53271e-08
2.78416e-09
6.5415e-08
2.81726e-09
6.54927e-08
2.83922e-09
6.55649e-08
2.8567e-09
6.5635e-08
2.87106e-09
6.57027e-08
2.8877e-09
6.57673e-08
2.89359e-09
6.58265e-08
2.88982e-09
6.58796e-08
2.86666e-09
6.59257e-08
2.83386e-09
6.59656e-08
2.77861e-09
6.59977e-08
2.70713e-09
6.60211e-08
2.5984e-09
6.60316e-08
2.46033e-09
6.60272e-08
2.26865e-09
6.60047e-08
2.05191e-09
6.59671e-08
1.80327e-09
6.59167e-08
1.57111e-09
6.58604e-08
1.33511e-09
6.57993e-08
1.14152e-09
6.57397e-08
9.4392e-10
6.56782e-08
8.00777e-10
6.56216e-08
6.37558e-10
6.55625e-08
5.58347e-10
4.25435e-10
6.92732e-08
1.60417e-09
-6.91525e-08
6.94138e-08
1.77907e-09
6.95729e-08
1.95686e-09
6.97454e-08
2.1269e-09
6.99223e-08
2.27812e-09
7.0092e-08
2.40399e-09
7.0244e-08
2.4977e-09
7.03746e-08
2.561e-09
7.04906e-08
2.60182e-09
7.06006e-08
2.63892e-09
7.07058e-08
2.67887e-09
7.08019e-08
2.72119e-09
7.08875e-08
2.75363e-09
7.09657e-08
2.77845e-09
7.10406e-08
2.79622e-09
7.11123e-08
2.81595e-09
7.11805e-08
2.82541e-09
7.12434e-08
2.82696e-09
7.13001e-08
2.80996e-09
7.13494e-08
2.78455e-09
7.1392e-08
2.736e-09
7.14261e-08
2.67302e-09
7.14508e-08
2.57369e-09
7.14622e-08
2.44895e-09
7.14584e-08
2.27243e-09
7.14362e-08
2.07413e-09
7.13987e-08
1.84078e-09
7.13475e-08
1.62232e-09
7.12899e-08
1.39267e-09
7.12266e-08
1.20481e-09
7.11645e-08
1.00601e-09
7.11e-08
8.65314e-10
7.10403e-08
6.97248e-10
7.0978e-08
6.20677e-10
4.80734e-10
7.51314e-08
1.49059e-09
-7.50178e-08
7.52618e-08
1.64861e-09
7.54084e-08
1.81032e-09
7.55678e-08
1.96751e-09
7.5734e-08
2.1119e-09
7.58984e-08
2.23952e-09
7.60521e-08
2.34404e-09
7.61888e-08
2.4243e-09
7.631e-08
2.48062e-09
7.64225e-08
2.52642e-09
7.65311e-08
2.57025e-09
7.66336e-08
2.61877e-09
7.67265e-08
2.66067e-09
7.6811e-08
2.69401e-09
7.68908e-08
2.71641e-09
7.69667e-08
2.74002e-09
7.70385e-08
2.75363e-09
7.71048e-08
2.76063e-09
7.71651e-08
2.74966e-09
7.72177e-08
2.73197e-09
7.7263e-08
2.69066e-09
7.72993e-08
2.63676e-09
7.73255e-08
2.54749e-09
7.73378e-08
2.43663e-09
7.73348e-08
2.27542e-09
7.73131e-08
2.09581e-09
7.72758e-08
1.87805e-09
7.72242e-08
1.67401e-09
7.71655e-08
1.45132e-09
7.71002e-08
1.27006e-09
7.70358e-08
1.07049e-09
7.69683e-08
9.32835e-10
7.69055e-08
7.59961e-10
7.68399e-08
6.86365e-10
5.39337e-10
8.14796e-08
1.3839e-09
-8.13729e-08
8.16007e-08
1.52746e-09
8.17359e-08
1.67517e-09
8.18829e-08
1.82046e-09
8.20381e-08
1.95675e-09
8.21954e-08
2.08226e-09
8.23475e-08
2.19185e-09
8.24877e-08
2.28416e-09
8.26138e-08
2.35451e-09
8.27294e-08
2.41081e-09
8.28402e-08
2.45947e-09
8.2947e-08
2.51193e-09
8.30463e-08
2.56135e-09
8.31367e-08
2.60368e-09
8.32214e-08
2.63165e-09
8.33017e-08
2.65973e-09
8.33772e-08
2.67815e-09
8.34468e-08
2.69105e-09
8.35106e-08
2.68585e-09
8.35665e-08
2.67602e-09
8.36147e-08
2.64255e-09
8.36532e-08
2.59825e-09
8.36811e-08
2.51955e-09
8.36945e-08
2.4232e-09
8.36925e-08
2.27744e-09
8.36717e-08
2.11665e-09
8.3635e-08
1.91474e-09
8.35831e-08
1.72586e-09
8.35237e-08
1.51073e-09
8.34568e-08
1.33699e-09
8.33902e-08
1.13711e-09
8.33198e-08
1.00318e-09
8.32542e-08
8.25617e-10
8.31852e-08
7.55362e-10
6.01241e-10
8.83573e-08
1.28424e-09
-8.82576e-08
8.84698e-08
1.415e-09
8.85946e-08
1.55035e-09
8.87302e-08
1.68489e-09
8.88742e-08
1.81269e-09
8.90229e-08
1.93359e-09
8.91709e-08
2.0438e-09
8.93119e-08
2.14321e-09
8.94415e-08
2.2249e-09
8.95604e-08
2.29188e-09
8.9673e-08
2.34691e-09
8.97824e-08
2.40248e-09
8.98868e-08
2.45694e-09
8.99825e-08
2.508e-09
9.00719e-08
2.54233e-09
9.01565e-08
2.57512e-09
9.02359e-08
2.59872e-09
9.03087e-08
2.61823e-09
9.03758e-08
2.6188e-09
9.04351e-08
2.61665e-09
9.04861e-08
2.59155e-09
9.0527e-08
2.55745e-09
9.05569e-08
2.48958e-09
9.05717e-08
2.40837e-09
9.05709e-08
2.27827e-09
9.05512e-08
2.13638e-09
9.05154e-08
1.95048e-09
9.04638e-08
1.77748e-09
9.0404e-08
1.57052e-09
9.03358e-08
1.40522e-09
9.02673e-08
1.20558e-09
9.01944e-08
1.0761e-09
9.0126e-08
8.94069e-10
9.00538e-08
8.2755e-10
6.6639e-10
9.58069e-08
1.19206e-09
-9.57147e-08
9.59111e-08
1.31081e-09
9.60265e-08
1.43492e-09
9.61516e-08
1.55978e-09
9.62849e-08
1.67942e-09
9.64241e-08
1.79433e-09
9.65659e-08
1.90207e-09
9.6705e-08
2.00406e-09
9.68363e-08
2.09367e-09
9.69579e-08
2.17022e-09
9.70723e-08
2.2325e-09
9.71831e-08
2.2917e-09
9.72911e-08
2.34897e-09
9.73915e-08
2.40754e-09
9.74849e-08
2.44896e-09
9.75734e-08
2.48657e-09
9.7657e-08
2.51519e-09
9.77332e-08
2.54197e-09
9.78032e-08
2.54878e-09
9.78659e-08
2.55399e-09
9.792e-08
2.53747e-09
9.79631e-08
2.5143e-09
9.79953e-08
2.45741e-09
9.80119e-08
2.39176e-09
9.80125e-08
2.27766e-09
9.79942e-08
2.15472e-09
9.79598e-08
1.98483e-09
9.79089e-08
1.82843e-09
9.78491e-08
1.63027e-09
9.778e-08
1.47434e-09
9.77101e-08
1.27553e-09
9.76349e-08
1.15128e-09
9.75639e-08
9.65104e-10
9.74887e-08
9.02742e-10
7.3467e-10
1.03874e-07
1.10786e-09
-1.03789e-07
1.0397e-07
1.21461e-09
1.04077e-07
1.3281e-09
1.04192e-07
1.44402e-09
1.04316e-07
1.55615e-09
1.04445e-07
1.66469e-09
1.04579e-07
1.76811e-09
1.04714e-07
1.86913e-09
1.04845e-07
1.9628e-09
1.04968e-07
2.04702e-09
1.05084e-07
2.11636e-09
1.05196e-07
2.18026e-09
1.05306e-07
2.23913e-09
1.0541e-07
2.3031e-09
1.05507e-07
2.35197e-09
1.05599e-07
2.3948e-09
1.05686e-07
2.42781e-09
1.05766e-07
2.46198e-09
1.05839e-07
2.47581e-09
1.05905e-07
2.48837e-09
1.05962e-07
2.48019e-09
1.06008e-07
2.46869e-09
1.06042e-07
2.42296e-09
1.06061e-07
2.37297e-09
1.06063e-07
2.27523e-09
1.06047e-07
2.1714e-09
1.06014e-07
2.01737e-09
1.05964e-07
1.87817e-09
1.05905e-07
1.68947e-09
1.05836e-07
1.54385e-09
1.05765e-07
1.34653e-09
1.05688e-07
1.22833e-09
1.05614e-07
1.03843e-09
1.05536e-07
9.80676e-10
8.05888e-10
1.12607e-07
1.03173e-09
-1.12531e-07
1.12695e-07
1.1264e-09
1.12794e-07
1.22945e-09
1.12901e-07
1.3367e-09
1.13015e-07
1.44185e-09
1.13136e-07
1.54434e-09
1.13261e-07
1.64258e-09
1.1339e-07
1.74042e-09
1.13518e-07
1.83441e-09
1.13642e-07
1.92375e-09
1.13759e-07
1.99907e-09
1.13871e-07
2.0683e-09
1.13981e-07
2.12888e-09
1.14088e-07
2.19587e-09
1.14189e-07
2.25159e-09
1.14283e-07
2.30043e-09
1.14374e-07
2.33724e-09
1.14457e-07
2.3782e-09
1.14534e-07
2.39968e-09
1.14602e-07
2.42008e-09
1.14662e-07
2.41976e-09
1.14711e-07
2.42037e-09
1.14747e-07
2.38622e-09
1.14769e-07
2.35171e-09
1.14773e-07
2.2705e-09
1.14759e-07
2.18613e-09
1.14728e-07
2.04773e-09
1.1468e-07
1.92614e-09
1.14622e-07
1.74755e-09
1.14553e-07
1.61319e-09
1.14481e-07
1.41806e-09
1.14403e-07
1.30676e-09
1.14328e-07
1.11368e-09
1.14247e-07
1.06101e-09
8.7978e-10
1.2206e-07
9.62969e-10
-1.21991e-07
1.2214e-07
1.04617e-09
1.22231e-07
1.13875e-09
1.2233e-07
1.23724e-09
1.22437e-07
1.33555e-09
1.22548e-07
1.43251e-09
1.22665e-07
1.52549e-09
1.22787e-07
1.61916e-09
1.22911e-07
1.71061e-09
1.23032e-07
1.80203e-09
1.2315e-07
1.88166e-09
1.23262e-07
1.95596e-09
1.23372e-07
2.01908e-09
1.2348e-07
2.08743e-09
1.23584e-07
2.14823e-09
1.2368e-07
2.20377e-09
1.23773e-07
2.24436e-09
1.2386e-07
2.29105e-09
1.2394e-07
2.32008e-09
1.24011e-07
2.3492e-09
1.24074e-07
2.35643e-09
1.24125e-07
2.36906e-09
1.24165e-07
2.34704e-09
1.24188e-07
2.32782e-09
1.24196e-07
2.2629e-09
1.24184e-07
2.19846e-09
1.24156e-07
2.0756e-09
1.2411e-07
1.97178e-09
1.24054e-07
1.80392e-09
1.23985e-07
1.68175e-09
1.23914e-07
1.48949e-09
1.23835e-07
1.38594e-09
1.23758e-07
1.19032e-09
1.23676e-07
1.14324e-09
9.56008e-10
1.3229e-07
9.00249e-10
-1.32227e-07
1.32363e-07
9.73588e-10
1.32445e-07
1.05587e-09
1.32537e-07
1.14538e-09
1.32636e-07
1.23653e-09
1.32741e-07
1.32828e-09
1.3285e-07
1.41632e-09
1.32963e-07
1.50562e-09
1.33081e-07
1.593e-09
1.33199e-07
1.68355e-09
1.33316e-07
1.76545e-09
1.33428e-07
1.84372e-09
1.33537e-07
1.91003e-09
1.33645e-07
1.97933e-09
1.3375e-07
2.04286e-09
1.33849e-07
2.10492e-09
1.33944e-07
2.14981e-09
1.34033e-07
2.20138e-09
1.34116e-07
2.23707e-09
1.3419e-07
2.27556e-09
1.34256e-07
2.29054e-09
1.3431e-07
2.31464e-09
1.34352e-07
2.30512e-09
1.34379e-07
2.30123e-09
1.3439e-07
2.25193e-09
1.34381e-07
2.20773e-09
1.34356e-07
2.10052e-09
1.34313e-07
2.0145e-09
1.34259e-07
1.85785e-09
1.34192e-07
1.74884e-09
1.34121e-07
1.56024e-09
1.34042e-07
1.46521e-09
1.33964e-07
1.26781e-09
1.33881e-07
1.2268e-09
1.03401e-09
1.4336e-07
8.42148e-10
-1.43302e-07
1.43425e-07
9.07842e-10
1.43501e-07
9.80546e-10
1.43585e-07
1.061e-09
1.43677e-07
1.14458e-09
1.43774e-07
1.23097e-09
1.43876e-07
1.31443e-09
1.43982e-07
1.3995e-09
1.44093e-07
1.48239e-09
1.44207e-07
1.56992e-09
1.4432e-07
1.65188e-09
1.44431e-07
1.73257e-09
1.44539e-07
1.80186e-09
1.44646e-07
1.87256e-09
1.44752e-07
1.93691e-09
1.44853e-07
2.00425e-09
1.44949e-07
2.05392e-09
1.4504e-07
2.1101e-09
1.45126e-07
2.15121e-09
1.45202e-07
2.199e-09
1.45271e-07
2.2223e-09
1.45328e-07
2.25729e-09
1.45373e-07
2.26011e-09
1.45402e-07
2.27186e-09
1.45417e-07
2.23736e-09
1.45412e-07
2.21322e-09
1.4539e-07
2.12189e-09
1.45351e-07
2.05364e-09
1.453e-07
1.9085e-09
1.45236e-07
1.81353e-09
1.45166e-07
1.62947e-09
1.45088e-07
1.54376e-09
1.4501e-07
1.34547e-09
1.44926e-07
1.31111e-09
1.11319e-09
1.55334e-07
7.8774e-10
-1.5528e-07
1.55395e-07
8.47422e-10
1.55464e-07
9.11727e-10
1.55541e-07
9.83588e-10
1.55626e-07
1.05951e-09
1.55717e-07
1.14014e-09
1.55812e-07
1.2191e-09
1.55912e-07
1.30009e-09
1.56015e-07
1.37863e-09
1.56123e-07
1.46219e-09
1.56233e-07
1.54233e-09
1.56341e-07
1.62388e-09
1.56448e-07
1.69503e-09
1.56553e-07
1.76752e-09
1.56658e-07
1.83181e-09
1.5676e-07
1.90267e-09
1.56857e-07
1.95691e-09
1.56949e-07
2.01777e-09
1.57037e-07
2.06338e-09
1.57116e-07
2.11968e-09
1.57187e-07
2.15162e-09
1.57247e-07
2.1973e-09
1.57295e-07
2.21182e-09
1.57328e-07
2.23942e-09
1.57346e-07
2.21914e-09
1.57345e-07
2.21444e-09
1.57328e-07
2.13907e-09
1.57293e-07
2.08867e-09
1.57246e-07
1.95507e-09
1.57185e-07
1.87486e-09
1.57118e-07
1.69612e-09
1.57041e-07
1.62061e-09
1.56964e-07
1.42219e-09
1.5688e-07
1.39511e-09
1.19326e-09
1.68286e-07
7.37382e-10
-1.68236e-07
1.68343e-07
7.90304e-10
1.68407e-07
8.4818e-10
1.68478e-07
9.12481e-10
1.68557e-07
9.81019e-10
1.68641e-07
1.05566e-09
1.6873e-07
1.1298e-09
1.68824e-07
1.20667e-09
1.68921e-07
1.28101e-09
1.69023e-07
1.36054e-09
1.69128e-07
1.43773e-09
1.69233e-07
1.5188e-09
1.69337e-07
1.59047e-09
1.6944e-07
1.6643e-09
1.69544e-07
1.72843e-09
1.69645e-07
1.80146e-09
1.69743e-07
1.85937e-09
1.69836e-07
1.92479e-09
1.69925e-07
1.9744e-09
1.70006e-07
2.03829e-09
1.70079e-07
2.07849e-09
1.70142e-07
2.13483e-09
1.70193e-07
2.16032e-09
1.70229e-07
2.2035e-09
1.70251e-07
2.19713e-09
1.70254e-07
2.21112e-09
1.70242e-07
2.15138e-09
1.70212e-07
2.11897e-09
1.7017e-07
1.99693e-09
1.70113e-07
1.93191e-09
1.7005e-07
1.75926e-09
1.69976e-07
1.69474e-09
1.69901e-07
1.49704e-09
1.69818e-07
1.47773e-09
1.27299e-09
6.5571e-07
5.94306e-10
-6.55567e-07
6.55867e-07
6.3349e-10
6.56038e-07
6.77324e-10
6.56225e-07
7.2534e-10
6.5643e-07
7.75431e-10
6.56654e-07
8.31853e-10
6.56895e-07
8.89092e-10
6.5715e-07
9.51528e-10
6.57418e-07
1.01253e-09
6.57699e-07
1.08036e-09
6.57992e-07
1.14436e-09
6.58295e-07
1.21561e-09
6.58606e-07
1.27962e-09
6.58919e-07
1.35117e-09
6.59235e-07
1.41246e-09
6.5955e-07
1.4861e-09
6.59863e-07
1.547e-09
6.60165e-07
1.62301e-09
6.60457e-07
1.6825e-09
6.6073e-07
1.76444e-09
6.60984e-07
1.82479e-09
6.61206e-07
1.91268e-09
6.61398e-07
1.96848e-09
6.61546e-07
2.05599e-09
6.61652e-07
2.09044e-09
6.61705e-07
2.15805e-09
6.61713e-07
2.14391e-09
6.61663e-07
2.16896e-09
6.61574e-07
2.08527e-09
6.61436e-07
2.07066e-09
6.61271e-07
1.92381e-09
6.61066e-07
1.89957e-09
6.60851e-07
1.71209e-09
6.60607e-07
1.72157e-09
1.51441e-09
7.09617e-07
4.85997e-10
-7.09509e-07
7.09732e-07
5.18579e-10
7.09856e-07
5.53545e-10
7.09989e-07
5.92241e-10
7.10133e-07
6.31476e-10
7.10289e-07
6.76161e-10
7.10457e-07
7.21183e-10
7.10636e-07
7.72092e-10
7.10828e-07
8.20862e-10
7.11032e-07
8.76463e-10
7.11248e-07
9.28014e-10
7.11475e-07
9.88399e-10
7.11713e-07
1.04221e-09
7.11957e-07
1.1071e-09
7.12207e-07
1.16228e-09
7.1246e-07
1.2326e-09
7.12717e-07
1.29068e-09
7.1297e-07
1.36954e-09
7.1322e-07
1.43257e-09
7.13461e-07
1.52393e-09
7.13691e-07
1.59447e-09
7.13903e-07
1.70107e-09
7.14095e-07
1.77557e-09
7.1426e-07
1.89143e-09
7.14397e-07
1.9533e-09
7.14497e-07
2.05809e-09
7.14564e-07
2.07689e-09
7.14588e-07
2.14514e-09
7.14579e-07
2.09464e-09
7.14527e-07
2.12185e-09
7.14449e-07
2.0026e-09
7.14334e-07
2.01452e-09
7.14202e-07
1.84382e-09
7.14046e-07
1.87791e-09
1.67311e-09
7.67556e-07
4.02203e-10
-7.67473e-07
7.67646e-07
4.29115e-10
7.67742e-07
4.57422e-10
7.67845e-07
4.89293e-10
7.67955e-07
5.20962e-10
7.68074e-07
5.57229e-10
7.68203e-07
5.92685e-10
7.68341e-07
6.34019e-10
7.68489e-07
6.73006e-10
7.68646e-07
7.19257e-10
7.68813e-07
7.61219e-10
7.68989e-07
8.12725e-10
7.69173e-07
8.57744e-10
7.69365e-07
9.1544e-10
7.69563e-07
9.63847e-10
7.69766e-07
1.02936e-09
7.69974e-07
1.08286e-09
7.70184e-07
1.16003e-09
7.70394e-07
1.22201e-09
7.70602e-07
1.31607e-09
7.70807e-07
1.38993e-09
7.71003e-07
1.50498e-09
7.71189e-07
1.58884e-09
7.71361e-07
1.72033e-09
7.71515e-07
1.79842e-09
7.71647e-07
1.92644e-09
7.71756e-07
1.96756e-09
7.71836e-07
2.06516e-09
7.7189e-07
2.04073e-09
7.71913e-07
2.0992e-09
7.71911e-07
2.00456e-09
7.71882e-07
2.04371e-09
7.71834e-07
1.89177e-09
7.71768e-07
1.94331e-09
1.74509e-09
8.3003e-07
3.34348e-10
-8.29962e-07
8.30102e-07
3.56503e-10
8.3018e-07
3.79514e-10
8.30264e-07
4.05817e-10
8.30353e-07
4.31604e-10
8.30449e-07
4.61596e-10
8.30551e-07
4.9026e-10
8.30661e-07
5.24469e-10
8.30778e-07
5.56117e-10
8.30902e-07
5.95094e-10
8.31033e-07
6.29855e-10
8.31171e-07
6.74372e-10
8.31317e-07
7.12393e-10
8.31469e-07
7.63489e-10
8.31627e-07
8.05519e-10
8.31791e-07
8.65413e-10
8.3196e-07
9.13546e-10
8.32134e-07
9.86405e-10
8.32311e-07
1.04453e-09
8.32491e-07
1.13634e-09
8.32672e-07
1.20864e-09
8.32853e-07
1.32439e-09
8.33032e-07
1.41006e-09
8.33206e-07
1.54645e-09
8.33373e-07
1.63106e-09
8.3353e-07
1.76954e-09
8.33674e-07
1.82313e-09
8.33802e-07
1.93727e-09
8.33912e-07
1.93111e-09
8.34001e-07
2.01033e-09
8.34069e-07
1.93681e-09
8.34116e-07
1.99619e-09
8.34144e-07
1.86413e-09
8.34158e-07
1.92914e-09
1.74606e-09
8.97506e-07
2.77479e-10
-8.9745e-07
8.97567e-07
2.9597e-10
8.97632e-07
3.14921e-10
8.97701e-07
3.36862e-10
8.97774e-07
3.58145e-10
8.97852e-07
3.83318e-10
8.97935e-07
4.07035e-10
8.98024e-07
4.35944e-10
8.98118e-07
4.62245e-10
8.98217e-07
4.95547e-10
8.98323e-07
5.24643e-10
8.98434e-07
5.63085e-10
8.98551e-07
5.95149e-10
8.98675e-07
6.39917e-10
8.98804e-07
6.75891e-10
8.9894e-07
7.29415e-10
8.99082e-07
7.71631e-10
8.9923e-07
8.38281e-10
8.99384e-07
8.90865e-10
8.99544e-07
9.76893e-10
8.99708e-07
1.04439e-09
8.99877e-07
1.15519e-09
9.00049e-07
1.23758e-09
9.00225e-07
1.37099e-09
9.004e-07
1.45561e-09
9.00575e-07
1.59511e-09
9.00744e-07
1.65439e-09
9.00905e-07