# vtk DataFile Version 2.0
bottomWall
ASCII
DATASET POLYDATA
POINTS 900 float
0 0 0 0.000971417 0 0 0.000971417 0 0.1 0 0
0.1 0.00194513 0 0 0.00194513 0 0.1 0.00292113 0 0
0.00292113 0 0.1 0.00389944 0 0 0.00389944 0 0.1 0.00488006
0 0 0.00488006 0 0.1 0.005863 0 0 0.005863 0
0.1 0.00684825 0 0 0.00684825 0 0.1 0.00783583 0 0
0.00783583 0 0.1 0.00882574 0 0 0.00882574 0 0.1 0.00981799
0 0 0.00981799 0 0.1 0.0108126 0 0 0.0108126 0
0.1 0.0118095 0 0 0.0118095 0 0.1 0.0128088 0 0
0.0128088 0 0.1 0.0138104 0 0 0.0138104 0 0.1 0.0148145
0 0 0.0148145 0 0.1 0.0158208 0 0 0.0158208 0
0.1 0.0168296 0 0 0.0168296 0 0.1 0.0178407 0 0
0.0178407 0 0.1 0.0188543 0 0 0.0188543 0 0.1 0.0198702
0 0 0.0198702 0 0.1 0.0208885 0 0 0.0208885 0
0.1 0.0219092 0 0 0.0219092 0 0.1 0.0229323 0 0
0.0229323 0 0.1 0.0239579 0 0 0.0239579 0 0.1 0.0249858
0 0 0.0249858 0 0.1 0.0260162 0 0 0.0260162 0
0.1 0.027049 0 0 0.027049 0 0.1 0.0280843 0 0
0.0280843 0 0.1 0.029122 0 0 0.029122 0 0.1 0.0301621
0 0 0.0301621 0 0.1 0.0312047 0 0 0.0312047 0
0.1 0.0322498 0 0 0.0322498 0 0.1 0.0332973 0 0
0.0332973 0 0.1 0.0343473 0 0 0.0343473 0 0.1 0.0353998
0 0 0.0353998 0 0.1 0.0364548 0 0 0.0364548 0
0.1 0.0375122 0 0 0.0375122 0 0.1 0.0385722 0 0
0.0385722 0 0.1 0.0396346 0 0 0.0396346 0 0.1 0.0406996
0 0 0.0406996 0 0.1 0.0417671 0 0 0.0417671 0
0.1 0.0428371 0 0 0.0428371 0 0.1 0.0439096 0 0
0.0439096 0 0.1 0.0449846 0 0 0.0449846 0 0.1 0.0460622
0 0 0.0460622 0 0.1 0.0471424 0 0 0.0471424 0
0.1 0.048225 0 0 0.048225 0 0.1 0.0493103 0 0
0.0493103 0 0.1 0.0503981 0 0 0.0503981 0 0.1 0.0514884
0 0 0.0514884 0 0.1 0.0525814 0 0 0.0525814 0
0.1 0.0536769 0 0 0.0536769 0 0.1 0.054775 0 0
0.054775 0 0.1 0.0558757 0 0 0.0558757 0 0.1 0.056979
0 0 0.056979 0 0.1 0.0580849 0 0 0.0580849 0
0.1 0.0591934 0 0 0.0591934 0 0.1 0.0603045 0 0
0.0603045 0 0.1 0.0614182 0 0 0.0614182 0 0.1 0.0625346
0 0 0.0625346 0 0.1 0.0636536 0 0 0.0636536 0
0.1 0.0647753 0 0 0.0647753 0 0.1 0.0658996 0 0
0.0658996 0 0.1 0.0670265 0 0 0.0670265 0 0.1 0.0681561
0 0 0.0681561 0 0.1 0.0692884 0 0 0.0692884 0
0.1 0.0704233 0 0 0.0704233 0 0.1 0.0715609 0 0
0.0715609 0 0.1 0.0727013 0 0 0.0727013 0 0.1 0.0738443
0 0 0.0738443 0 0.1 0.07499 0 0 0.07499 0
0.1 0.0761384 0 0 0.0761384 0 0.1 0.0772895 0 0
0.0772895 0 0.1 0.0784433 0 0 0.0784433 0 0.1 0.0795999
0 0 0.0795999 0 0.1 0.0807591 0 0 0.0807591 0
0.1 0.0819212 0 0 0.0819212 0 0.1 0.0830859 0 0
0.0830859 0 0.1 0.0842534 0 0 0.0842534 0 0.1 0.0854237
0 0 0.0854237 0 0.1 0.0865967 0 0 0.0865967 0
0.1 0.0877725 0 0 0.0877725 0 0.1 0.0889511 0 0
0.0889511 0 0.1 0.0901325 0 0 0.0901325 0 0.1 0.0913166
0 0 0.0913166 0 0.1 0.0925035 0 0 0.0925035 0
0.1 0.0936933 0 0 0.0936933 0 0.1 0.0948858 0 0
0.0948858 0 0.1 0.0960812 0 0 0.0960812 0 0.1 0.0972794
0 0 0.0972794 0 0.1 0.0984804 0 0 0.0984804 0
0.1 0.0996842 0 0 0.0996842 0 0.1 0.100891 0 0
0.100891 0 0.1 0.1021 0 0 0.1021 0 0.1 0.103313
0 0 0.103313 0 0.1 0.104528 0 0 0.104528 0
0.1 0.105746 0 0 0.105746 0 0.1 0.106967 0 0
0.106967 0 0.1 0.108191 0 0 0.108191 0 0.1 0.109418
0 0 0.109418 0 0.1 0.110647 0 0 0.110647 0
0.1 0.11188 0 0 0.11188 0 0.1 0.113115 0 0
0.113115 0 0.1 0.114354 0 0 0.114354 0 0.1 0.115595
0 0 0.115595 0 0.1 0.116839 0 0 0.116839 0
0.1 0.118087 0 0 0.118087 0 0.1 0.119337 0 0
0.119337 0 0.1 0.12059 0 0 0.12059 0 0.1 0.121846
0 0 0.121846 0 0.1 0.123105 0 0 0.123105 0
0.1 0.124367 0 0 0.124367 0 0.1 0.125632 0 0
0.125632 0 0.1 0.1269 0 0 0.1269 0 0.1 0.128171
0 0 0.128171 0 0.1 0.129444 0 0 0.129444 0
0.1 0.130721 0 0 0.130721 0 0.1 0.132001 0 0
0.132001 0 0.1 0.133284 0 0 0.133284 0 0.1 0.13457
0 0 0.13457 0 0.1 0.135859 0 0 0.135859 0
0.1 0.137151 0 0 0.137151 0 0.1 0.138446 0 0
0.138446 0 0.1 0.139745 0 0 0.139745 0 0.1 0.141046
0 0 0.141046 0 0.1 0.14235 0 0 0.14235 0
0.1 0.143658 0 0 0.143658 0 0.1 0.144968 0 0
0.144968 0 0.1 0.146282 0 0 0.146282 0 0.1 0.147598
0 0 0.147598 0 0.1 0.148918 0 0 0.148918 0
0.1 0.150241 0 0 0.150241 0 0.1 0.151567 0 0
0.151567 0 0.1 0.152896 0 0 0.152896 0 0.1 0.154228
0 0 0.154228 0 0.1 0.155564 0 0 0.155564 0
0.1 0.156902 0 0 0.156902 0 0.1 0.158244 0 0
0.158244 0 0.1 0.159589 0 0 0.159589 0 0.1 0.160937
0 0 0.160937 0 0.1 0.162288 0 0 0.162288 0
0.1 0.163643 0 0 0.163643 0 0.1 0.165 0 0
0.165 0 0.1 0.166361 0 0 0.166361 0 0.1 0.167725
0 0 0.167725 0 0.1 0.169092 0 0 0.169092 0
0.1 0.170463 0 0 0.170463 0 0.1 0.171837 0 0
0.171837 0 0.1 0.173214 0 0 0.173214 0 0.1 0.174594
0 0 0.174594 0 0.1 0.175977 0 0 0.175977 0
0.1 0.177364 0 0 0.177364 0 0.1 0.178754 0 0
0.178754 0 0.1 0.180147 0 0 0.180147 0 0.1 0.181544
0 0 0.181544 0 0.1 0.182944 0 0 0.182944 0
0.1 0.184347 0 0 0.184347 0 0.1 0.185754 0 0
0.185754 0 0.1 0.187163 0 0 0.187163 0 0.1 0.188577
0 0 0.188577 0 0.1 0.189993 0 0 0.189993 0
0.1 0.191413 0 0 0.191413 0 0.1 0.192836 0 0
0.192836 0 0.1 0.194263 0 0 0.194263 0 0.1 0.195692
0 0 0.195692 0 0.1 0.197126 0 0 0.197126 0
0.1 0.198562 0 0 0.198562 0 0.1 0.200002 0 0
0.200002 0 0.1 0.201446 0 0 0.201446 0 0.1 0.202893
0 0 0.202893 0 0.1 0.204343 0 0 0.204343 0
0.1 0.205797 0 0 0.205797 0 0.1 0.207254 0 0
0.207254 0 0.1 0.208552 0 0 0.208552 0 0.1 0.209863
0 0 0.209863 0 0.1 0.211189 0 0 0.211189 0
0.1 0.21253 0 0 0.21253 0 0.1 0.213885 0 0
0.213885 0 0.1 0.215254 0 0 0.215254 0 0.1 0.216639
0 0 0.216639 0 0.1 0.218038 0 0 0.218038 0
0.1 0.219453 0 0 0.219453 0 0.1 0.220884 0 0
0.220884 0 0.1 0.222329 0 0 0.222329 0 0.1 0.223791
0 0 0.223791 0 0.1 0.225268 0 0 0.225268 0
0.1 0.226762 0 0 0.226762 0 0.1 0.228271 0 0
0.228271 0 0.1 0.229797 0 0 0.229797 0 0.1 0.23134
0 0 0.23134 0 0.1 0.232899 0 0 0.232899 0
0.1 0.234476 0 0 0.234476 0 0.1 0.236069 0 0
0.236069 0 0.1 0.23768 0 0 0.23768 0 0.1 0.239308
0 0 0.239308 0 0.1 0.240954 0 0 0.240954 0
0.1 0.242618 0 0 0.242618 0 0.1 0.2443 0 0
0.2443 0 0.1 0.246001 0 0 0.246001 0 0.1 0.247719
0 0 0.247719 0 0.1 0.249457 0 0 0.249457 0
0.1 0.251213 0 0 0.251213 0 0.1 0.252988 0 0
0.252988 0 0.1 0.254783 0 0 0.254783 0 0.1 0.256597
0 0 0.256597 0 0.1 0.258431 0 0 0.258431 0
0.1 0.260285 0 0 0.260285 0 0.1 0.262159 0 0
0.262159 0 0.1 0.264054 0 0 0.264054 0 0.1 0.265969
0 0 0.265969 0 0.1 0.267904 0 0 0.267904 0
0.1 0.269861 0 0 0.269861 0 0.1 0.271839 0 0
0.271839 0 0.1 0.273839 0 0 0.273839 0 0.1 0.27586
0 0 0.27586 0 0.1 0.277904 0 0 0.277904 0
0.1 0.279969 0 0 0.279969 0 0.1 0.282057 0 0
0.282057 0 0.1 0.284168 0 0 0.284168 0 0.1 0.286302
0 0 0.286302 0 0.1 0.288458 0 0 0.288458 0
0.1 0.290639 0 0 0.290639 0 0.1 0.292843 0 0
0.292843 0 0.1 0.29507 0 0 0.29507 0 0.1 0.297323
0 0 0.297323 0 0.1 0.299599 0 0 0.299599 0
0.1 0.301901 0 0 0.301901 0 0.1 0.304227 0 0
0.304227 0 0.1 0.306578 0 0 0.306578 0 0.1 0.308956
0 0 0.308956 0 0.1 0.311359 0 0 0.311359 0
0.1 0.313788 0 0 0.313788 0 0.1 0.316243 0 0
0.316243 0 0.1 0.318726 0 0 0.318726 0 0.1 0.321235
0 0 0.321235 0 0.1 0.323771 0 0 0.323771 0
0.1 0.326336 0 0 0.326336 0 0.1 0.328927 0 0
0.328927 0 0.1 0.331548 0 0 0.331548 0 0.1 0.334196
0 0 0.334196 0 0.1 0.336874 0 0 0.336874 0
0.1 0.33958 0 0 0.33958 0 0.1 0.342316 0 0
0.342316 0 0.1 0.345082 0 0 0.345082 0 0.1 0.347877
0 0 0.347877 0 0.1 0.350703 0 0 0.350703 0
0.1 0.35356 0 0 0.35356 0 0.1 0.356448 0 0
0.356448 0 0.1 0.359367 0 0 0.359367 0 0.1 0.362318
0 0 0.362318 0 0.1 0.365301 0 0 0.365301 0
0.1 0.368317 0 0 0.368317 0 0.1 0.371365 0 0
0.371365 0 0.1 0.374446 0 0 0.374446 0 0.1 0.377561
0 0 0.377561 0 0.1 0.38071 0 0 0.38071 0
0.1 0.383893 0 0 0.383893 0 0.1 0.387111 0 0
0.387111 0 0.1 0.390363 0 0 0.390363 0 0.1 0.393651
0 0 0.393651 0 0.1 0.396975 0 0 0.396975 0
0.1 0.400334 0 0 0.400334 0 0.1 0.403731 0 0
0.403731 0 0.1 0.407164 0 0 0.407164 0 0.1 0.410634
0 0 0.410634 0 0.1 0.414142 0 0 0.414142 0
0.1 0.417689 0 0 0.417689 0 0.1 0.421274 0 0
0.421274 0 0.1 0.424898 0 0 0.424898 0 0.1 0.428561
0 0 0.428561 0 0.1 0.432264 0 0 0.432264 0
0.1 0.436007 0 0 0.436007 0 0.1 0.439791 0 0
0.439791 0 0.1 0.443616 0 0 0.443616 0 0.1 0.447483
0 0 0.447483 0 0.1 0.451392 0 0 0.451392 0
0.1 0.455343 0 0 0.455343 0 0.1 0.459337 0 0
0.459337 0 0.1 0.463375 0 0 0.463375 0 0.1 0.467456
0 0 0.467456 0 0.1 0.471582 0 0 0.471582 0
0.1 0.475753 0 0 0.475753 0 0.1 0.479969 0 0
0.479969 0 0.1 0.48423 0 0 0.48423 0 0.1 0.488539
0 0 0.488539 0 0.1 0.492894 0 0 0.492894 0
0.1 0.497296 0 0 0.497296 0 0.1 0.501746 0 0
0.501746 0 0.1 0.506245 0 0 0.506245 0 0.1 0.510792
0 0 0.510792 0 0.1 0.515389 0 0 0.515389 0
0.1 0.520036 0 0 0.520036 0 0.1 0.524733 0 0
0.524733 0 0.1 0.529481 0 0 0.529481 0 0.1 0.534281
0 0 0.534281 0 0.1 0.539134 0 0 0.539134 0
0.1 0.544038 0 0 0.544038 0 0.1 0.548997 0 0
0.548997 0 0.1 0.554009 0 0 0.554009 0 0.1 0.559075
0 0 0.559075 0 0.1 0.564197 0 0 0.564197 0
0.1 0.569374 0 0 0.569374 0 0.1 0.574608 0 0
0.574608 0 0.1 0.579898 0 0 0.579898 0 0.1 0.585246
0 0 0.585246 0 0.1 0.590653 0 0 0.590653 0
0.1 0.596117 0 0 0.596117 0 0.1 0.601642 0 0
0.601642 0 0.1 0.607226 0 0 0.607226 0 0.1 0.612871
0 0 0.612871 0 0.1 0.618577 0 0 0.618577 0
0.1 0.624346 0 0 0.624346 0 0.1 0.630177 0 0
0.630177 0 0.1 0.636071 0 0 0.636071 0 0.1 0.64203
0 0 0.64203 0 0.1 0.648053 0 0 0.648053 0
0.1 0.654142 0 0 0.654142 0 0.1 0.660297 0 0
0.660297 0 0.1 0.666519 0 0 0.666519 0 0.1 0.672808
0 0 0.672808 0 0.1 0.679166 0 0 0.679166 0
0.1 0.685593 0 0 0.685593 0 0.1 0.69209 0 0
0.69209 0 0.1 0.698657 0 0 0.698657 0 0.1 0.705296
0 0 0.705296 0 0.1 0.712007 0 0 0.712007 0
0.1 0.718791 0 0 0.718791 0 0.1 0.725649 0 0
0.725649 0 0.1 0.732581 0 0 0.732581 0 0.1 0.739588
0 0 0.739588 0 0.1 0.746672 0 0 0.746672 0
0.1 0.753833 0 0 0.753833 0 0.1 0.761071 0 0
0.761071 0 0.1 0.768389 0 0 0.768389 0 0.1 0.775785
0 0 0.775785 0 0.1 0.783262 0 0 0.783262 0
0.1 0.790821 0 0 0.790821 0 0.1 0.798461 0 0
0.798461 0 0.1 0.806185 0 0 0.806185 0 0.1 0.813993
0 0 0.813993 0 0.1 0.821885 0 0 0.821885 0
0.1 0.829863 0 0 0.829863 0 0.1 0.837928 0 0
0.837928 0 0.1 0.846081 0 0 0.846081 0 0.1 0.854322
0 0 0.854322 0 0.1 0.862653 0 0 0.862653 0
0.1 0.871074 0 0 0.871074 0 0.1 0.879587 0 0
[...]
CELL_DATA 449
FIELD attributes 6
patchID 1 449 float
3 3 3 3 3 3 3 3 3 3 3
3 3 3 3 3 3 3 3 3 3
3 3 3 3 3 3 3 3 3 3
3 3 3 3 3 3 3 3 3 3
3 3 3 3 3 3 3 3 3 3
3 3 3 3 3 3 3 3 3 3
3 3 3 3 3 3 3 3 3 3
3 3 3 3 3 3 3 3 3 3
3 3 3 3 3 3 3 3 3 3
3 3 3 3 3 3 3 3 3 3
3 3 3 3 3 3 3 3 3 3
3 3 3 3 3 3 3 3 3 3
3 3 3 3 3 3 3 3 3 3
3 3 3 3 3 3 3 3 3 3
3 3 3 3 3 3 3 3 3 3
3 3 3 3 3 3 3 3 3 3
3 3 3 3 3 3 3 3 3 3
3 3 3 3 3 3 3 3 3 3
3 3 3 3 3 3 3 3 3 3
3 3 3 3 3 3 3 3 3 3
3 3 3 3 3 3 3 3 3 3
3 3 3 3 3 3 3 3 3 3
3 3 3 3 3 3 3 3 3 3
3 3 3 3 3 3 3 3 3 3
3 3 3 3 3 3 3 3 3 3
3 3 3 3 3 3 3 3 3 3
3 3 3 3 3 3 3 3 3 3
3 3 3 3 3 3 3 3 3 3
3 3 3 3 3 3 3 3 3 3
3 3 3 3 3 3 3 3 3 3
3 3 3 3 3 3 3 3 3 3
3 3 3 3 3 3 3 3 3 3
3 3 3 3 3 3 3 3 3 3
3 3 3 3 3 3 3 3 3 3
3 3 3 3 3 3 3 3 3 3
3 3 3 3 3 3 3 3 3 3
3 3 3 3 3 3 3 3 3 3
3 3 3 3 3 3 3 3 3 3
3 3 3 3 3 3 3 3 3 3
3 3 3 3 3 3 3 3 3 3
3 3 3 3 3 3 3 3 3 3
3 3 3 3 3 3 3 3 3 3
3 3 3 3 3 3 3 3 3 3
3 3 3 3 3 3 3 3 3 3
3 3 3 3 3 3 3 3 
p 1 449 float
0 0 0 0 0 0 0 0 0 0 0
0 0 0 0 0 0 0 0 0 0
0 0 0 0 0 0 0 0 0 0
0 0 0 0 0 0 0 0 0 0
0 0 0 0 0 0 0 0 0 0
0 0 0 0 0 0 0 0 0 0
0 0 0 0 0 0 0 0 0 0
0 0 0 0 0 0 0 0 0 0
0 0 0 0 0 0 0 0 0 0
0 0 0 0 0 0 0 0 0 0
0 0 0 0 0 0 0 0 0 0
0 0 0 0 0 0 0 0 0 0
0 0 0 0 0 0 0 0 0 0
0 0 0 0 0 0 0 0 0 0
0 0 0 0 0 0 0 0 0 0
0 0 0 0 0 0 0 0 0 0
0 0 0 0 0 0 0 0 0 0
0 0 0 0 0 0 0 0 0 0
0 0 0 0 0 0 0 0 0 0
0 0 0 0 0 0 0 0 0 0
0 0 0 0 0 0 0 0 0 0
0 0 0 0 0 0 0 0 0 0
0 0 0 0 0 0 0 0 0 0
0 0 0 0 0 0 0 0 0 0
0 0 0 0 0 0 0 0 0 0
0 0 0 0 0 0 0 0 0 0
0 0 0 0 0 0 0 0 0 0
0 0 0 0 0 0 0 0 0 0
0 0 0 0 0 0 0 0 0 0
0 0 0 0 0 0 0 0 0 0
0 0 0 0 0 0 0 0 0 0
0 0 0 0 0 0 0 0 0 0
0 0 0 0 0 0 0 0 0 0
0 0 0 0 0 0 0 0 0 0
0 0 0 0 0 0 0 0 0 0
0 0 0 0 0 0 0 0 0 0
0 0 0 0 0 0 0 0 0 0
0 0 0 0 0 0 0 0 0 0
0 0 0 0 0 0 0 0 0 0
0 0 0 0 0 0 0 0 0 0
0 0 0 0 0 0 0 0 0 0
0 0 0 0 0 0 0 0 0 0
0 0 0 0 0 0 0 0 0 0
0 0 0 0 0 0 0 0 0 0
0 0 0 0 0 0 0 0 
nut 1 449 float
1.25e-07 1.25e-07 1.25e-07 1.25e-07 1.25e-07 1.25e-07 1.25e-07 1.25e-07 1.25e-07 1.25e-07 1.25e-07
1.25e-07 1.25e-07 1.25e-07 1.25e-07 1.25e-07 1.25e-07 1.25e-07 1.25e-07 1.25e-07 1.25e-07
1.25e-07 1.25e-07 1.25e-07 1.25e-07 1.25e-07 1.25e-07 1.25e-07 1.25e-07 1.25e-07 1.25e-07
1.25e-07 1.25e-07 1.25e-07 1.25e-07 1.25e-07 1.25e-07 1.25e-07 1.25e-07 1.25e-07 1.25e-07
1.25e-07 1.25e-07 1.25e-07 1.25e-07 1.25e-07 1.25e-07 1.25e-07 1.25e-07 1.25e-07 1.25e-07
1.25e-07 1.25e-07 1.25e-07 1.25e-07 1.25e-07 1.25e-07 1.25e-07 1.25e-07 1.25e-07 1.25e-07
1.25e-07 1.25e-07 1.25e-07 1.25e-07 1.25e-07 1.25e-07 1.25e-07 1.25e-07 1.25e-07 1.25e-07
1.25e-07 1.25e-07 1.25e-07 1.25e-07 1.25e-07 1.25e-07 1.25e-07 1.25e-07 1.25e-07 1.25e-07
1.25e-07 1.25e-07 1.25e-07 1.25e-07 1.25e-07 1.25e-07 1.25e-07 1.25e-07 1.25e-07 1.25e-07
1.25e-07 1.25e-07 1.25e-07 1.25e-07 1.25e-07 1.25e-07 1.25e-07 1.25e-07 1.25e-07 1.25e-07
1.25e-07 1.25e-07 1.25e-07 1.25e-07 1.25e-07 1.25e-07 1.25e-07 1.25e-07 1.25e-07 1.25e-07
1.25e-07 1.25e-07 1.25e-07 1.25e-07 1.25e-07 1.25e-07 1.25e-07 1.25e-07 1.25e-07 1.25e-07
1.25e-07 1.25e-07 1.25e-07 1.25e-07 1.25e-07 1.25e-07 1.25e-07 1.25e-07 1.25e-07 1.25e-07
1.25e-07 1.25e-07 1.25e-07 1.25e-07 1.25e-07 1.25e-07 1.25e-07 1.25e-07 1.25e-07 1.25e-07
1.25e-07 1.25e-07 1.25e-07 1.25e-07 1.25e-07 1.25e-07 1.25e-07 1.25e-07 1.25e-07 1.25e-07
1.25e-07 1.25e-07 1.25e-07 1.25e-07 1.25e-07 1.25e-07 1.25e-07 1.25e-07 1.25e-07 1.25e-07
1.25e-07 1.25e-07 1.25e-07 1.25e-07 1.25e-07 1.25e-07 1.25e-07 1.25e-07 1.25e-07 1.25e-07
1.25e-07 1.25e-07 1.25e-07 1.25e-07 1.25e-07 1.25e-07 1.25e-07 1.25e-07 1.25e-07 1.25e-07
1.25e-07 1.25e-07 1.25e-07 1.25e-07 1.25e-07 1.25e-07 1.25e-07 1.25e-07 1.25e-07 1.25e-07
1.25e-07 1.25e-07 1.25e-07 1.25e-07 1.25e-07 1.25e-07 1.25e-07 1.25e-07 1.25e-07 1.25e-07
1.25e-07 1.25e-07 1.25e-07 1.25e-07 1.25e-07 1.25e-07 1.25e-07 1.25e-07 1.25e-07 1.25e-07
1.25e-07 1.25e-07 1.25e-07 1.25e-07 1.25e-07 1.25e-07 1.25e-07 1.25e-07 1.25e-07 1.25e-07
1.25e-07 1.25e-07 1.25e-07 1.25e-07 1.25e-07 1.25e-07 1.25e-07 1.25e-07 1.25e-07 1.25e-07
1.25e-07 1.25e-07 1.25e-07 1.25e-07 1.25e-07 1.25e-07 1.25e-07 1.25e-07 1.25e-07 1.25e-07
1.25e-07 1.25e-07 1.25e-07 1.25e-07 1.25e-07 1.25e-07 1.25e-07 1.25e-07 1.25e-07 1.25e-07
1.25e-07 1.25e-07 1.25e-07 1.25e-07 1.25e-07 1.25e-07 1.25e-07 1.25e-07 1.25e-07 1.25e-07
1.25e-07 1.25e-07 1.25e-07 1.25e-07 1.25e-07 1.25e-07 1.25e-07 1.25e-07 1.25e-07 1.25e-07
1.25e-07 1.25e-07 1.25e-07 1.25e-07 1.25e-07 1.25e-07 1.25e-07 1.25e-07 1.25e-07 1.25e-07
1.25e-07 1.25e-07 1.25e-07 1.25e-07 1.25e-07 1.25e-07 1.25e-07 1.25e-07 1.25e-07 1.25e-07
1.25e-07 1.25e-07 1.25e-07 1.25e-07 1.25e-07 1.25e-07 1.25e-07 1.25e-07 1.25e-07 1.25e-07
1.25e-07 1.25e-07 1.25e-07 1.25e-07 1.25e-07 1.25e-07 1.25e-07 1.25e-07 1.25e-07 1.25e-07
1.25e-07 1.25e-07 1.25e-07 1.25e-07 1.25e-07 1.25e-07 1.25e-07 1.25e-07 1.25e-07 1.25e-07
1.25e-07 1.25e-07 1.25e-07 1.25e-07 1.25e-07 1.25e-07 1.25e-07 1.25e-07 1.25e-07 1.25e-07
1.25e-07 1.25e-07 1.25e-07 1.25e-07 1.25e-07 1.25e-07 1.25e-07 1.25e-07 1.25e-07 1.25e-07
1.25e-07 1.25e-07 1.25e-07 1.25e-07 1.25e-07 1.25e-07 1.25e-07 1.25e-07 1.25e-07 1.25e-07
1.25e-07 1.25e-07 1.25e-07 1.25e-07 1.25e-07 1.25e-07 1.25e-07 1.25e-07 1.25e-07 1.25e-07
1.25e-07 1.25e-07 1.25e-07 1.25e-07 1.25e-07 1.25e-07 1.25e-07 1.25e-07 1.25e-07 1.25e-07
1.25e-07 1.25e-07 1.25e-07 1.25e-07 1.25e-07 1.25e-07 1.25e-07 1.25e-07 1.25e-07 1.25e-07
1.25e-07 1.25e-07 1.25e-07 1.25e-07 1.25e-07 1.25e-07 1.25e-07 1.25e-07 1.25e-07 1.25e-07
1.25e-07 1.25e-07 1.25e-07 1.25e-07 1.25e-07 1.25e-07 1.25e-07 1.25e-07 1.25e-07 1.25e-07
1.25e-07 1.25e-07 1.25e-07 1.25e-07 1.25e-07 1.25e-07 1.25e-07 1.25e-07 1.25e-07 1.25e-07
1.25e-07 1.25e-07 1.25e-07 1.25e-07 1.25e-07 1.25e-07 1.25e-07 1.25e-07 1.25e-07 1.25e-07
1.25e-07 1.25e-07 1.25e-07 1.25e-07 1.25e-07 1.25e-07 1.25e-07 1.25e-07 1.25e-07 1.25e-07
1.25e-07 1.25e-07 1.25e-07 1.25e-07 1.25e-07 1.25e-07 1.25e-07 1.25e-07 1.25e-07 1.25e-07
1.25e-07 1.25e-07 1.25e-07 1.25e-07 1.25e-07 1.25e-07 1.25e-07 1.25e-07 
k 1 449 float
0.00108 0.00108 0.00108 0.00108 0.00108 0.00108 0.00108 0.00108 0.00108 0.00108 0.00108
0.00108 0.00108 0.00108 0.00108 0.00108 0.00108 0.00108 0.00108 0.00108 0.00108
0.00108 0.00108 0.00108 0.00108 0.00108 0.00108 0.00108 0.00108 0.00108 0.00108
0.00108 0.00108 0.00108 0.00108 0.00108 0.00108 0.00108 0.00108 0.00108 0.00108
0.00108 0.00108 0.00108 0.00108 0.00108 0.00108 0.00108 0.00108 0.00108 0.00108
0.00108 0.00108 0.00108 0.00108 0.00108 0.00108 0.00108 0.00108 0.00108 0.00108
0.00108 0.00108 0.00108 0.00108 0.00108 0.00108 0.00108 0.00108 0.00108 0.00108
0.00108 0.00108 0.00108 0.00108 0.00108 0.00108 0.00108 0.00108 0.00108 0.00108
0.00108 0.00108 0.00108 0.00108 0.00108 0.00108 0.00108 0.00108 0.00108 0.00108
0.00108 0.00108 0.00108 0.00108 0.00108 0.00108 0.00108 0.00108 0.00108 0.00108
0.00108 0.00108 0.00108 0.00108 0.00108 0.00108 0.00108 0.00108 0.00108 0.00108
0.00108 0.00108 0.00108 0.00108 0.00108 0.00108 0.00108 0.00108 0.00108 0.00108
0.00108 0.00108 0.00108 0.00108 0.00108 0.00108 0.00108 0.00108 0.00108 0.00108
0.00108 0.00108 0.00108 0.00108 0.00108 0.00108 0.00108 0.00108 0.00108 0.00108
0.00108 0.00108 0.00108 0.00108 0.00108 0.00108 0.00108 0.00108 0.00108 0.00108
0.00108 0.00108 0.00108 0.00108 0.00108 0.00108 0.00108 0.00108 0.00108 0.00108
0.00108 0.00108 0.00108 0.00108 0.00108 0.00108 0.00108 0.00108 0.00108 0.00108
0.00108 0.00108 0.00108 0.00108 0.00108 0.00108 0.00108 0.00108 0.00108 0.00108
0.00108 0.00108 0.00108 0.00108 0.00108 0.00108 0.00108 0.00108 0.00108 0.00108
0.00108 0.00108 0.00108 0.00108 0.00108 0.00108 0.00108 0.00108 0.00108 0.00108
0.00108 0.00108 0.00108 0.00108 0.00108 0.00108 0.00108 0.00108 0.00108 0.00108
0.00108 0.00108 0.00108 0.00108 0.00108 0.00108 0.00108 0.00108 0.00108 0.00108
0.00108 0.00108 0.00108 0.00108 0.00108 0.00108 0.00108 0.00108 0.00108 0.00108
0.00108 0.00108 0.00108 0.00108 0.00108 0.00108 0.00108 0.00108 0.00108 0.00108
0.00108 0.00108 0.00108 0.00108 0.00108 0.00108 0.00108 0.00108 0.00108 0.00108
0.00108 0.00108 0.00108 0.00108 0.00108 0.00108 0.00108 0.00108 0.00108 0.00108
0.00108 0.00108 0.00108 0.00108 0.00108 0.00108 0.00108 0.00108 0.00108 0.00108
0.00108 0.00108 0.00108 0.00108 0.00108 0.00108 0.00108 0.00108 0.00108 0.00108
0.00108 0.00108 0.00108 0.00108 0.00108 0.00108 0.00108 0.00108 0.00108 0.00108
0.00108 0.00108 0.00108 0.00108 0.00108 0.00108 0.00108 0.00108 0.00108 0.00108
0.00108 0.00108 0.00108 0.00108 0.00108 0.00108 0.00108 0.00108 0.00108 0.00108
0.00108 0.00108 0.00108 0.00108 0.00108 0.00108 0.00108 0.00108 0.00108 0.00108
0.00108 0.00108 0.00108 0.00108 0.00108 0.00108 0.00108 0.00108 0.00108 0.00108
0.00108 0.00108 0.00108 0.00108 0.00108 0.00108 0.00108 0.00108 0.00108 0.00108
0.00108 0.00108 0.00108 0.00108 0.00108 0.00108 0.00108 0.00108 0.00108 0.00108
0.00108 0.00108 0.00108 0.00108 0.00108 0.00108 0.00108 0.00108 0.00108 0.00108
0.00108 0.00108 0.00108 0.00108 0.00108 0.00108 0.00108 0.00108 0.00108 0.00108
0.00108 0.00108 0.00108 0.00108 0.00108 0.00108 0.00108 0.00108 0.00108 0.00108
0.00108 0.00108 0.00108 0.00108 0.00108 0.00108 0.00108 0.00108 0.00108 0.00108
0.00108 0.00108 0.00108 0.00108 0.00108 0.00108 0.00108 0.00108 0.00108 0.00108
0.00108 0.00108 0.00108 0.00108 0.00108 0.00108 0.00108 0.00108 0.00108 0.00108
0.00108 0.00108 0.00108 0.00108 0.00108 0.00108 0.00108 0.00108 0.00108 0.00108
0.00108 0.00108 0.00108 0.00108 0.00108 0.00108 0.00108 0.00108 0.00108 0.00108
0.00108 0.00108 0.00108 0.00108 0.00108 0.00108 0.00108 0.00108 0.00108 0.00108
0.00108 0.00108 0.00108 0.00108 0.00108 0.00108 0.00108 0.00108 
omega 1 449 float
8675 8675 8675 8675 8675 8675 8675 8675 8675 8675 8675
8675 8675 8675 8675 8675 8675 8675 8675 8675 8675
8675 8675 8675 8675 8675 8675 8675 8675 8675 8675
8675 8675 8675 8675 8675 8675 8675 8675 8675 8675
8675 8675 8675 8675 8675 8675 8675 8675 8675 8675
8675 8675 8675 8675 8675 8675 8675 8675 8675 8675
8675 8675 8675 8675 8675 8675 8675 8675 8675 8675
8675 8675 8675 8675 8675 8675 8675 8675 8675 8675
8675 8675 8675 8675 8675 8675 8675 8675 8675 8675
8675 8675 8675 8675 8675 8675 8675 8675 8675 8675
8675 8675 8675 8675 8675 8675 8675 8675 8675 8675
8675 8675 8675 8675 8675 8675 8675 8675 8675 8675
8675 8675 8675 8675 8675 8675 8675 8675 8675 8675
8675 8675 8675 8675 8675 8675 8675 8675 8675 8675
8675 8675 8675 8675 8675 8675 8675 8675 8675 8675
8675 8675 8675 8675 8675 8675 8675 8675 8675 8675
8675 8675 8675 8675 8675 8675 8675 8675 8675 8675
8675 8675 8675 8675 8675 8675 8675 8675 8675 8675
8675 8675 8675 8675 8675 8675 8675 8675 8675 8675
8675 8675 8675 8675 8675 8675 8675 8675 8675 8675
8675 8675 8675 8675 8675 8675 8675 8675 8675 8675
8675 8675 8675 8675 8675 8675 8675 8675 8675 8675
8675 8675 8675 8675 8675 8675 8675 8675 8675 8675
8675 8675 8675 8675 8675 8675 8675 8675 8675 8675
8675 8675 8675 8675 8675 8675 8675 8675 8675 8675
8675 8675 8675 8675 8675 8675 8675 8675 8675 8675
8675 8675 8675 8675 8675 8675 8675 8675 8675 8675
8675 8675 8675 8675 8675 8675 8675 8675 8675 8675
8675 8675 8675 8675 8675 8675 8675 8675 8675 8675
8675 8675 8675 8675 8675 8675 8675 8675 8675 8675
8675 8675 8675 8675 8675 8675 8675 8675 8675 8675
8675 8675 8675 8675 8675 8675 8675 8675 8675 8675
8675 8675 8675 8675 8675 8675 8675 8675 8675 8675
8675 8675 8675 8675 8675 8675 8675 8675 8675 8675
8675 8675 8675 8675 8675 8675 8675 8675 8675 8675
8675 8675 8675 8675 8675 8675 8675 8675 8675 8675
8675 8675 8675 8675 8675 8675 8675 8675 8675 8675
8675 8675 8675 8675 8675 8675 8675 8675 8675 8675
8675 8675 8675 8675 8675 8675 8675 8675 8675 8675
8675 8675 8675 8675 8675 8675 8675 8675 8675 8675
8675 8675 8675 8675 8675 8675 8675 8675 8675 8675
8675 8675 8675 8675 8675 8675 8675 8675 8675 8675
8675 8675 8675 8675 8675 8675 8675 8675 8675 8675
8675 8675 8675 8675 8675 8675 8675 8675 8675 8675
8675 8675 8675 8675 8675 8675 8675 8675 
U 3 449 float
0 0 0 0 0 0 0 0 0 0 0
0 0 0 0 0 0 0 0 0 0
0 0 0 0 0 0 0 0 0 0
0 0 0 0 0 0 0 0 0 0
0 0 0 0 0 0 0 0 0 0
0 0 0 0 0 0 0 0 0 0
0 0 0 0 0 0 0 0 0 0
0 0 0 0 0 0 0 0 0 0
0 0 0 0 0 0 0 0 0 0
0 0 0 0 0 0 0 0 0 0
0 0 0 0 0 0 0 0 0 0
0 0 0 0 0 0 0 0 0 0
0 0 0 0 0 0 0 0 0 0
0 0 0 0 0 0 0 0 0 0
0 0 0 0 0 0 0 0 0 0
0 0 0 0 0 0 0 0 0 0
0 0 0 0 0 0 0 0 0 0
0 0 0 0 0 0 0 0 0 0
0 0 0 0 0 0 0 0 0 0
0 0 0 0 0 0 0 0 0 0
0 0 0 0 0 0 0 0 0 0
0 0 0 0 0 0 0 0 0 0
0 0 0 0 0 0 0 0 0 0
0 0 0 0 0 0 0 0 0 0
0 0 0 0 0 0 0 0 0 0
0 0 0 0 0 0 0 0 0 0
0 0 0 0 0 0 0 0 0 0
0 0 0 0 0 0 0 0 0 0
0 0 0 0 0 0 0 0 0 0
0 0 0 0 0 0 0 0 0 0
0 0 0 0 0 0 0 0 0 0
0 0 0 0 0 0 0 0 0 0
0 0 0 0 0 0 0 0 0 0
0 0 0 0 0 0 0 0 0 0
0 0 0 0 0 0 0 0 0 0
0 0 0 0 0 0 0 0 0 0
0 0 0 0 0 0 0 0 0 0
0 0 0 0 0 0 0 0 0 0
0 0 0 0 0 0 0 0 0 0
0 0 0 0 0 0 0 0 0 0
0 0 0 0 0 0 0 0 0 0
0 0 0 0 0 0 0 0 0 0
0 0 0 0 0 0 0 0 0 0
0 0 0 0 0 0 0 0 0 0
0 0 0 0 0 0 0 0 0 0
0 0 0 0 0 0 0 0 0 0
0 0 0 0 0 0 0 0 0 0
0 0 0 0 0 0 0 0 0 0
0 0 0 0 0 0 0 0 0 0
0 0 0 0 0 0 0 0 0 0
0 0 0 0 0 0 0 0 0 0
0 0 0 0 0 0 0 0 0 0
0 0 0 0 0 0 0 0 0 0
0 0 0 0 0 0 0 0 0 0
0 0 0 0 0 0 0 0 0 0
0 0 0 0 0 0 0 0 0 0
0 0 0 0 0 0 0 0 0 0
0 0 0 0 0 0 0 0 0 0
0 0 0 0 0 0 0 0 0 0
0 0 0 0 0 0 0 0 0 0
0 0 0 0 0 0 0 0 0 0
0 0 0 0 0 0 0 0 0 0
0 0 0 0 0 0 0 0 0 0
0 0 0 0 0 0 0 0 0 0
0 0 0 0 0 0 0 0 0 0
0 0 0 0 0 0 0 0 0 0
0 0 0 0 0 0 0 0 0 0
0 0 0 0 0 0 0 0 0 0
0 0 0 0 0 0 0 0 0 0
0 0 0 0 0 0 0 0 0 0
0 0 0 0 0 0 0 0 0 0
0 0 0 0 0 0 0 0 0 0
0 0 0 0 0 0 0 0 0 0
0 0 0 0 0 0 0 0 0 0
0 0 0 0 0 0 0 0 0 0
0 0 0 0 0 0 0 0 0 0
0 0 0 0 0 0 0 0 0 0
0 0 0 0 0 0 0 0 0 0
0 0 0 0 0 0 0 0 0 0
0 0 0 0 0 0 0 0 0 0
0 0 0 0 0 0 0 0 0 0
0 0 0 0 0 0 0 0 0 0
0 0 0 0 0 0 0 0 0 0
0 0 0 0 0 0 0 0 0 0
0 0 0 0 0 0 0 0 0 0
0 0 0 0 0 0 0 0 0 0
0 0 0 0 0 0 0 0 0 0
0 0 0 0 0 0 0 0 0 0
0 0 0 0 0 0 0 0 0 0
0 0 0 0 0 0 0 0 0 0
0 0 0 0 0 0 0 0 0 0
0 0 0 0 0 0 0 0 0 0
0 0 0 0 0 0 0 0 0 0
0 0 0 0 0 0 0 0 0 0
0 0 0 0 0 0 0 0 0 0
0 0 0 0 0 0 0 0 0 0
0 0 0 0 0 0 0 0 0 0
0 0 0 0 0 0 0 0 0 0
0 0 0 0 0 0 0 0 0 0
0 0 0 0 0 0 0 0 0 0
0 0 0 0 0 0 0 0 0 0
0 0 0 0 0 0 0 0 0 0
0 0 0 0 0 0 0 0 0 0
0 0 0 0 0 0 0 0 0 0
0 0 0 0 0 0 0 0 0 0
0 0 0 0 0 0 0 0 0 0
0 0 0 0 0 0 0 0 0 0
0 0 0 0 0 0 0 0 0 0
0 0 0 0 0 0 0 0 0 0
0 0 0 0 0 0 0 0 0 0
0 0 0 0 0 0 0 0 0 0
0 0 0 0 0 0 0 0 0 0
0 0 0 0 0 0 0 0 0 0
0 0 0 0 0 0 0 0 0 0
0 0 0 0 0 0 0 0 0 0
0 0 0 0 0 0 0 0 0 0
0 0 0 0 0 0 0 0 0 0
0 0 0 0 0 0 0 0 0 0
0 0 0 0 0 0 0 0 0 0
0 0 0 0 0 0 0 0 0 0
0 0 0 0 0 0 0 0 0 0
0 0 0 0 0 0 0 0 0 0
0 0 0 0 0 0 0 0 0 0
0 0 0 0 0 0 0 0 0 0
0 0 0 0 0 0 0 0 0 0
0 0 0 0 0 0 0 0 0 0
0 0 0 0 0 0 0 0 0 0
0 0 0 0 0 0 0 0 0 0
0 0 0 0 0 0 0 0 0 0
0 0 0 0 0 0 0 0 0 0
0 0 0 0 0 0 0 0 0 0
0 0 0 0 0 0 0 0 0 0
0 0 0 0 0 0 0 0 0 0
0 0 0 0 0 0 0 0 0 0
0 0 0 0 0 0 
POINT_DATA  900
FIELD attributes 5
p 1 900 float
0 0 0 0 0 0 0 0 0 0 0
0 0 0 0 0 0 0 0 0 0
0 0 0 0 0 0 0 0 0 0
0 0 0 0 0 0 0 0 0 0
0 0 0 0 0 0 0 0 0 0
0 0 0 0 0 0 0 0 0 0
0 0 0 0 0 0 0 0 0 0
0 0 0 0 0 0 0 0 0 0
0 0 0 0 0 0 0 0 0 0
0 0 0 0 0 0 0 0 0 0
0 0 0 0 0 0 0 0 0 0
0 0 0 0 0 0 0 0 0 0
0 0 0 0 0 0 0 0 0 0
0 0 0 0 0 0 0 0 0 0
0 0 0 0 0 0 0 0 0 0
0 0 0 0 0 0 0 0 0 0
0 0 0 0 0 0 0 0 0 0
0 0 0 0 0 0 0 0 0 0
0 0 0 0 0 0 0 0 0 0
0 0 0 0 0 0 0 0 0 0
0 0 0 0 0 0 0 0 0 0
0 0 0 0 0 0 0 0 0 0
0 0 0 0 0 0 0 0 0 0
0 0 0 0 0 0 0 0 0 0
0 0 0 0 0 0 0 0 0 0
0 0 0 0 0 0 0 0 0 0
0 0 0 0 0 0 0 0 0 0
0 0 0 0 0 0 0 0 0 0
0 0 0 0 0 0 0 0 0 0
0 0 0 0 0 0 0 0 0 0
0 0 0 0 0 0 0 0 0 0
0 0 0 0 0 0 0 0 0 0
0 0 0 0 0 0 0 0 0 0
0 0 0 0 0 0 0 0 0 0
0 0 0 0 0 0 0 0 0 0
0 0 0 0 0 0 0 0 0 0
0 0 0 0 0 0 0 0 0 0
0 0 0 0 0 0 0 0 0 0
0 0 0 0 0 0 0 0 0 0
0 0 0 0 0 0 0 0 0 0
0 0 0 0 0 0 0 0 0 0
0 0 0 0 0 0 0 0 0 0
0 0 0 0 0 0 0 0 0 0
0 0 0 0 0 0 0 0 0 0
0 0 0 0 0 0 0 0 0 0
0 0 0 0 0 0 0 0 0 0
0 0 0 0 0 0 0 0 0 0
0 0 0 0 0 0 0 0 0 0
0 0 0 0 0 0 0 0 0 0
0 0 0 0 0 0 0 0 0 0
0 0 0 0 0 0 0 0 0 0
0 0 0 0 0 0 0 0 0 0
0 0 0 0 0 0 0 0 0 0
0 0 0 0 0 0 0 0 0 0
0 0 0 0 0 0 0 0 0 0
0 0 0 0 0 0 0 0 0 0
0 0 0 0 0 0 0 0 0 0
0 0 0 0 0 0 0 0 0 0
0 0 0 0 0 0 0 0 0 0
0 0 0 0 0 0 0 0 0 0
0 0 0 0 0 0 0 0 0 0
0 0 0 0 0 0 0 0 0 0
0 0 0 0 0 0 0 0 0 0
0 0 0 0 0 0 0 0 0 0
0 0 0 0 0 0 0 0 0 0
0 0 0 0 0 0 0 0 0 0
0 0 0 0 0 0 0 0 0 0
0 0 0 0 0 0 0 0 0 0
0 0 0 0 0 0 0 0 0 0
0 0 0 0 0 0 0 0 0 0
0 0 0 0 0 0 0 0 0 0
0 0 0 0 0 0 0 0 0 0
0 0 0 0 0 0 0 0 0 0
0 0 0 0 0 0 0 0 0 0
0 0 0 0 0 0 0 0 0 0
0 0 0 0 0 0 0 0 0 0
0 0 0 0 0 0 0 0 0 0
0 0 0 0 0 0 0 0 0 0
0 0 0 0 0 0 0 0 0 0
0 0 0 0 0 0 0 0 0 0
0 0 0 0 0 0 0 0 0 0
0 0 0 0 0 0 0 0 0 0
0 0 0 0 0 0 0 0 0 0
0 0 0 0 0 0 0 0 0 0
0 0 0 0 0 0 0 0 0 0
0 0 0 0 0 0 0 0 0 0
0 0 0 0 0 0 0 0 0 0
0 0 0 0 0 0 0 0 0 0
0 0 0 0 0 0 0 0 0 0
0 0 0 0 0 0 0 0 0 
nut 1 900 float
1.25e-07 1.25e-07 1.25e-07 1.25e-07 1.25e-07 1.25e-07 1.25e-07 1.25e-07 1.25e-07 1.25e-07 1.25e-07
1.25e-07 1.25e-07 1.25e-07 1.25e-07 1.25e-07 1.25e-07 1.25e-07 1.25e-07 1.25e-07 1.25e-07
1.25e-07 1.25e-07 1.25e-07 1.25e-07 1.25e-07 1.25e-07 1.25e-07 1.25e-07 1.25e-07 1.25e-07
1.25e-07 1.25e-07 1.25e-07 1.25e-07 1.25e-07 1.25e-07 1.25e-07 1.25e-07 1.25e-07 1.25e-07
1.25e-07 1.25e-07 1.25e-07 1.25e-07 1.25e-07 1.25e-07 1.25e-07 1.25e-07 1.25e-07 1.25e-07
1.25e-07 1.25e-07 1.25e-07 1.25e-07 1.25e-07 1.25e-07 1.25e-07 1.25e-07 1.25e-07 1.25e-07
1.25e-07 1.25e-07 1.25e-07 1.25e-07 1.25e-07 1.25e-07 1.25e-07 1.25e-07 1.25e-07 1.25e-07
1.25e-07 1.25e-07 1.25e-07 1.25e-07 1.25e-07 1.25e-07 1.25e-07 1.25e-07 1.25e-07 1.25e-07
1.25e-07 1.25e-07 1.25e-07 1.25e-07 1.25e-07 1.25e-07 1.25e-07 1.25e-07 1.25e-07 1.25e-07
1.25e-07 1.25e-07 1.25e-07 1.25e-07 1.25e-07 1.25e-07 1.25e-07 1.25e-07 1.25e-07 1.25e-07
1.25e-07 1.25e-07 1.25e-07 1.25e-07 1.25e-07 1.25e-07 1.25e-07 1.25e-07 1.25e-07 1.25e-07
1.25e-07 1.25e-07 1.25e-07 1.25e-07 1.25e-07 1.25e-07 1.25e-07 1.25e-07 1.25e-07 1.25e-07
1.25e-07 1.25e-07 1.25e-07 1.25e-07 1.25e-07 1.25e-07 1.25e-07 1.25e-07 1.25e-07 1.25e-07
1.25e-07 1.25e-07 1.25e-07 1.25e-07 1.25e-07 1.25e-07 1.25e-07 1.25e-07 1.25e-07 1.25e-07
1.25e-07 1.25e-07 1.25e-07 1.25e-07 1.25e-07 1.25e-07 1.25e-07 1.25e-07 1.25e-07 1.25e-07
1.25e-07 1.25e-07 1.25e-07 1.25e-07 1.25e-07 1.25e-07 1.25e-07 1.25e-07 1.25e-07 1.25e-07
1.25e-07 1.25e-07 1.25e-07 1.25e-07 1.25e-07 1.25e-07 1.25e-07 1.25e-07 1.25e-07 1.25e-07
1.25e-07 1.25e-07 1.25e-07 1.25e-07 1.25e-07 1.25e-07 1.25e-07 1.25e-07 1.25e-07 1.25e-07
1.25e-07 1.25e-07 1.25e-07 1.25e-07 1.25e-07 1.25e-07 1.25e-07 1.25e-07 1.25e-07 1.25e-07
1.25e-07 1.25e-07 1.25e-07 1.25e-07 1.25e-07 1.25e-07 1.25e-07 1.25e-07 1.25e-07 1.25e-07
1.25e-07 1.25e-07 1.25e-07 1.25e-07 1.25e-07 1.25e-07 1.25e-07 1.25e-07 1.25e-07 1.25e-07
1.25e-07 1.25e-07 1.25e-07 1.25e-07 1.25e-07 1.25e-07 1.25e-07 1.25e-07 1.25e-07 1.25e-07
1.25e-07 1.25e-07 1.25e-07 1.25e-07 1.25e-07 1.25e-07 1.25e-07 1.25e-07 1.25e-07 1.25e-07
1.25e-07 1.25e-07 1.25e-07 1.25e-07 1.25e-07 1.25e-07 1.25e-07 1.25e-07 1.25e-07 1.25e-07
1.25e-07 1.25e-07 1.25e-07 1.25e-07 1.25e-07 1.25e-07 1.25e-07 1.25e-07 1.25e-07 1.25e-07
1.25e-07 1.25e-07 1.25e-07 1.25e-07 1.25e-07 1.25e-07 1.25e-07 1.25e-07 1.25e-07 1.25e-07
1.25e-07 1.25e-07 1.25e-07 1.25e-07 1.25e-07 1.25e-07 1.25e-07 1.25e-07 1.25e-07 1.25e-07
1.25e-07 1.25e-07 1.25e-07 1.25e-07 1.25e-07 1.25e-07 1.25e-07 1.25e-07 1.25e-07 1.25e-07
1.25e-07 1.25e-07 1.25e-07 1.25e-07 1.25e-07 1.25e-07 1.25e-07 1.25e-07 1.25e-07 1.25e-07
1.25e-07 1.25e-07 1.25e-07 1.25e-07 1.25e-07 1.25e-07 1.25e-07 1.25e-07 1.25e-07 1.25e-07
1.25e-07 1.25e-07 1.25e-07 1.25e-07 1.25e-07 1.25e-07 1.25e-07 1.25e-07 1.25e-07 1.25e-07
1.25e-07 1.25e-07 1.25e-07 1.25e-07 1.25e-07 1.25e-07 1.25e-07 1.25e-07 1.25e-07 1.25e-07
1.25e-07 1.25e-07 1.25e-07 1.25e-07 1.25e-07 1.25e-07 1.25e-07 1.25e-07 1.25e-07 1.25e-07
1.25e-07 1.25e-07 1.25e-07 1.25e-07 1.25e-07 1.25e-07 1.25e-07 1.25e-07 1.25e-07 1.25e-07
1.25e-07 1.25e-07 1.25e-07 1.25e-07 1.25e-07 1.25e-07 1.25e-07 1.25e-07 1.25e-07 1.25e-07
1.25e-07 1.25e-07 1.25e-07 1.25e-07 1.25e-07 1.25e-07 1.25e-07 1.25e-07 1.25e-07 1.25e-07
1.25e-07 1.25e-07 1.25e-07 1.25e-07 1.25e-07 1.25e-07 1.25e-07 1.25e-07 1.25e-07 1.25e-07
1.25e-07 1.25e-07 1.25e-07 1.25e-07 1.25e-07 1.25e-07 1.25e-07 1.25e-07 1.25e-07 1.25e-07
1.25e-07 1.25e-07 1.25e-07 1.25e-07 1.25e-07 1.25e-07 1.25e-07 1.25e-07 1.25e-07 1.25e-07
1.25e-07 1.25e-07 1.25e-07 1.25e-07 1.25e-07 1.25e-07 1.25e-07 1.25e-07 1.25e-07 1.25e-07