# vtk DataFile Version 2.0
bottomWall
ASCII
DATASET POLYDATA
POINTS 900 float
0 0 0 0.000971417 0 0 0.000971417 0 0.1 0 0
0.1 0.00194513 0 0 0.00194513 0 0.1 0.00292113 0 0
0.00292113 0 0.1 0.00389944 0 0 0.00389944 0 0.1 0.00488006
0 0 0.00488006 0 0.1 0.005863 0 0 0.005863 0
0.1 0.00684825 0 0 0.00684825 0 0.1 0.00783583 0 0
0.00783583 0 0.1 0.00882574 0 0 0.00882574 0 0.1 0.00981799
0 0 0.00981799 0 0.1 0.0108126 0 0 0.0108126 0
0.1 0.0118095 0 0 0.0118095 0 0.1 0.0128088 0 0
0.0128088 0 0.1 0.0138104 0 0 0.0138104 0 0.1 0.0148145
0 0 0.0148145 0 0.1 0.0158208 0 0 0.0158208 0
0.1 0.0168296 0 0 0.0168296 0 0.1 0.0178407 0 0
0.0178407 0 0.1 0.0188543 0 0 0.0188543 0 0.1 0.0198702
0 0 0.0198702 0 0.1 0.0208885 0 0 0.0208885 0
0.1 0.0219092 0 0 0.0219092 0 0.1 0.0229323 0 0
0.0229323 0 0.1 0.0239579 0 0 0.0239579 0 0.1 0.0249858
0 0 0.0249858 0 0.1 0.0260162 0 0 0.0260162 0
0.1 0.027049 0 0 0.027049 0 0.1 0.0280843 0 0
0.0280843 0 0.1 0.029122 0 0 0.029122 0 0.1 0.0301621
0 0 0.0301621 0 0.1 0.0312047 0 0 0.0312047 0
0.1 0.0322498 0 0 0.0322498 0 0.1 0.0332973 0 0
0.0332973 0 0.1 0.0343473 0 0 0.0343473 0 0.1 0.0353998
0 0 0.0353998 0 0.1 0.0364548 0 0 0.0364548 0
0.1 0.0375122 0 0 0.0375122 0 0.1 0.0385722 0 0
0.0385722 0 0.1 0.0396346 0 0 0.0396346 0 0.1 0.0406996
0 0 0.0406996 0 0.1 0.0417671 0 0 0.0417671 0
0.1 0.0428371 0 0 0.0428371 0 0.1 0.0439096 0 0
0.0439096 0 0.1 0.0449846 0 0 0.0449846 0 0.1 0.0460622
0 0 0.0460622 0 0.1 0.0471424 0 0 0.0471424 0
0.1 0.048225 0 0 0.048225 0 0.1 0.0493103 0 0
0.0493103 0 0.1 0.0503981 0 0 0.0503981 0 0.1 0.0514884
0 0 0.0514884 0 0.1 0.0525814 0 0 0.0525814 0
0.1 0.0536769 0 0 0.0536769 0 0.1 0.054775 0 0
0.054775 0 0.1 0.0558757 0 0 0.0558757 0 0.1 0.056979
0 0 0.056979 0 0.1 0.0580849 0 0 0.0580849 0
0.1 0.0591934 0 0 0.0591934 0 0.1 0.0603045 0 0
0.0603045 0 0.1 0.0614182 0 0 0.0614182 0 0.1 0.0625346
0 0 0.0625346 0 0.1 0.0636536 0 0 0.0636536 0
0.1 0.0647753 0 0 0.0647753 0 0.1 0.0658996 0 0
0.0658996 0 0.1 0.0670265 0 0 0.0670265 0 0.1 0.0681561
0 0 0.0681561 0 0.1 0.0692884 0 0 0.0692884 0
0.1 0.0704233 0 0 0.0704233 0 0.1 0.0715609 0 0
0.0715609 0 0.1 0.0727013 0 0 0.0727013 0 0.1 0.0738443
0 0 0.0738443 0 0.1 0.07499 0 0 0.07499 0
0.1 0.0761384 0 0 0.0761384 0 0.1 0.0772895 0 0
0.0772895 0 0.1 0.0784433 0 0 0.0784433 0 0.1 0.0795999
0 0 0.0795999 0 0.1 0.0807591 0 0 0.0807591 0
0.1 0.0819212 0 0 0.0819212 0 0.1 0.0830859 0 0
0.0830859 0 0.1 0.0842534 0 0 0.0842534 0 0.1 0.0854237
0 0 0.0854237 0 0.1 0.0865967 0 0 0.0865967 0
0.1 0.0877725 0 0 0.0877725 0 0.1 0.0889511 0 0
0.0889511 0 0.1 0.0901325 0 0 0.0901325 0 0.1 0.0913166
0 0 0.0913166 0 0.1 0.0925035 0 0 0.0925035 0
0.1 0.0936933 0 0 0.0936933 0 0.1 0.0948858 0 0
0.0948858 0 0.1 0.0960812 0 0 0.0960812 0 0.1 0.0972794
0 0 0.0972794 0 0.1 0.0984804 0 0 0.0984804 0
0.1 0.0996842 0 0 0.0996842 0 0.1 0.100891 0 0
0.100891 0 0.1 0.1021 0 0 0.1021 0 0.1 0.103313
0 0 0.103313 0 0.1 0.104528 0 0 0.104528 0
0.1 0.105746 0 0 0.105746 0 0.1 0.106967 0 0
0.106967 0 0.1 0.108191 0 0 0.108191 0 0.1 0.109418
0 0 0.109418 0 0.1 0.110647 0 0 0.110647 0
0.1 0.11188 0 0 0.11188 0 0.1 0.113115 0 0
0.113115 0 0.1 0.114354 0 0 0.114354 0 0.1 0.115595
0 0 0.115595 0 0.1 0.116839 0 0 0.116839 0
0.1 0.118087 0 0 0.118087 0 0.1 0.119337 0 0
0.119337 0 0.1 0.12059 0 0 0.12059 0 0.1 0.121846
0 0 0.121846 0 0.1 0.123105 0 0 0.123105 0
0.1 0.124367 0 0 0.124367 0 0.1 0.125632 0 0
0.125632 0 0.1 0.1269 0 0 0.1269 0 0.1 0.128171
0 0 0.128171 0 0.1 0.129444 0 0 0.129444 0
0.1 0.130721 0 0 0.130721 0 0.1 0.132001 0 0
0.132001 0 0.1 0.133284 0 0 0.133284 0 0.1 0.13457
0 0 0.13457 0 0.1 0.135859 0 0 0.135859 0
0.1 0.137151 0 0 0.137151 0 0.1 0.138446 0 0
0.138446 0 0.1 0.139745 0 0 0.139745 0 0.1 0.141046
0 0 0.141046 0 0.1 0.14235 0 0 0.14235 0
0.1 0.143658 0 0 0.143658 0 0.1 0.144968 0 0
0.144968 0 0.1 0.146282 0 0 0.146282 0 0.1 0.147598
0 0 0.147598 0 0.1 0.148918 0 0 0.148918 0
0.1 0.150241 0 0 0.150241 0 0.1 0.151567 0 0
0.151567 0 0.1 0.152896 0 0 0.152896 0 0.1 0.154228
0 0 0.154228 0 0.1 0.155564 0 0 0.155564 0
0.1 0.156902 0 0 0.156902 0 0.1 0.158244 0 0
0.158244 0 0.1 0.159589 0 0 0.159589 0 0.1 0.160937
0 0 0.160937 0 0.1 0.162288 0 0 0.162288 0
0.1 0.163643 0 0 0.163643 0 0.1 0.165 0 0
0.165 0 0.1 0.166361 0 0 0.166361 0 0.1 0.167725
0 0 0.167725 0 0.1 0.169092 0 0 0.169092 0
0.1 0.170463 0 0 0.170463 0 0.1 0.171837 0 0
0.171837 0 0.1 0.173214 0 0 0.173214 0 0.1 0.174594
0 0 0.174594 0 0.1 0.175977 0 0 0.175977 0
0.1 0.177364 0 0 0.177364 0 0.1 0.178754 0 0
0.178754 0 0.1 0.180147 0 0 0.180147 0 0.1 0.181544
0 0 0.181544 0 0.1 0.182944 0 0 0.182944 0
0.1 0.184347 0 0 0.184347 0 0.1 0.185754 0 0
0.185754 0 0.1 0.187163 0 0 0.187163 0 0.1 0.188577
0 0 0.188577 0 0.1 0.189993 0 0 0.189993 0
0.1 0.191413 0 0 0.191413 0 0.1 0.192836 0 0
0.192836 0 0.1 0.194263 0 0 0.194263 0 0.1 0.195692
0 0 0.195692 0 0.1 0.197126 0 0 0.197126 0
0.1 0.198562 0 0 0.198562 0 0.1 0.200002 0 0
0.200002 0 0.1 0.201446 0 0 0.201446 0 0.1 0.202893
0 0 0.202893 0 0.1 0.204343 0 0 0.204343 0
0.1 0.205797 0 0 0.205797 0 0.1 0.207254 0 0
0.207254 0 0.1 0.208552 0 0 0.208552 0 0.1 0.209863
0 0 0.209863 0 0.1 0.211189 0 0 0.211189 0
0.1 0.21253 0 0 0.21253 0 0.1 0.213885 0 0
0.213885 0 0.1 0.215254 0 0 0.215254 0 0.1 0.216639
0 0 0.216639 0 0.1 0.218038 0 0 0.218038 0
0.1 0.219453 0 0 0.219453 0 0.1 0.220884 0 0
0.220884 0 0.1 0.222329 0 0 0.222329 0 0.1 0.223791
0 0 0.223791 0 0.1 0.225268 0 0 0.225268 0
0.1 0.226762 0 0 0.226762 0 0.1 0.228271 0 0
0.228271 0 0.1 0.229797 0 0 0.229797 0 0.1 0.23134
0 0 0.23134 0 0.1 0.232899 0 0 0.232899 0
0.1 0.234476 0 0 0.234476 0 0.1 0.236069 0 0
0.236069 0 0.1 0.23768 0 0 0.23768 0 0.1 0.239308
0 0 0.239308 0 0.1 0.240954 0 0 0.240954 0
0.1 0.242618 0 0 0.242618 0 0.1 0.2443 0 0
0.2443 0 0.1 0.246001 0 0 0.246001 0 0.1 0.247719
0 0 0.247719 0 0.1 0.249457 0 0 0.249457 0
0.1 0.251213 0 0 0.251213 0 0.1 0.252988 0 0
0.252988 0 0.1 0.254783 0 0 0.254783 0 0.1 0.256597
0 0 0.256597 0 0.1 0.258431 0 0 0.258431 0
0.1 0.260285 0 0 0.260285 0 0.1 0.262159 0 0
0.262159 0 0.1 0.264054 0 0 0.264054 0 0.1 0.265969
0 0 0.265969 0 0.1 0.267904 0 0 0.267904 0
0.1 0.269861 0 0 0.269861 0 0.1 0.271839 0 0
0.271839 0 0.1 0.273839 0 0 0.273839 0 0.1 0.27586
0 0 0.27586 0 0.1 0.277904 0 0 0.277904 0
0.1 0.279969 0 0 0.279969 0 0.1 0.282057 0 0
0.282057 0 0.1 0.284168 0 0 0.284168 0 0.1 0.286302
0 0 0.286302 0 0.1 0.288458 0 0 0.288458 0
0.1 0.290639 0 0 0.290639 0 0.1 0.292843 0 0
0.292843 0 0.1 0.29507 0 0 0.29507 0 0.1 0.297323
0 0 0.297323 0 0.1 0.299599 0 0 0.299599 0
0.1 0.301901 0 0 0.301901 0 0.1 0.304227 0 0
0.304227 0 0.1 0.306578 0 0 0.306578 0 0.1 0.308956
0 0 0.308956 0 0.1 0.311359 0 0 0.311359 0
0.1 0.313788 0 0 0.313788 0 0.1 0.316243 0 0
0.316243 0 0.1 0.318726 0 0 0.318726 0 0.1 0.321235
0 0 0.321235 0 0.1 0.323771 0 0 0.323771 0
0.1 0.326336 0 0 0.326336 0 0.1 0.328927 0 0
0.328927 0 0.1 0.331548 0 0 0.331548 0 0.1 0.334196
0 0 0.334196 0 0.1 0.336874 0 0 0.336874 0
0.1 0.33958 0 0 0.33958 0 0.1 0.342316 0 0
0.342316 0 0.1 0.345082 0 0 0.345082 0 0.1 0.347877
0 0 0.347877 0 0.1 0.350703 0 0 0.350703 0
0.1 0.35356 0 0 0.35356 0 0.1 0.356448 0 0
0.356448 0 0.1 0.359367 0 0 0.359367 0 0.1 0.362318
0 0 0.362318 0 0.1 0.365301 0 0 0.365301 0
0.1 0.368317 0 0 0.368317 0 0.1 0.371365 0 0
0.371365 0 0.1 0.374446 0 0 0.374446 0 0.1 0.377561
0 0 0.377561 0 0.1 0.38071 0 0 0.38071 0
0.1 0.383893 0 0 0.383893 0 0.1 0.387111 0 0
0.387111 0 0.1 0.390363 0 0 0.390363 0 0.1 0.393651
0 0 0.393651 0 0.1 0.396975 0 0 0.396975 0
0.1 0.400334 0 0 0.400334 0 0.1 0.403731 0 0
0.403731 0 0.1 0.407164 0 0 0.407164 0 0.1 0.410634
0 0 0.410634 0 0.1 0.414142 0 0 0.414142 0
0.1 0.417689 0 0 0.417689 0 0.1 0.421274 0 0
0.421274 0 0.1 0.424898 0 0 0.424898 0 0.1 0.428561
0 0 0.428561 0 0.1 0.432264 0 0 0.432264 0
0.1 0.436007 0 0 0.436007 0 0.1 0.439791 0 0
0.439791 0 0.1 0.443616 0 0 0.443616 0 0.1 0.447483
0 0 0.447483 0 0.1 0.451392 0 0 0.451392 0
0.1 0.455343 0 0 0.455343 0 0.1 0.459337 0 0
0.459337 0 0.1 0.463375 0 0 0.463375 0 0.1 0.467456
0 0 0.467456 0 0.1 0.471582 0 0 0.471582 0
0.1 0.475753 0 0 0.475753 0 0.1 0.479969 0 0
0.479969 0 0.1 0.48423 0 0 0.48423 0 0.1 0.488539
0 0 0.488539 0 0.1 0.492894 0 0 0.492894 0
0.1 0.497296 0 0 0.497296 0 0.1 0.501746 0 0
0.501746 0 0.1 0.506245 0 0 0.506245 0 0.1 0.510792
0 0 0.510792 0 0.1 0.515389 0 0 0.515389 0
0.1 0.520036 0 0 0.520036 0 0.1 0.524733 0 0
0.524733 0 0.1 0.529481 0 0 0.529481 0 0.1 0.534281
0 0 0.534281 0 0.1 0.539134 0 0 0.539134 0
0.1 0.544038 0 0 0.544038 0 0.1 0.548997 0 0
0.548997 0 0.1 0.554009 0 0 0.554009 0 0.1 0.559075
0 0 0.559075 0 0.1 0.564197 0 0 0.564197 0
0.1 0.569374 0 0 0.569374 0 0.1 0.574608 0 0
0.574608 0 0.1 0.579898 0 0 0.579898 0 0.1 0.585246
0 0 0.585246 0 0.1 0.590653 0 0 0.590653 0
0.1 0.596117 0 0 0.596117 0 0.1 0.601642 0 0
0.601642 0 0.1 0.607226 0 0 0.607226 0 0.1 0.612871
0 0 0.612871 0 0.1 0.618577 0 0 0.618577 0
0.1 0.624346 0 0 0.624346 0 0.1 0.630177 0 0
0.630177 0 0.1 0.636071 0 0 0.636071 0 0.1 0.64203
0 0 0.64203 0 0.1 0.648053 0 0 0.648053 0
0.1 0.654142 0 0 0.654142 0 0.1 0.660297 0 0
0.660297 0 0.1 0.666519 0 0 0.666519 0 0.1 0.672808
0 0 0.672808 0 0.1 0.679166 0 0 0.679166 0
0.1 0.685593 0 0 0.685593 0 0.1 0.69209 0 0
0.69209 0 0.1 0.698657 0 0 0.698657 0 0.1 0.705296
0 0 0.705296 0 0.1 0.712007 0 0 0.712007 0
0.1 0.718791 0 0 0.718791 0 0.1 0.725649 0 0
0.725649 0 0.1 0.732581 0 0 0.732581 0 0.1 0.739588
0 0 0.739588 0 0.1 0.746672 0 0 0.746672 0
0.1 0.753833 0 0 0.753833 0 0.1 0.761071 0 0
0.761071 0 0.1 0.768389 0 0 0.768389 0 0.1 0.775785
0 0 0.775785 0 0.1 0.783262 0 0 0.783262 0
0.1 0.790821 0 0 0.790821 0 0.1 0.798461 0 0
0.798461 0 0.1 0.806185 0 0 0.806185 0 0.1 0.813993
0 0 0.813993 0 0.1 0.821885 0 0 0.821885 0
0.1 0.829863 0 0 0.829863 0 0.1 0.837928 0 0
0.837928 0 0.1 0.846081 0 0 0.846081 0 0.1 0.854322
0 0 0.854322 0 0.1 0.862653 0 0 0.862653 0
0.1 0.871074 0 0 0.871074 0 0.1 0.879587 0 0
[...]
CELL_DATA 449
FIELD attributes 12
patchID 1 449 float
3 3 3 3 3 3 3 3 3 3 3
3 3 3 3 3 3 3 3 3 3
3 3 3 3 3 3 3 3 3 3
3 3 3 3 3 3 3 3 3 3
3 3 3 3 3 3 3 3 3 3
3 3 3 3 3 3 3 3 3 3
3 3 3 3 3 3 3 3 3 3
3 3 3 3 3 3 3 3 3 3
3 3 3 3 3 3 3 3 3 3
3 3 3 3 3 3 3 3 3 3
3 3 3 3 3 3 3 3 3 3
3 3 3 3 3 3 3 3 3 3
3 3 3 3 3 3 3 3 3 3
3 3 3 3 3 3 3 3 3 3
3 3 3 3 3 3 3 3 3 3
3 3 3 3 3 3 3 3 3 3
3 3 3 3 3 3 3 3 3 3
3 3 3 3 3 3 3 3 3 3
3 3 3 3 3 3 3 3 3 3
3 3 3 3 3 3 3 3 3 3
3 3 3 3 3 3 3 3 3 3
3 3 3 3 3 3 3 3 3 3
3 3 3 3 3 3 3 3 3 3
3 3 3 3 3 3 3 3 3 3
3 3 3 3 3 3 3 3 3 3
3 3 3 3 3 3 3 3 3 3
3 3 3 3 3 3 3 3 3 3
3 3 3 3 3 3 3 3 3 3
3 3 3 3 3 3 3 3 3 3
3 3 3 3 3 3 3 3 3 3
3 3 3 3 3 3 3 3 3 3
3 3 3 3 3 3 3 3 3 3
3 3 3 3 3 3 3 3 3 3
3 3 3 3 3 3 3 3 3 3
3 3 3 3 3 3 3 3 3 3
3 3 3 3 3 3 3 3 3 3
3 3 3 3 3 3 3 3 3 3
3 3 3 3 3 3 3 3 3 3
3 3 3 3 3 3 3 3 3 3
3 3 3 3 3 3 3 3 3 3
3 3 3 3 3 3 3 3 3 3
3 3 3 3 3 3 3 3 3 3
3 3 3 3 3 3 3 3 3 3
3 3 3 3 3 3 3 3 3 3
3 3 3 3 3 3 3 3 
Cy 1 449 float
0 0 0 0 0 0 0 0 0 0 0
0 0 0 0 0 0 0 0 0 0
0 0 0 0 0 0 0 0 0 0
0 0 0 0 0 0 0 0 0 0
0 0 0 0 0 0 0 0 0 0
0 0 0 0 0 0 0 0 0 0
0 0 0 0 0 0 0 0 0 0
0 0 0 0 0 0 0 0 0 0
0 0 0 0 0 0 0 0 0 0
0 0 0 0 0 0 0 0 0 0
0 0 0 0 0 0 0 0 0 0
0 0 0 0 0 0 0 0 0 0
0 0 0 0 0 0 0 0 0 0
0 0 0 0 0 0 0 0 0 0
0 0 0 0 0 0 0 0 0 0
0 0 0 0 0 0 0 0 0 0
0 0 0 0 0 0 0 0 0 0
0 0 0 0 0 0 0 0 0 0
0 0 0 0 0 0 0 0 0 0
0 0 0 0 0 0 0 0 0 0
0 0 0 0 0 0 0 0 0 0
0 0 0 0 0 0 0 0 0 0
0 0 0 0 0 0 0 0 0 0
0 0 0 0 0 0 0 0 0 0
0 0 0 0 0 0 0 0 0 0
0 0 0 0 0 0 0 0 0 0
0 0 0 0 0 0 0 0 0 0
0 0 0 0 0 0 0 0 0 0
0 0 0 0 0 0 0 0 0 0
0 0 0 0 0 0 0 0 0 0
0 0 0 0 0 0 0 0 0 0
0 0 0 0 0 0 0 0 0 0
0 0 0 0 0 0 0 0 0 0
0 0 0 0 0 0 0 0 0 0
0 0 0 0 0 0 0 0 0 0
0 0 0 0 0 0 0 0 0 0
0 0 0 0 0 0 0 0 0 0
0 0 0 0 0 0 0 0 0 0
0 0 0 0 0 0 0 0 0 0
0 0 0 0 0 0 0 0 0 0
0 0 0 0 0 0 0 0 0 0
0 0 0 0 0 0 0 0 0 0
0 0 0 0 0 0 0 0 0 0
0 0 0 0 0 0 0 0 0 0
0 0 0 0 0 0 0 0 
nut 1 449 float
3.12906e-06 1.73378e-06 8.522e-07 4.8414e-07 3.7205e-07 3.41731e-07 3.28718e-07 3.1915e-07 3.19829e-07 3.49533e-07 4.33221e-07
5.14162e-07 5.83104e-07 6.35778e-07 6.72276e-07 6.95345e-07 7.06437e-07 7.09445e-07 7.06519e-07 6.99349e-07 6.9025e-07
6.8052e-07 6.70662e-07 6.60912e-07 6.51387e-07 6.42143e-07 6.33234e-07 6.24693e-07 6.16495e-07 6.08657e-07 6.01185e-07
5.93993e-07 5.87024e-07 5.80268e-07 5.73778e-07 5.67565e-07 5.61638e-07 5.55977e-07 5.50567e-07 5.45388e-07 5.40408e-07
5.35604e-07 5.30956e-07 5.26458e-07 5.22118e-07 5.1793e-07 5.13886e-07 5.09978e-07 5.06209e-07 5.02563e-07 4.99022e-07
4.95574e-07 4.92218e-07 4.88954e-07 4.85778e-07 4.8269e-07 4.79691e-07 4.76775e-07 4.73926e-07 4.71135e-07 4.68405e-07
4.65737e-07 4.63129e-07 4.60583e-07 4.58099e-07 4.55677e-07 4.53312e-07 4.50998e-07 4.48732e-07 4.46511e-07 4.44333e-07
4.42197e-07 4.40104e-07 4.38055e-07 4.36049e-07 4.34083e-07 4.32154e-07 4.30259e-07 4.28397e-07 4.26566e-07 4.24767e-07
4.22999e-07 4.21265e-07 4.19561e-07 4.17887e-07 4.1624e-07 4.14619e-07 4.13022e-07 4.1145e-07 4.09902e-07 4.08378e-07
4.0688e-07 4.05405e-07 4.03952e-07 4.0252e-07 4.01108e-07 3.99716e-07 3.98342e-07 3.96987e-07 3.95652e-07 3.94337e-07
3.9304e-07 3.9176e-07 3.90496e-07 3.89248e-07 3.88017e-07 3.86801e-07 3.85599e-07 3.84414e-07 3.83244e-07 3.82089e-07
3.80948e-07 3.7982e-07 3.78704e-07 3.77602e-07 3.76513e-07 3.75436e-07 3.74372e-07 3.7332e-07 3.72281e-07 3.71253e-07
3.70236e-07 3.69229e-07 3.68233e-07 3.67248e-07 3.66274e-07 3.6531e-07 3.64356e-07 3.63412e-07 3.62478e-07 3.61553e-07
3.60637e-07 3.59729e-07 3.58831e-07 3.57943e-07 3.57063e-07 3.56191e-07 3.55328e-07 3.54473e-07 3.53625e-07 3.52786e-07
3.51953e-07 3.51128e-07 3.50311e-07 3.49502e-07 3.487e-07 3.47905e-07 3.47117e-07 3.46335e-07 3.4556e-07 3.44793e-07
3.44031e-07 3.43276e-07 3.42528e-07 3.41786e-07 3.4105e-07 3.4032e-07 3.39595e-07 3.38877e-07 3.38165e-07 3.37458e-07
3.36757e-07 3.36062e-07 3.35371e-07 3.34687e-07 3.34007e-07 3.33333e-07 3.32664e-07 3.31999e-07 3.3134e-07 3.30686e-07
3.30037e-07 3.29393e-07 3.28789e-07 3.28221e-07 3.27652e-07 3.27082e-07 3.26511e-07 3.25939e-07 3.25366e-07 3.24791e-07
3.24216e-07 3.23639e-07 3.23061e-07 3.22482e-07 3.21902e-07 3.21321e-07 3.20739e-07 3.20156e-07 3.19572e-07 3.18987e-07
3.18401e-07 3.17814e-07 3.17226e-07 3.16637e-07 3.16047e-07 3.15457e-07 3.14866e-07 3.14274e-07 3.13681e-07 3.13087e-07
3.12493e-07 3.11898e-07 3.11302e-07 3.10705e-07 3.10108e-07 3.0951e-07 3.08911e-07 3.08312e-07 3.07712e-07 3.07112e-07
3.06511e-07 3.05909e-07 3.05307e-07 3.04704e-07 3.04101e-07 3.03497e-07 3.0289e-07 3.02282e-07 3.01674e-07 3.01065e-07
3.00456e-07 2.99847e-07 2.99237e-07 2.98627e-07 2.98017e-07 2.97406e-07 2.96796e-07 2.96185e-07 2.95573e-07 2.94962e-07
2.9435e-07 2.93738e-07 2.93126e-07 2.92514e-07 2.91902e-07 2.91289e-07 2.90677e-07 2.90064e-07 2.89452e-07 2.88839e-07
2.88226e-07 2.87614e-07 2.87001e-07 2.86388e-07 2.85776e-07 2.85163e-07 2.84551e-07 2.83939e-07 2.83326e-07 2.82714e-07
2.82102e-07 2.81491e-07 2.80879e-07 2.80268e-07 2.79657e-07 2.79046e-07 2.78435e-07 2.77823e-07 2.77212e-07 2.766e-07
2.7599e-07 2.75379e-07 2.74769e-07 2.74159e-07 2.7355e-07 2.72941e-07 2.72332e-07 2.71724e-07 2.71116e-07 2.70508e-07
2.69902e-07 2.69295e-07 2.68689e-07 2.68084e-07 2.67479e-07 2.66874e-07 2.6627e-07 2.65667e-07 2.65064e-07 2.64462e-07
2.6386e-07 2.63259e-07 2.62659e-07 2.62059e-07 2.6146e-07 2.60862e-07 2.60264e-07 2.59667e-07 2.5907e-07 2.58475e-07
2.5788e-07 2.57285e-07 2.56692e-07 2.56099e-07 2.55507e-07 2.54915e-07 2.54325e-07 2.53735e-07 2.53146e-07 2.52558e-07
2.51971e-07 2.51384e-07 2.50799e-07 2.50214e-07 2.4963e-07 2.49047e-07 2.48464e-07 2.47883e-07 2.47303e-07 2.46723e-07
2.46144e-07 2.45567e-07 2.4499e-07 2.44414e-07 2.43839e-07 2.43265e-07 2.42692e-07 2.4212e-07 2.41549e-07 2.40979e-07
2.4041e-07 2.39842e-07 2.39275e-07 2.38709e-07 2.38144e-07 2.3758e-07 2.37017e-07 2.36455e-07 2.35894e-07 2.35335e-07
2.34776e-07 2.34218e-07 2.33662e-07 2.33106e-07 2.32552e-07 2.31999e-07 2.31446e-07 2.30895e-07 2.30345e-07 2.29796e-07
2.29249e-07 2.28702e-07 2.28157e-07 2.27612e-07 2.27069e-07 2.26527e-07 2.25986e-07 2.25447e-07 2.24908e-07 2.24371e-07
2.23834e-07 2.233e-07 2.22766e-07 2.22173e-07 2.21529e-07 2.20894e-07 2.20269e-07 2.19654e-07 2.19048e-07 2.18451e-07
2.17862e-07 2.17283e-07 2.16711e-07 2.16148e-07 2.15593e-07 2.15045e-07 2.14505e-07 2.13973e-07 2.13447e-07 2.12929e-07
2.12418e-07 2.11913e-07 2.11415e-07 2.10923e-07 2.10438e-07 2.09959e-07 2.09486e-07 2.09019e-07 2.08557e-07 2.08101e-07
2.0765e-07 2.07206e-07 2.06766e-07 2.06331e-07 2.05902e-07 2.05477e-07 2.05057e-07 2.04643e-07 2.04232e-07 2.03827e-07
2.03426e-07 2.03029e-07 2.02636e-07 2.02249e-07 2.01864e-07 2.01485e-07 2.01108e-07 2.00737e-07 2.00368e-07 2.00004e-07
1.99643e-07 1.99286e-07 1.98933e-07 1.98583e-07 1.98236e-07 1.97894e-07 1.97553e-07 1.97217e-07 1.96884e-07 1.96554e-07
1.96227e-07 1.95903e-07 1.95582e-07 1.95265e-07 1.94949e-07 1.94637e-07 1.94327e-07 1.94021e-07 1.93717e-07 1.93416e-07
1.93117e-07 1.92822e-07 1.92527e-07 1.92238e-07 1.91948e-07 1.91663e-07 1.91378e-07 1.91098e-07 1.90817e-07 1.90543e-07
1.90266e-07 1.89996e-07 1.89722e-07 1.89458e-07 1.89188e-07 1.88927e-07 1.88661e-07 1.88404e-07 1.88142e-07 1.87885e-07
1.87633e-07 1.87342e-07 1.87109e-07 1.86755e-07 1.86646e-07 1.86087e-07 1.86303e-07 1.85507e-07 
Cz 1 449 float
0.05 0.05 0.05 0.05 0.05 0.05 0.05 0.05 0.05 0.05 0.05
0.05 0.05 0.05 0.05 0.05 0.05 0.05 0.05 0.05 0.05
0.05 0.05 0.05 0.05 0.05 0.05 0.05 0.05 0.05 0.05
0.05 0.05 0.05 0.05 0.05 0.05 0.05 0.05 0.05 0.05
0.05 0.05 0.05 0.05 0.05 0.05 0.05 0.05 0.05 0.05
0.05 0.05 0.05 0.05 0.05 0.05 0.05 0.05 0.05 0.05
0.05 0.05 0.05 0.05 0.05 0.05 0.05 0.05 0.05 0.05
0.05 0.05 0.05 0.05 0.05 0.05 0.05 0.05 0.05 0.05
0.05 0.05 0.05 0.05 0.05 0.05 0.05 0.05 0.05 0.05
0.05 0.05 0.05 0.05 0.05 0.05 0.05 0.05 0.05 0.05
0.05 0.05 0.05 0.05 0.05 0.05 0.05 0.05 0.05 0.05
0.05 0.05 0.05 0.05 0.05 0.05 0.05 0.05 0.05 0.05
0.05 0.05 0.05 0.05 0.05 0.05 0.05 0.05 0.05 0.05
0.05 0.05 0.05 0.05 0.05 0.05 0.05 0.05 0.05 0.05
0.05 0.05 0.05 0.05 0.05 0.05 0.05 0.05 0.05 0.05
0.05 0.05 0.05 0.05 0.05 0.05 0.05 0.05 0.05 0.05
0.05 0.05 0.05 0.05 0.05 0.05 0.05 0.05 0.05 0.05
0.05 0.05 0.05 0.05 0.05 0.05 0.05 0.05 0.05 0.05
0.05 0.05 0.05 0.05 0.05 0.05 0.05 0.05 0.05 0.05
0.05 0.05 0.05 0.05 0.05 0.05 0.05 0.05 0.05 0.05
0.05 0.05 0.05 0.05 0.05 0.05 0.05 0.05 0.05 0.05
0.05 0.05 0.05 0.05 0.05 0.05 0.05 0.05 0.05 0.05
0.05 0.05 0.05 0.05 0.05 0.05 0.05 0.05 0.05 0.05
0.05 0.05 0.05 0.05 0.05 0.05 0.05 0.05 0.05 0.05
0.05 0.05 0.05 0.05 0.05 0.05 0.05 0.05 0.05 0.05
0.05 0.05 0.05 0.05 0.05 0.05 0.05 0.05 0.05 0.05
0.05 0.05 0.05 0.05 0.05 0.05 0.05 0.05 0.05 0.05
0.05 0.05 0.05 0.05 0.05 0.05 0.05 0.05 0.05 0.05
0.05 0.05 0.05 0.05 0.05 0.05 0.05 0.05 0.05 0.05
0.05 0.05 0.05 0.05 0.05 0.05 0.05 0.05 0.05 0.05
0.05 0.05 0.05 0.05 0.05 0.05 0.05 0.05 0.05 0.05
0.05 0.05 0.05 0.05 0.05 0.05 0.05 0.05 0.05 0.05
0.05 0.05 0.05 0.05 0.05 0.05 0.05 0.05 0.05 0.05
0.05 0.05 0.05 0.05 0.05 0.05 0.05 0.05 0.05 0.05
0.05 0.05 0.05 0.05 0.05 0.05 0.05 0.05 0.05 0.05
0.05 0.05 0.05 0.05 0.05 0.05 0.05 0.05 0.05 0.05
0.05 0.05 0.05 0.05 0.05 0.05 0.05 0.05 0.05 0.05
0.05 0.05 0.05 0.05 0.05 0.05 0.05 0.05 0.05 0.05
0.05 0.05 0.05 0.05 0.05 0.05 0.05 0.05 0.05 0.05
0.05 0.05 0.05 0.05 0.05 0.05 0.05 0.05 0.05 0.05
0.05 0.05 0.05 0.05 0.05 0.05 0.05 0.05 0.05 0.05
0.05 0.05 0.05 0.05 0.05 0.05 0.05 0.05 0.05 0.05
0.05 0.05 0.05 0.05 0.05 0.05 0.05 0.05 0.05 0.05
0.05 0.05 0.05 0.05 0.05 0.05 0.05 0.05 0.05 0.05
0.05 0.05 0.05 0.05 0.05 0.05 0.05 0.05 
p 1 449 float
87.1919 55.2981 19.3485 1.81535 3.27411 11.4752 16.4709 16.9419 16.0898 17.7903 23.9161
30.8246 34.1548 34.6285 34.2182 33.5442 32.6447 31.6072 30.5539 29.5602 28.6735
27.9095 27.2601 26.6978 26.1908 25.735 25.3293 24.9598 24.6204 24.3148 24.037
23.7718 23.5199 23.2824 23.0559 22.8459 22.6543 22.4762 22.3075 22.1509 22.0028
21.858 21.7169 21.5831 21.4564 21.3332 21.2151 21.1044 20.9994 20.8964 20.7957
20.6985 20.6036 20.51 20.4195 20.3333 20.2504 20.1694 20.0896 20.0114 19.9346
19.8584 19.7838 19.7122 19.6432 19.5752 19.5088 19.444 19.3806 19.3172 19.2545
19.1932 19.1337 19.0753 19.0178 18.9613 18.906 18.8514 18.7968 18.7427 18.69
18.6385 18.5875 18.5371 18.4874 18.4387 18.3903 18.342 18.2941 18.2473 18.2015
18.156 18.1107 18.066 18.022 17.9784 17.9347 17.8915 17.849 17.8074 17.766
17.7247 17.6837 17.6433 17.6035 17.5636 17.5239 17.4848 17.4464 17.4083 17.3701
17.3322 17.2947 17.2576 17.2208 17.184 17.1476 17.1117 17.0762 17.0406 17.0052
16.97 16.9352 16.9008 16.8665 16.8323 16.7983 16.7647 16.7315 16.6981 16.6649
16.6319 16.5993 16.5671 16.5348 16.5026 16.4705 16.4389 16.4075 16.376 16.3446
16.3135 16.2827 16.2521 16.2215 16.1909 16.1605 16.1304 16.1006 16.0707 16.0409
16.0113 15.9819 15.9527 15.9235 15.8944 15.8653 15.8366 15.8081 15.7795 15.751
15.7226 15.6944 15.6664 15.6384 15.6105 15.5827 15.555 15.5276 15.5002 15.4729
15.4455 15.4186 15.3927 15.368 15.3441 15.3198 15.2953 15.2706 15.246 15.2212
15.1961 15.1709 15.1455 15.1201 15.0946 15.0688 15.0429 15.0168 14.9906 14.9643
14.9379 14.9113 14.8845 14.8575 14.8305 14.8034 14.776 14.7484 14.7207 14.693
14.6651 14.6369 14.6086 14.5801 14.5516 14.5229 14.494 14.4649 14.4357 14.4064
14.3768 14.3471 14.3171 14.2872 14.2571 14.2267 14.196 14.1652 14.1343 14.1033
14.072 14.0406 14.0091 13.9775 13.9455 13.9135 13.8814 13.8491 13.8164 13.7837
13.7508 13.7178 13.6846 13.6511 13.6175 13.5838 13.5497 13.5156 13.4813 13.4468
13.412 13.3771 13.342 13.3068 13.2712 13.2355 13.1997 13.1635 13.1272 13.0908
13.0541 13.0171 12.98 12.9428 12.9052 12.8673 12.8294 12.7912 12.7527 12.7141
12.6753 12.6362 12.5969 12.5575 12.5177 12.4777 12.4375 12.3971 12.3563 12.3155
12.2743 12.2328 12.1913 12.1494 12.1071 12.0648 12.0222 11.9792 11.936 11.8927
11.8489 11.8049 11.7607 11.7161 11.6713 11.6263 11.5808 11.5352 11.4894 11.443
11.3965 11.3497 11.3025 11.2551 11.2074 11.1592 11.1109 11.0622 11.0131 10.9639
10.9141 10.8641 10.8138 10.763 10.7121 10.6607 10.6089 10.5569 10.5044 10.4515
10.3984 10.3448 10.2909 10.2366 10.1818 10.1268 10.0712 10.0154 9.95913 9.90232
9.84528 9.78768 9.72972 9.6714 9.61249 9.55329 9.4935 9.4334 9.37281 9.31167
9.2502 9.18811 9.12565 9.06268 8.99919 8.93528 8.87076 8.80585 8.7403 8.67435
8.60784 8.54075 8.4732 8.40503 8.33636 8.26711 8.19729 8.12694 8.05588 7.98444
7.91192 7.83963 7.76463 7.68441 7.59544 7.50338 7.41356 7.32337 7.23372 7.14424
7.05506 6.9661 6.87735 6.78885 6.70051 6.61245 6.52452 6.43689 6.34936 6.2621
6.17489 6.08798 6.00111 5.91457 5.82807 5.74192 5.65581 5.56999 5.48425 5.3987
5.31326 5.22801 5.14285 5.0579 4.97303 4.88841 4.80378 4.71949 4.63512 4.55112
4.46708 4.38333 4.29961 4.21612 4.13265 4.04948 3.96625 3.88341 3.80042 3.71786
3.63519 3.55286 3.47052 3.38847 3.30636 3.22471 3.14282 3.06146 2.97995 2.89882
2.81763 2.73688 2.65595 2.57558 2.49497 2.41494 2.33474 2.25505 2.1752 2.09601
2.01649 1.93773 1.85875 1.78041 1.70189 1.62419 1.54614 1.46904 1.39171 1.31526
1.23865 1.16301 1.08743 1.01246 0.938635 0.863739 0.793604 0.715978 0.656194 0.564962
0.537937 0.39348 0.477909 0.141412 0.599957 -0.394241 1.23335 -1.69509 
k 1 449 float
7.8464e-05 1.75931e-05 1.57475e-05 4.13305e-05 0.000182864 0.000871621 0.004099 0.0183245 0.0799274 0.316711 1.16957
1.7763 2.19493 2.48583 2.67598 2.78576 2.80943 2.80875 2.80302 2.77198 2.73428
2.69759 2.66082 2.62465 2.58958 2.55578 2.52341 2.49254 2.46275 2.43446 2.40753
2.3811 2.3552 2.33002 2.30614 2.2833 2.26166 2.24082 2.22091 2.20173 2.18302
2.16476 2.14698 2.12972 2.11304 2.09689 2.08129 2.06614 2.05154 2.03727 2.0233
2.00959 1.99621 1.98315 1.97045 1.95808 1.94605 1.93434 1.92279 1.91143 1.90027
1.88936 1.87867 1.86824 1.85805 1.84811 1.83839 1.82884 1.81945 1.81021 1.80113
1.79222 1.7835 1.77494 1.76656 1.75834 1.75025 1.74227 1.73442 1.72669 1.71909
1.71162 1.70429 1.69709 1.69 1.683 1.67611 1.66931 1.66261 1.656 1.64951
1.64311 1.63682 1.63061 1.62448 1.61842 1.61244 1.60655 1.60073 1.595 1.58935
1.58377 1.57826 1.57281 1.56744 1.56212 1.55687 1.55168 1.54656 1.54151 1.53652
1.53158 1.52669 1.52186 1.51708 1.51236 1.50769 1.50307 1.49851 1.494 1.48953
1.48511 1.48073 1.4764 1.47212 1.46788 1.46368 1.45953 1.45542 1.45135 1.44731
1.44332 1.43936 1.43544 1.43156 1.42772 1.42392 1.42015 1.41641 1.41271 1.40903
1.40539 1.40178 1.39821 1.39467 1.39116 1.38768 1.38422 1.3808 1.3774 1.37404
1.3707 1.36739 1.36411 1.36086 1.35763 1.35443 1.35125 1.3481 1.34497 1.34187
1.33879 1.33574 1.33271 1.3297 1.32671 1.32375 1.32081 1.31789 1.315 1.31212
1.30927 1.30643 1.30378 1.30128 1.29878 1.29627 1.29376 1.29124 1.28872 1.28619
1.28366 1.28112 1.27858 1.27603 1.27348 1.27092 1.26836 1.26579 1.26322 1.26064
1.25806 1.25547 1.25288 1.25029 1.24769 1.24509 1.24249 1.23988 1.23726 1.23465
1.23203 1.2294 1.22678 1.22415 1.22151 1.21888 1.21624 1.2136 1.21095 1.2083
1.20565 1.203 1.20035 1.19769 1.19503 1.19236 1.18968 1.187 1.18432 1.18163
1.17895 1.17626 1.17357 1.17088 1.16819 1.1655 1.1628 1.1601 1.15741 1.15471
1.15201 1.14931 1.14661 1.14391 1.14121 1.1385 1.1358 1.1331 1.13039 1.12769
1.12499 1.12228 1.11958 1.11688 1.11417 1.11147 1.10876 1.10606 1.10336 1.10066
1.09796 1.09526 1.09256 1.08986 1.08716 1.08447 1.08177 1.07906 1.07636 1.07366
1.07095 1.06825 1.06555 1.06286 1.06016 1.05747 1.05477 1.05208 1.0494 1.04671
1.04403 1.04134 1.03866 1.03599 1.03331 1.03064 1.02797 1.0253 1.02263 1.01997
1.01731 1.01465 1.012 1.00935 1.0067 1.00405 1.00141 0.998771 0.996134 0.993501
0.990871 0.988245 0.985621 0.983002 0.980386 0.977773 0.975164 0.972558 0.969956 0.967358
0.964763 0.962173 0.959586 0.957003 0.954424 0.951849 0.949278 0.946712 0.944149 0.94159
0.939036 0.936486 0.93394 0.931399 0.928861 0.926329 0.9238 0.921277 0.918757 0.916243
0.913732 0.911227 0.908726 0.90623 0.903738 0.901252 0.89877 0.896293 0.89382 0.891353
0.88889 0.886433 0.88398 0.881533 0.87909 0.876654 0.874221 0.871794 0.869371 0.866955
0.864543 0.862137 0.859735 0.85734 0.854949 0.852564 0.850183 0.84781 0.84544 0.843077
0.840717 0.838367 0.836017 0.833415 0.830579 0.827791 0.825043 0.82234 0.819675 0.817054
0.814468 0.811923 0.809412 0.806941 0.804501 0.8021 0.799728 0.797393 0.795086 0.792814
0.790568 0.788357 0.78617 0.784017 0.781887 0.779788 0.777712 0.775666 0.773642 0.771646
0.769671 0.767724 0.765795 0.763895 0.762012 0.760155 0.758316 0.756502 0.754704 0.752932
0.751174 0.749441 0.747721 0.746026 0.744344 0.742685 0.741039 0.739415 0.737803 0.736213
0.734634 0.733076 0.731529 0.730003 0.728487 0.726991 0.725504 0.724039 0.72258 0.721143
0.719712 0.718302 0.716897 0.715514 0.714135 0.712778 0.711424 0.710091 0.708761 0.707453
0.706145 0.704861 0.703575 0.702315 0.701049 0.699812 0.698565 0.697351 0.696122 0.694932
0.693719 0.692552 0.691354 0.69021 0.689024 0.687905 0.686729 0.685634 0.684468 0.683393
0.682241 0.680979 0.679742 0.678358 0.677394 0.675566 0.675301 0.672741 
omega 1 449 float
1.82686e+06 1.82686e+06 1.82686e+06 1.82686e+06 1.82686e+06 1.82686e+06 1.82689e+06 1.82702e+06 1.82757e+06 1.82968e+06 1.83727e+06
1.84264e+06 1.84635e+06 1.84892e+06 1.8506e+06 1.85156e+06 1.85177e+06 1.85176e+06 1.85171e+06 1.85144e+06 1.85111e+06
1.85078e+06 1.85046e+06 1.85014e+06 1.84983e+06 1.84953e+06 1.84925e+06 1.84898e+06 1.84871e+06 1.84846e+06 1.84823e+06
1.84799e+06 1.84776e+06 1.84754e+06 1.84733e+06 1.84713e+06 1.84694e+06 1.84675e+06 1.84658e+06 1.84641e+06 1.84624e+06
1.84608e+06 1.84593e+06 1.84577e+06 1.84563e+06 1.84548e+06 1.84534e+06 1.84521e+06 1.84508e+06 1.84496e+06 1.84483e+06
1.84471e+06 1.84459e+06 1.84448e+06 1.84436e+06 1.84426e+06 1.84415e+06 1.84405e+06 1.84394e+06 1.84384e+06 1.84374e+06
1.84365e+06 1.84355e+06 1.84346e+06 1.84337e+06 1.84328e+06 1.8432e+06 1.84311e+06 1.84303e+06 1.84295e+06 1.84287e+06
1.84279e+06 1.84271e+06 1.84264e+06 1.84256e+06 1.84249e+06 1.84242e+06 1.84235e+06 1.84228e+06 1.84221e+06 1.84214e+06
1.84207e+06 1.84201e+06 1.84195e+06 1.84188e+06 1.84182e+06 1.84176e+06 1.8417e+06 1.84164e+06 1.84158e+06 1.84152e+06
1.84147e+06 1.84141e+06 1.84136e+06 1.8413e+06 1.84125e+06 1.8412e+06 1.84114e+06 1.84109e+06 1.84104e+06 1.84099e+06
1.84094e+06 1.84089e+06 1.84084e+06 1.8408e+06 1.84075e+06 1.8407e+06 1.84066e+06 1.84061e+06 1.84057e+06 1.84052e+06
1.84048e+06 1.84044e+06 1.84039e+06 1.84035e+06 1.84031e+06 1.84027e+06 1.84023e+06 1.84019e+06 1.84015e+06 1.84011e+06
1.84007e+06 1.84003e+06 1.83999e+06 1.83995e+06 1.83991e+06 1.83988e+06 1.83984e+06 1.8398e+06 1.83977e+06 1.83973e+06
1.8397e+06 1.83966e+06 1.83963e+06 1.83959e+06 1.83956e+06 1.83952e+06 1.83949e+06 1.83946e+06 1.83943e+06 1.83939e+06
1.83936e+06 1.83933e+06 1.8393e+06 1.83927e+06 1.83923e+06 1.8392e+06 1.83917e+06 1.83914e+06 1.83911e+06 1.83908e+06
1.83905e+06 1.83902e+06 1.83899e+06 1.83897e+06 1.83894e+06 1.83891e+06 1.83888e+06 1.83885e+06 1.83882e+06 1.8388e+06
1.83877e+06 1.83874e+06 1.83872e+06 1.83869e+06 1.83866e+06 1.83864e+06 1.83861e+06 1.83858e+06 1.83856e+06 1.83853e+06
1.83851e+06 1.83848e+06 1.83846e+06 1.83844e+06 1.83842e+06 1.83839e+06 1.83837e+06 1.83835e+06 1.83833e+06 1.8383e+06
1.83828e+06 1.83826e+06 1.83824e+06 1.83821e+06 1.83819e+06 1.83817e+06 1.83815e+06 1.83812e+06 1.8381e+06 1.83808e+06
1.83805e+06 1.83803e+06 1.83801e+06 1.83798e+06 1.83796e+06 1.83794e+06 1.83792e+06 1.83789e+06 1.83787e+06 1.83785e+06
1.83782e+06 1.8378e+06 1.83778e+06 1.83775e+06 1.83773e+06 1.83771e+06 1.83768e+06 1.83766e+06 1.83764e+06 1.83761e+06
1.83759e+06 1.83756e+06 1.83754e+06 1.83752e+06 1.83749e+06 1.83747e+06 1.83745e+06 1.83742e+06 1.8374e+06 1.83738e+06
1.83735e+06 1.83733e+06 1.8373e+06 1.83728e+06 1.83726e+06 1.83723e+06 1.83721e+06 1.83718e+06 1.83716e+06 1.83714e+06
1.83711e+06 1.83709e+06 1.83706e+06 1.83704e+06 1.83702e+06 1.83699e+06 1.83697e+06 1.83694e+06 1.83692e+06 1.8369e+06
1.83687e+06 1.83685e+06 1.83682e+06 1.8368e+06 1.83678e+06 1.83675e+06 1.83673e+06 1.8367e+06 1.83668e+06 1.83666e+06
1.83663e+06 1.83661e+06 1.83658e+06 1.83656e+06 1.83654e+06 1.83651e+06 1.83649e+06 1.83646e+06 1.83644e+06 1.83642e+06