0 	0.00087701326
2.5125628e-05 	0.00087702185
5.0251256e-05 	0.00087713985
7.5376884e-05 	0.00087749564
0.00010050251 	0.00087785326
0.00012562814 	0.00087821197
0.00015075377 	0.00087851045
0.0001758794 	0.00087880064
0.00020100503 	0.00087909485
0.00022613065 	0.00087939006
0.00025125628 	0.00087968648
0.00027638191 	0.0008799846
0.00030150754 	0.00088028455
0.00032663317 	0.00088060426
0.00035175879 	0.00088093734
0.00037688442 	0.00088127132
0.00040201005 	0.00088160571
0.00042713568 	0.00088197778
0.00045226131 	0.00088236383
0.00047738693 	0.00088274872
0.00050251256 	0.00088313321
0.00052763819 	0.00088356753
0.00055276382 	0.00088402219
0.00057788945 	0.00088447355
0.00060301508 	0.00088492314
0.0006281407 	0.00088541709
0.00065326633 	0.00088595009
0.00067839196 	0.00088647957
0.00070351759 	0.00088700359
0.00072864322 	0.00088754377
0.00075376884 	0.00088815366
0.00077889447 	0.00088876356
0.0008040201 	0.00088936112
0.00082914573 	0.00088995821
0.00085427136 	0.00089060727
0.00087939698 	0.0008912816
0.00090452261 	0.0008919502
0.00092964824 	0.00089260842
0.00095477387 	0.00089326764
0.0009798995 	0.00089398575
0.0010050251 	0.00089470614
0.0010301508 	0.00089541596
0.0010552764 	0.00089611771
0.001080402 	0.00089682422
0.0011055276 	0.0008975728
0.0011306533 	0.00089832138
0.0011557789 	0.000899058
0.0011809045 	0.00089978618
0.0012060302 	0.00090051611
0.0012311558 	0.00090127896
0.0012562814 	0.00090204246
0.001281407 	0.00090279713
0.0013065327 	0.00090353903
0.0013316583 	0.00090428092
0.0013567839 	0.0009050444
0.0013819095 	0.00090581472
0.0014070352 	0.00090658451
0.0014321608 	0.00090733238
0.0014572864 	0.00090808025
0.0014824121 	0.00090883501
0.0015075377 	0.00090960797
0.0015326633 	0.00091038093
0.0015577889 	0.00091114405
0.0015829146 	0.00091189388
0.0016080402 	0.0009126437
0.0016331658 	0.0009134071
0.0016582915 	0.00091418077
0.0016834171 	0.00091495445
0.0017085427 	0.00091571379
0.0017336683 	0.00091646372
0.001758794 	0.00091721366
0.0017839196 	0.00091797858
0.0018090452 	0.00091875216
0.0018341709 	0.00091952573
0.0018592965 	0.00092028592
0.0018844221 	0.00092103517
0.0019095477 	0.00092178443
0.0019346734 	0.00092254471
0.001959799 	0.00092331783
0.0019849246 	0.00092409095
0.0020100503 	0.00092485768
0.0020351759 	0.00092560591
0.0020603015 	0.00092635414
0.0020854271 	0.00092710383
0.0021105528 	0.0009278759
0.0021356784 	0.00092864837
0.002160804 	0.00092942083
0.0021859296 	0.00093017518
0.0022110553 	0.00093092219
0.0022361809 	0.0009316692
0.0022613065 	0.00093242534
0.0022864322 	0.00093319699
0.0023115578 	0.00093396864
0.0023366834 	0.00093474029
0.002361809 	0.00093548836
0.0023869347 	0.00093623401
0.0024120603 	0.00093697966
0.0024371859 	0.0009377361
0.0024623116 	0.00093850677
0.0024874372 	0.00093927745
0.0025125628 	0.00094004813
0.0025376884 	0.00094079676
0.0025628141 	0.0009415409
0.0025879397 	0.00094228504
0.0026130653 	0.00094303467
0.002638191 	0.0009438042
0.0026633166 	0.00094457373
0.0026884422 	0.00094534326
0.0027135678 	0.00094609998
0.0027386935 	0.00094684248
0.0027638191 	0.00094758498
0.0027889447 	0.00094832748
0.0028140704 	0.0009490883
0.002839196 	0.00094985649
0.0028643216 	0.00095062468
0.0028894472 	0.00095139287
0.0029145729 	0.00095213842
0.0029396985 	0.00095287912
0.0029648241 	0.00095361981
0.0029899497 	0.0009543605
0.0030150754 	0.00095512487
0.003040201 	0.00095589152
0.0030653266 	0.00095665816
0.0030904523 	0.0009574248
0.0031155779 	0.00095816718
0.0031407035 	0.0009589059
0.0031658291 	0.00095964462
0.0031909548 	0.00096038334
0.0032160804 	0.00096114301
0.003241206 	0.00096190788
0.0032663317 	0.00096267274
0.0032914573 	0.0009634376
0.0033165829 	0.00096418556
0.0033417085 	0.00096492212
0.0033668342 	0.00096565869
0.0033919598 	0.00096639525
0.0034170854 	0.00096714146
0.0034422111 	0.00096790431
0.0034673367 	0.00096866715
0.0034924623 	0.00096942999
0.0035175879 	0.00097019283
0.0035427136 	0.00097092712
0.0035678392 	0.00097166132
0.0035929648 	0.00097239553
0.0036180905 	0.00097312973
0.0036432161 	0.00097387969
0.0036683417 	0.00097464024
0.0036934673 	0.0009754008
0.003718593 	0.00097616136
0.0037437186 	0.00097692035
0.0037688442 	0.00097765197
0.0037939698 	0.00097838359
0.0038190955 	0.00097911522
0.0038442211 	0.00097984684
0.0038693467 	0.0009805911
0.0038944724 	0.00098134909
0.003919598 	0.00098210708
0.0039447236 	0.00098286507
0.0039698492 	0.00098362306
0.0039949749 	0.00098435901
0.0040201005 	0.00098508781
0.0040452261 	0.00098581661
0.0040703518 	0.00098654541
0.0040954774 	0.00098727525
0.004120603 	0.00098802928
0.0041457286 	0.0009887844
0.0041708543 	0.00098953953
0.0041959799 	0.00099029465
0.0042211055 	0.00099104723
0.0042462312 	0.00099177295
0.0042713568 	0.00099249867
0.0042964824 	0.00099322439
0.004321608 	0.00099395011
0.0043467337 	0.00099467987
0.0043718593 	0.00099543141
0.0043969849 	0.00099618334
0.0044221106 	0.00099693527
0.0044472362 	0.0009976872
0.0044723618 	0.00099843815
0.0044974874 	0.00099916051
0.0045226131 	0.00099988286
0.0045477387 	0.0010006052
0.0045728643 	0.0010013276
0.0045979899 	0.0010020499
0.0046231156 	0.0010027954
0.0046482412 	0.0010035438
0.0046733668 	0.0010042922
0.0046984925 	0.0010050406
0.0047236181 	0.001005789
0.0047487437 	0.0010065201
0.0047738693 	0.0010072388
0.004798995 	0.0010079575
0.0048241206 	0.0010086762
0.0048492462 	0.0010093949
0.0048743719 	0.0010101195
0.0048994975 	0.001010864
0.0049246231 	0.0010116084
0.0049497487 	0.0010123529
0.0049748744 	0.0010130974
0.005 	0.0010138418
