# vtk DataFile Version 2.0
top
ASCII
DATASET POLYDATA
POINTS 482 float
0 0.06 0 0 0.06 0.001 0.000178947 0.06 0.001 0.000178947 0.06
0 0.000359513 0.06 0.001 0.000359513 0.06 0 0.000541712 0.06 0.001
0.000541712 0.06 0 0.000725559 0.06 0.001 0.000725559 0.06 0 0.000911068
0.06 0.001 0.000911068 0.06 0 0.00109826 0.06 0.001 0.00109826 0.06
0 0.00128714 0.06 0.001 0.00128714 0.06 0 0.00147772 0.06 0.001
0.00147772 0.06 0 0.00167004 0.06 0.001 0.00167004 0.06 0 0.00186409
0.06 0.001 0.00186409 0.06 0 0.0020599 0.06 0.001 0.0020599 0.06
0 0.00225747 0.06 0.001 0.00225747 0.06 0 0.00245684 0.06 0.001
0.00245684 0.06 0 0.00265801 0.06 0.001 0.00265801 0.06 0 0.00286099
0.06 0.001 0.00286099 0.06 0 0.00306582 0.06 0.001 0.00306582 0.06
0 0.00327249 0.06 0.001 0.00327249 0.06 0 0.00348104 0.06 0.001
0.00348104 0.06 0 0.00369147 0.06 0.001 0.00369147 0.06 0 0.00390381
0.06 0.001 0.00390381 0.06 0 0.00411806 0.06 0.001 0.00411806 0.06
0 0.00433425 0.06 0.001 0.00433425 0.06 0 0.0045524 0.06 0.001
0.0045524 0.06 0 0.00477252 0.06 0.001 0.00477252 0.06 0 0.00499464
0.06 0.001 0.00499464 0.06 0 0.00521876 0.06 0.001 0.00521876 0.06
0 0.0054449 0.06 0.001 0.0054449 0.06 0 0.0056731 0.06 0.001
0.0056731 0.06 0 0.00590336 0.06 0.001 0.00590336 0.06 0 0.0061357
0.06 0.001 0.0061357 0.06 0 0.00637014 0.06 0.001 0.00637014 0.06
0 0.0066067 0.06 0.001 0.0066067 0.06 0 0.0068454 0.06 0.001
0.0068454 0.06 0 0.00708626 0.06 0.001 0.00708626 0.06 0 0.0073293
0.06 0.001 0.0073293 0.06 0 0.00757454 0.06 0.001 0.00757454 0.06
0 0.00782199 0.06 0.001 0.00782199 0.06 0 0.00807168 0.06 0.001
0.00807168 0.06 0 0.00832364 0.06 0.001 0.00832364 0.06 0 0.00857787
0.06 0.001 0.00857787 0.06 0 0.0088344 0.06 0.001 0.0088344 0.06
0 0.00909325 0.06 0.001 0.00909325 0.06 0 0.00935444 0.06 0.001
0.00935444 0.06 0 0.00961799 0.06 0.001 0.00961799 0.06 0 0.00988393
0.06 0.001 0.00988393 0.06 0 0.0101523 0.06 0.001 0.0101523 0.06
0 0.010423 0.06 0.001 0.010423 0.06 0 0.0106963 0.06 0.001
0.0106963 0.06 0 0.0109719 0.06 0.001 0.0109719 0.06 0 0.0112501
0.06 0.001 0.0112501 0.06 0 0.0115308 0.06 0.001 0.0115308 0.06
0 0.0118141 0.06 0.001 0.0118141 0.06 0 0.0120999 0.06 0.001
0.0120999 0.06 0 0.0123882 0.06 0.001 0.0123882 0.06 0 0.0126792
0.06 0.001 0.0126792 0.06 0 0.0129729 0.06 0.001 0.0129729 0.06
0 0.0132691 0.06 0.001 0.0132691 0.06 0 0.0135681 0.06 0.001
0.0135681 0.06 0 0.0138698 0.06 0.001 0.0138698 0.06 0 0.0141742
0.06 0.001 0.0141742 0.06 0 0.0144813 0.06 0.001 0.0144813 0.06
0 0.0147912 0.06 0.001 0.0147912 0.06 0 0.015104 0.06 0.001
0.015104 0.06 0 0.0154195 0.06 0.001 0.0154195 0.06 0 0.0157379
0.06 0.001 0.0157379 0.06 0 0.0160592 0.06 0.001 0.0160592 0.06
0 0.0163834 0.06 0.001 0.0163834 0.06 0 0.0167105 0.06 0.001
0.0167105 0.06 0 0.0170406 0.06 0.001 0.0170406 0.06 0 0.0173737
0.06 0.001 0.0173737 0.06 0 0.0177098 0.06 0.001 0.0177098 0.06
0 0.0180489 0.06 0.001 0.0180489 0.06 0 0.0183911 0.06 0.001
0.0183911 0.06 0 0.0187364 0.06 0.001 0.0187364 0.06 0 0.0190848
0.06 0.001 0.0190848 0.06 0 0.0194363 0.06 0.001 0.0194363 0.06
0 0.0197911 0.06 0.001 0.0197911 0.06 0 0.020149 0.06 0.001
0.020149 0.06 0 0.0205102 0.06 0.001 0.0205102 0.06 0 0.0208747
0.06 0.001 0.0208747 0.06 0 0.0212424 0.06 0.001 0.0212424 0.06
0 0.0216135 0.06 0.001 0.0216135 0.06 0 0.0219879 0.06 0.001
0.0219879 0.06 0 0.0223657 0.06 0.001 0.0223657 0.06 0 0.022747
0.06 0.001 0.022747 0.06 0 0.0231316 0.06 0.001 0.0231316 0.06
0 0.0235198 0.06 0.001 0.0235198 0.06 0 0.0239115 0.06 0.001
0.0239115 0.06 0 0.0243067 0.06 0.001 0.0243067 0.06 0 0.0247055
0.06 0.001 0.0247055 0.06 0 0.0251079 0.06 0.001 0.0251079 0.06
0 0.0255139 0.06 0.001 0.0255139 0.06 0 0.0259236 0.06 0.001
0.0259236 0.06 0 0.026337 0.06 0.001 0.026337 0.06 0 0.0267542
0.06 0.001 0.0267542 0.06 0 0.0271751 0.06 0.001 0.0271751 0.06
0 0.0275998 0.06 0.001 0.0275998 0.06 0 0.0280284 0.06 0.001
0.0280284 0.06 0 0.0284608 0.06 0.001 0.0284608 0.06 0 0.0288972
0.06 0.001 0.0288972 0.06 0 0.0293375 0.06 0.001 0.0293375 0.06
0 0.0297818 0.06 0.001 0.0297818 0.06 0 0.0302301 0.06 0.001
0.0302301 0.06 0 0.0306825 0.06 0.001 0.0306825 0.06 0 0.0311389
0.06 0.001 0.0311389 0.06 0 0.0315995 0.06 0.001 0.0315995 0.06
0 0.0320643 0.06 0.001 0.0320643 0.06 0 0.0325332 0.06 0.001
0.0325332 0.06 0 0.0330064 0.06 0.001 0.0330064 0.06 0 0.0334839
0.06 0.001 0.0334839 0.06 0 0.0339657 0.06 0.001 0.0339657 0.06
0 0.0344518 0.06 0.001 0.0344518 0.06 0 0.0349424 0.06 0.001
0.0349424 0.06 0 0.0354373 0.06 0.001 0.0354373 0.06 0 0.0359368
0.06 0.001 0.0359368 0.06 0 0.0364408 0.06 0.001 0.0364408 0.06
0 0.0369493 0.06 0.001 0.0369493 0.06 0 0.0374625 0.06 0.001
0.0374625 0.06 0 0.0379802 0.06 0.001 0.0379802 0.06 0 0.0385027
0.06 0.001 0.0385027 0.06 0 0.0390299 0.06 0.001 0.0390299 0.06
0 0.0395618 0.06 0.001 0.0395618 0.06 0 0.0400986 0.06 0.001
0.0400986 0.06 0 0.0406402 0.06 0.001 0.0406402 0.06 0 0.0411867
0.06 0.001 0.0411867 0.06 0 0.0417382 0.06 0.001 0.0417382 0.06
0 0.0422946 0.06 0.001 0.0422946 0.06 0 0.0428561 0.06 0.001
0.0428561 0.06 0 0.0434227 0.06 0.001 0.0434227 0.06 0 0.0439943
0.06 0.001 0.0439943 0.06 0 0.0445712 0.06 0.001 0.0445712 0.06
0 0.0451533 0.06 0.001 0.0451533 0.06 0 0.0457406 0.06 0.001
0.0457406 0.06 0 0.0463332 0.06 0.001 0.0463332 0.06 0 0.0469313
0.06 0.001 0.0469313 0.06 0 0.0475347 0.06 0.001 0.0475347 0.06
0 0.0481435 0.06 0.001 0.0481435 0.06 0 0.0487579 0.06 0.001
0.0487579 0.06 0 0.0493779 0.06 0.001 0.0493779 0.06 0 0.0500034
0.06 0.001 0.0500034 0.06 0 0.0506346 0.06 0.001 0.0506346 0.06
0 0.0512715 0.06 0.001 0.0512715 0.06 0 0.0519142 0.06 0.001
0.0519142 0.06 0 0.0525627 0.06 0.001 0.0525627 0.06 0 0.053217
0.06 0.001 0.053217 0.06 0 0.0538773 0.06 0.001 0.0538773 0.06
0 0.0545435 0.06 0.001 0.0545435 0.06 0 0.0552158 0.06 0.001
0.0552158 0.06 0 0.0558941 0.06 0.001 0.0558941 0.06 0 0.0565786
0.06 0.001 0.0565786 0.06 0 0.0572693 0.06 0.001 0.0572693 0.06
0 0.0579662 0.06 0.001 0.0579662 0.06 0 0.0586694 0.06 0.001
0.0586694 0.06 0 0.059379 0.06 0.001 0.059379 0.06 0 0.060095
0.06 0.001 0.060095 0.06 0 0.0608175 0.06 0.001 0.0608175 0.06
0 0.0615465 0.06 0.001 0.0615465 0.06 0 0.0622821 0.06 0.001
0.0622821 0.06 0 0.0630243 0.06 0.001 0.0630243 0.06 0 0.0637733
0.06 0.001 0.0637733 0.06 0 0.0645291 0.06 0.001 0.0645291 0.06
0 0.0652916 0.06 0.001 0.0652916 0.06 0 0.0660611 0.06 0.001
0.0660611 0.06 0 0.0668376 0.06 0.001 0.0668376 0.06 0 0.067621
0.06 0.001 0.067621 0.06 0 0.0684116 0.06 0.001 0.0684116 0.06
0 0.0692092 0.06 0.001 0.0692092 0.06 0 0.0700142 0.06 0.001
0.0700142 0.06 0 0.0708263 0.06 0.001 0.0708263 0.06 0 0.0716459
0.06 0.001 0.0716459 0.06 0 0.0724728 0.06 0.001 0.0724728 0.06
0 0.0733073 0.06 0.001 0.0733073 0.06 0 0.0741492 0.06 0.001
0.0741492 0.06 0 0.0749988 0.06 0.001 0.0749988 0.06 0 0.0758561
0.06 0.001 0.0758561 0.06 0 0.0767211 0.06 0.001 0.0767211 0.06
0 0.077594 0.06 0.001 0.077594 0.06 0 0.0784747 0.06 0.001
0.0784747 0.06 0 0.0793634 0.06 0.001 0.0793634 0.06 0 0.0802602
0.06 0.001 0.0802602 0.06 0 0.081165 0.06 0.001 0.081165 0.06
0 0.0820781 0.06 0.001 0.0820781 0.06 0 0.0829994 0.06 0.001
0.0829994 0.06 0 0.083929 0.06 0.001 0.083929 0.06 0 0.084867
0.06 0.001 0.084867 0.06 0 0.0858136 0.06 0.001 0.0858136 0.06
0 0.0867686 0.06 0.001 0.0867686 0.06 0 0.0877324 0.06 0.001
0.0877324 0.06 0 0.0887048 0.06 0.001 0.0887048 0.06 0 0.089686
0.06 0.001 0.089686 0.06 0 0.0906762 0.06 0.001 0.0906762 0.06
0 0.0916752 0.06 0.001 0.0916752 0.06 0 0.0926833 0.06 0.001
0.0926833 0.06 0 0.0937005 0.06 0.001 0.0937005 0.06 0 0.094727
0.06 0.001 0.094727 0.06 0 0.0957627 0.06 0.001 0.0957627 0.06
0 0.0968077 0.06 0.001 0.0968077 0.06 0 0.0978623 0.06 0.001
0.0978623 0.06 0 0.0989263 0.06 0.001 0.0989263 0.06 0 0.1
0.06 0.001 0.1 0.06 0 -0.02 0.06 0 -0.02 0.06
0.001 -0.018734 0.06 0.001 -0.018734 0.06 0 -0.0175406 0.06 0.001
-0.0175406 0.06 0 -0.0164157 0.06 0.001 -0.0164157 0.06 0 -0.0153552
0.06 0.001 -0.0153552 0.06 0 -0.0143555 0.06 0.001 -0.0143555 0.06
0 -0.0134132 0.06 0.001 -0.0134132 0.06 0 -0.0125248 0.06 0.001
-0.0125248 0.06 0 -0.0116874 0.06 0.001 -0.0116874 0.06 0 -0.010898
0.06 0.001 -0.010898 0.06 0 -0.0101539 0.06 0.001 -0.0101539 0.06
0 -0.0094524 0.06 0.001 -0.0094524 0.06 0 -0.00879114 0.06 0.001
-0.00879114 0.06 0 -0.00816779 0.06 0.001 -0.00816779 0.06 0 -0.00758018
0.06 0.001 -0.00758018 0.06 0 -0.00702626 0.06 0.001 -0.00702626 0.06
0 -0.00650409 0.06 0.001 -0.00650409 0.06 0 -0.00601187 0.06 0.001
-0.00601187 0.06 0 -0.00554786 0.06 0.001 -0.00554786 0.06 0 -0.00511045
0.06 0.001 -0.00511045 0.06 0 -0.00469812 0.06 0.001 -0.00469812 0.06
0 -0.00430943 0.06 0.001 -0.00430943 0.06 0 -0.00394303 0.06 0.001
-0.00394303 0.06 0 -0.00359763 0.06 0.001 -0.00359763 0.06 0 -0.00327203
0.06 0.001 -0.00327203 0.06 0 -0.0029651 0.06 0.001 -0.0029651 0.06
0 -0.00267577 0.06 0.001 -0.00267577 0.06 0 -0.00240302 0.06 0.001
-0.00240302 0.06 0 -0.00214592 0.06 0.001 -0.00214592 0.06 0 -0.00190355
0.06 0.001 -0.00190355 0.06 0 -0.00167508 0.06 0.001 -0.00167508 0.06
0 -0.0014597 0.06 0.001 -0.0014597 0.06 0 -0.00125668 0.06 0.001
-0.00125668 0.06 0 -0.00106529 0.06 0.001 -0.00106529 0.06 0 -0.000884876
0.06 0.001 -0.000884876 0.06 0 -0.000714806 0.06 0.001 -0.000714806 0.06
0 -0.000554486 0.06 0.001 -0.000554486 0.06 0 -0.000403357 0.06 0.001
-0.000403357 0.06 0 -0.000260893 0.06 0.001 -0.000260893 0.06 0 -0.000126597
0.06 0.001 -0.000126597 0.06 0 
POLYGONS 240 1200
4 0 1 2 3 4 3 2 4 5 4
5 4 6 7 4 7 6 8 9 4
9 8 10 11 4 11 10 12 13 4
13 12 14 15 4 15 14 16 17 4
17 16 18 19 4 19 18 20 21 4
21 20 22 23 4 23 22 24 25 4
25 24 26 27 4 27 26 28 29 4
29 28 30 31 4 31 30 32 33 4
33 32 34 35 4 35 34 36 37 4
37 36 38 39 4 39 38 40 41 4
41 40 42 43 4 43 42 44 45 4
45 44 46 47 4 47 46 48 49 4
49 48 50 51 4 51 50 52 53 4
53 52 54 55 4 55 54 56 57 4
57 56 58 59 4 59 58 60 61 4
61 60 62 63 4 63 62 64 65 4
65 64 66 67 4 67 66 68 69 4
69 68 70 71 4 71 70 72 73 4
73 72 74 75 4 75 74 76 77 4
77 76 78 79 4 79 78 80 81 4
81 80 82 83 4 83 82 84 85 4
85 84 86 87 4 87 86 88 89 4
89 88 90 91 4 91 90 92 93 4
93 92 94 95 4 95 94 96 97 4
97 96 98 99 4 99 98 100 101 4
101 100 102 103 4 103 102 104 105 4
105 104 106 107 4 107 106 108 109 4
109 108 110 111 4 111 110 112 113 4
113 112 114 115 4 115 114 116 117 4
117 116 118 119 4 119 118 120 121 4
121 120 122 123 4 123 122 124 125 4
125 124 126 127 4 127 126 128 129 4
129 128 130 131 4 131 130 132 133 4
133 132 134 135 4 135 134 136 137 4
137 136 138 139 4 139 138 140 141 4
141 140 142 143 4 143 142 144 145 4
145 144 146 147 4 147 146 148 149 4
149 148 150 151 4 151 150 152 153 4
153 152 154 155 4 155 154 156 157 4
157 156 158 159 4 159 158 160 161 4
161 160 162 163 4 163 162 164 165 4
165 164 166 167 4 167 166 168 169 4
169 168 170 171 4 171 170 172 173 4
173 172 174 175 4 175 174 176 177 4
177 176 178 179 4 179 178 180 181 4
181 180 182 183 4 183 182 184 185 4
185 184 186 187 4 187 186 188 189 4
189 188 190 191 4 191 190 192 193 4
193 192 194 195 4 195 194 196 197 4
197 196 198 199 4 199 198 200 201 4
201 200 202 203 4 203 202 204 205 4
205 204 206 207 4 207 206 208 209 4
209 208 210 211 4 211 210 212 213 4
213 212 214 215 4 215 214 216 217 4
217 216 218 219 4 219 218 220 221 4
221 220 222 223 4 223 222 224 225 4
225 224 226 227 4 227 226 228 229 4
229 228 230 231 4 231 230 232 233 4
233 232 234 235 4 235 234 236 237 4
237 236 238 239 4 239 238 240 241 4
241 240 242 243 4 243 242 244 245 4
245 244 246 247 4 247 246 248 249 4
249 248 250 251 4 251 250 252 253 4
253 252 254 255 4 255 254 256 257 4
257 256 258 259 4 259 258 260 261 4
261 260 262 263 4 263 262 264 265 4
265 264 266 267 4 267 266 268 269 4
269 268 270 271 4 271 270 272 273 4
273 272 274 275 4 275 274 276 277 4
277 276 278 279 4 279 278 280 281 4
281 280 282 283 4 283 282 284 285 4
285 284 286 287 4 287 286 288 289 4
289 288 290 291 4 291 290 292 293 4
293 292 294 295 4 295 294 296 297 4
297 296 298 299 4 299 298 300 301 4
301 300 302 303 4 303 302 304 305 4
305 304 306 307 4 307 306 308 309 4
309 308 310 311 4 311 310 312 313 4
313 312 314 315 4 315 314 316 317 4
317 316 318 319 4 319 318 320 321 4
321 320 322 323 4 323 322 324 325 4
325 324 326 327 4 327 326 328 329 4
329 328 330 331 4 331 330 332 333 4
333 332 334 335 4 335 334 336 337 4
337 336 338 339 4 339 338 340 341 4
341 340 342 343 4 343 342 344 345 4
345 344 346 347 4 347 346 348 349 4
349 348 350 351 4 351 350 352 353 4
353 352 354 355 4 355 354 356 357 4
357 356 358 359 4 359 358 360 361 4
361 360 362 363 4 363 362 364 365 4
365 364 366 367 4 367 366 368 369 4
369 368 370 371 4 371 370 372 373 4
373 372 374 375 4 375 374 376 377 4
377 376 378 379 4 379 378 380 381 4
381 380 382 383 4 383 382 384 385 4
385 384 386 387 4 387 386 388 389 4
389 388 390 391 4 391 390 392 393 4
393 392 394 395 4 395 394 396 397 4
397 396 398 399 4 399 398 400 401 4
402 403 404 405 4 405 404 406 407 4
407 406 408 409 4 409 408 410 411 4
411 410 412 413 4 413 412 414 415 4
415 414 416 417 4 417 416 418 419 4
419 418 420 421 4 421 420 422 423 4
423 422 424 425 4 425 424 426 427 4
427 426 428 429 4 429 428 430 431 4
431 430 432 433 4 433 432 434 435 4
435 434 436 437 4 437 436 438 439 4
439 438 440 441 4 441 440 442 443 4
443 442 444 445 4 445 444 446 447 4
447 446 448 449 4 449 448 450 451 4
451 450 452 453 4 453 452 454 455 4
455 454 456 457 4 457 456 458 459 4
459 458 460 461 4 461 460 462 463 4
463 462 464 465 4 465 464 466 467 4
467 466 468 469 4 469 468 470 471 4
471 470 472 473 4 473 472 474 475 4
475 474 476 477 4 477 476 478 479 4
479 478 480 481 4 481 480 1 0 
CELL_DATA 240
FIELD attributes 3
patchID 1 240 float
0 0 0 0 0 0 0 0 0 0 0
0 0 0 0 0 0 0 0 0 0
0 0 0 0 0 0 0 0 0 0
0 0 0 0 0 0 0 0 0 0
0 0 0 0 0 0 0 0 0 0
0 0 0 0 0 0 0 0 0 0
0 0 0 0 0 0 0 0 0 0
0 0 0 0 0 0 0 0 0 0
0 0 0 0 0 0 0 0 0 0
0 0 0 0 0 0 0 0 0 0
0 0 0 0 0 0 0 0 0 0
0 0 0 0 0 0 0 0 0 0
0 0 0 0 0 0 0 0 0 0
0 0 0 0 0 0 0 0 0 0
0 0 0 0 0 0 0 0 0 0
0 0 0 0 0 0 0 0 0 0
0 0 0 0 0 0 0 0 0 0
0 0 0 0 0 0 0 0 0 0
0 0 0 0 0 0 0 0 0 0
0 0 0 0 0 0 0 0 0 0
0 0 0 0 0 0 0 0 0 0
0 0 0 0 0 0 0 0 0 0
0 0 0 0 0 0 0 0 0 0
0 0 0 0 0 0 0 0 0 
p 1 240 float
0 0 0 0 0 0 0 0 0 0 0
0 0 0 0 0 0 0 0 0 0
0 0 0 0 0 0 0 0 0 0
0 0 0 0 0 0 0 0 0 0
0 0 0 0 0 0 0 0 0 0
0 0 0 0 0 0 0 0 0 0
0 0 0 0 0 0 0 0 0 0
0 0 0 0 0 0 0 0 0 0
0 0 0 0 0 0 0 0 0 0
0 0 0 0 0 0 0 0 0 0
0 0 0 0 0 0 0 0 0 0
0 0 0 0 0 0 0 0 0 0
0 0 0 0 0 0 0 0 0 0
0 0 0 0 0 0 0 0 0 0
0 0 0 0 0 0 0 0 0 0
0 0 0 0 0 0 0 0 0 0
0 0 0 0 0 0 0 0 0 0
0 0 0 0 0 0 0 0 0 0
0 0 0 0 0 0 0 0 0 0
0 0 0 0 0 0 0 0 0 0
0 0 0 0 0 0 0 0 0 0
0 0 0 0 0 0 0 0 0 0
0 0 0 0 0 0 0 0 0 0
0 0 0 0 0 0 0 0 0 
U 3 240 float
0.5 0 0 0.5 0 0 0.5 0 0 0.5 0
0 0.5 0 0 0.5 0 0 0.5 0 0
0.5 0 0 0.5 0 0 0.5 0 0 0.5
0 0 0.5 0 0 0.5 0 0 0.5 0
0 0.5 0 0 0.5 0 0 0.5 0 0
0.5 0 0 0.5 0 0 0.5 0 0 0.5
0 0 0.5 0 0 0.5 0 0 0.5 0
0 0.5 0 0 0.5 0 0 0.5 0 0
0.5 0 0 0.5 0 0 0.5 0 0 0.5
0 0 0.5 0 0 0.5 0 0 0.5 0
0 0.5 0 0 0.5 0 0 0.5 0 0
0.5 0 0 0.5 0 0 0.5 0 0 0.5
0 0 0.5 0 0 0.5 0 0 0.5 0
0 0.5 0 0 0.5 0 0 0.5 0 0
0.5 0 0 0.5 0 0 0.5 0 0 0.5
0 0 0.5 0 0 0.5 0 0 0.5 0
0 0.5 0 0 0.5 0 0 0.5 0 0
0.5 0 0 0.5 0 0 0.5 0 0 0.5
0 0 0.5 0 0 0.5 0 0 0.5 0
0 0.5 0 0 0.5 0 0 0.5 0 0
0.5 0 0 0.5 0 0 0.5 0 0 0.5
0 0 0.5 0 0 0.5 0 0 0.5 0
0 0.5 0 0 0.5 0 0 0.5 0 0
0.5 0 0 0.5 0 0 0.5 0 0 0.5
0 0 0.5 0 0 0.5 0 0 0.5 0
0 0.5 0 0 0.5 0 0 0.5 0 0
0.5 0 0 0.5 0 0 0.5 0 0 0.5
0 0 0.5 0 0 0.5 0 0 0.5 0
0 0.5 0 0 0.5 0 0 0.5 0 0
0.5 0 0 0.5 0 0 0.5 0 0 0.5
0 0 0.5 0 0 0.5 0 0 0.5 0
0 0.5 0 0 0.5 0 0 0.5 0 0
0.5 0 0 0.5 0 0 0.5 0 0 0.5
0 0 0.5 0 0 0.5 0 0 0.5 0
0 0.5 0 0 0.5 0 0 0.5 0 0
0.5 0 0 0.5 0 0 0.5 0 0 0.5
0 0 0.5 0 0 0.5 0 0 0.5 0
0 0.5 0 0 0.5 0 0 0.5 0 0
0.5 0 0 0.5 0 0 0.5 0 0 0.5
0 0 0.5 0 0 0.5 0 0 0.5 0
0 0.5 0 0 0.5 0 0 0.5 0 0
0.5 0 0 0.5 0 0 0.5 0 0 0.5
0 0 0.5 0 0 0.5 0 0 0.5 0
0 0.5 0 0 0.5 0 0 0.5 0 0
0.5 0 0 0.5 0 0 0.5 0 0 0.5
0 0 0.5 0 0 0.5 0 0 0.5 0
0 0.5 0 0 0.5 0 0 0.5 0 0
0.5 0 0 0.5 0 0 0.5 0 0 0.5
0 0 0.5 0 0 0.5 0 0 0.5 0
0 0.5 0 0 0.5 0 0 0.5 0 0
0.5 0 0 0.5 0 0 0.5 0 0 0.5
0 0 0.5 0 0 0.5 0 0 0.5 0
0 0.5 0 0 0.5 0 0 0.5 0 0
0.5 0 0 0.5 0 0 0.5 0 0 0.5
0 0 0.5 0 0 0.5 0 0 0.5 0
0 0.5 0 0 0.5 0 0 0.5 0 0
0.5 0 0 0.5 0 0 0.5 0 0 0.5
0 0 0.5 0 0 0.5 0 0 0.5 0
0 0.5 0 0 0.5 0 0 0.5 0 0
0.5 0 0 0.5 0 0 0.5 0 0 0.5
0 0 0.5 0 0 0.5 0 0 0.5 0
0 0.5 0 0 0.5 0 0 0.5 0 0
0.5 0 0 0.5 0 0 0.5 0 0 0.5
0 0 0.5 0 0 0.5 0 0 0.5 0
0 0.5 0 0 0.5 0 0 0.5 0 0
0.5 0 0 0.5 0 0 0.5 0 0 0.5
0 0 0.5 0 0 0.5 0 0 0.5 0
0 0.5 0 0 0.5 0 0 0.5 0 0
0.5 0 0 0.5 0 0 0.5 0 0 0.5
0 0 0.5 0 0 0.5 0 0 0.5 0
0 0.5 0 0 0.5 0 0 0.5 0 0
0.5 0 0 0.5 0 0 0.5 0 0 
POINT_DATA  482
FIELD attributes 2
p 1 482 float
0 0 0 0 0 0 0 0 0 0 0
0 0 0 0 0 0 0 0 0 0
0 0 0 0 0 0 0 0 0 0
0 0 0 0 0 0 0 0 0 0
0 0 0 0 0 0 0 0 0 0
0 0 0 0 0 0 0 0 0 0
0 0 0 0 0 0 0 0 0 0
0 0 0 0 0 0 0 0 0 0
0 0 0 0 0 0 0 0 0 0
0 0 0 0 0 0 0 0 0 0
0 0 0 0 0 0 0 0 0 0
0 0 0 0 0 0 0 0 0 0
0 0 0 0 0 0 0 0 0 0
0 0 0 0 0 0 0 0 0 0
0 0 0 0 0 0 0 0 0 0
0 0 0 0 0 0 0 0 0 0
0 0 0 0 0 0 0 0 0 0
0 0 0 0 0 0 0 0 0 0
0 0 0 0 0 0 0 0 0 0
0 0 0 0 0 0 0 0 0 0
0 0 0 0 0 0 0 0 0 0
0 0 0 0 0 0 0 0 0 0
0 0 0 0 0 0 0 0 0 0
0 0 0 0 0 0 0 0 0 0
0 0 0 0 0 0 0 0 0 0
0 0 0 0 0 0 0 0 0 0
0 0 0 0 0 0 0 0 0 0
0 0 0 0 0 0 0 0 0 0
0 0 0 0 0 0 0 0 0 0
0 0 0 0 0 0 0 0 0 0
0 0 0 0 0 0 0 0 0 0
0 0 0 0 0 0 0 0 0 0
0 0 0 0 0 0 0 0 0 0
0 0 0 0 0 0 0 0 0 0
0 0 0 0 0 0 0 0 0 0
0 0 0 0 0 0 0 0 0 0
0 0 0 0 0 0 0 0 0 0
0 0 0 0 0 0 0 0 0 0
0 0 0 0 0 0 0 0 0 0
0 0 0 0 0 0 0 0 0 0
0 0 0 0 0 0 0 0 0 0
0 0 0 0 0 0 0 0 0 0
0 0 0 0 0 0 0 0 0 0
0 0 0 0 0 0 0 0 0 0
0 0 0 0 0 0 0 0 0 0
0 0 0 0 0 0 0 0 0 0
0 0 0 0 0 0 0 0 0 0
0 0 0 0 0 0 0 0 0 0
0 
U 3 482 float
0.5 0 0 0.5 0 0 0.5 0 0 0.5 0
0 0.5 0 0 0.5 0 0 0.5 0 0
0.5 0 0 0.5 0 0 0.5 0 0 0.5
0 0 0.5 0 0 0.5 0 0 0.5 0
0 0.5 0 0 0.5 0 0 0.5 0 0
0.5 0 0 0.5 0 0 0.5 0 0 0.5
0 0 0.5 0 0 0.5 0 0 0.5 0
0 0.5 0 0 0.5 0 0 0.5 0 0
0.5 0 0 0.5 0 0 0.5 0 0 0.5
0 0 0.5 0 0 0.5 0 0 0.5 0
0 0.5 0 0 0.5 0 0 0.5 0 0
0.5 0 0 0.5 0 0 0.5 0 0 0.5
0 0 0.5 0 0 0.5 0 0 0.5 0
0 0.5 0 0 0.5 0 0 0.5 0 0
0.5 0 0 0.5 0 0 0.5 0 0 0.5
0 0 0.5 0 0 0.5 0 0 0.5 0
0 0.5 0 0 0.5 0 0 0.5 0 0
0.5 0 0 0.5 0 0 0.5 0 0 0.5
0 0 0.5 0 0 0.5 0 0 0.5 0
0 0.5 0 0 0.5 0 0 0.5 0 0
0.5 0 0 0.5 0 0 0.5 0 0 0.5
0 0 0.5 0 0 0.5 0 0 0.5 0
0 0.5 0 0 0.5 0 0 0.5 0 0
0.5 0 0 0.5 0 0 0.5 0 0 0.5
0 0 0.5 0 0 0.5 0 0 0.5 0
0 0.5 0 0 0.5 0 0 0.5 0 0
0.5 0 0 0.5 0 0 0.5 0 0 0.5
0 0 0.5 0 0 0.5 0 0 0.5 0
0 0.5 0 0 0.5 0 0 0.5 0 0
0.5 0 0 0.5 0 0 0.5 0 0 0.5
0 0 0.5 0 0 0.5 0 0 0.5 0
0 0.5 0 0 0.5 0 0 0.5 0 0
0.5 0 0 0.5 0 0 0.5 0 0 0.5
0 0 0.5 0 0 0.5 0 0 0.5 0
0 0.5 0 0 0.5 0 0 0.5 0 0
0.5 0 0 0.5 0 0 0.5 0 0 0.5
0 0 0.5 0 0 0.5 0 0 0.5 0
0 0.5 0 0 0.5 0 0 0.5 0 0
0.5 0 0 0.5 0 0 0.5 0 0 0.5
0 0 0.5 0 0 0.5 0 0 0.5 0
0 0.5 0 0 0.5 0 0 0.5 0 0
0.5 0 0 0.5 0 0 0.5 0 0 0.5
0 0 0.5 0 0 0.5 0 0 0.5 0
0 0.5 0 0 0.5 0 0 0.5 0 0
0.5 0 0 0.5 0 0 0.5 0 0 0.5
0 0 0.5 0 0 0.5 0 0 0.5 0
0 0.5 0 0 0.5 0 0 0.5 0 0
0.5 0 0 0.5 0 0 0.5 0 0 0.5
0 0 0.5 0 0 0.5 0 0 0.5 0
0 0.5 0 0 0.5 0 0 0.5 0 0
0.5 0 0 0.5 0 0 0.5 0 0 0.5
0 0 0.5 0 0 0.5 0 0 0.5 0
0 0.5 0 0 0.5 0 0 0.5 0 0
0.5 0 0 0.5 0 0 0.5 0 0 0.5
0 0 0.5 0 0 0.5 0 0 0.5 0
0 0.5 0 0 0.5 0 0 0.5 0 0
0.5 0 0 0.5 0 0 0.5 0 0 0.5
0 0 0.5 0 0 0.5 0 0 0.5 0
0 0.5 0 0 0.5 0 0 0.5 0 0
0.5 0 0 0.5 0 0 0.5 0 0 0.5
0 0 0.5 0 0 0.5 0 0 0.5 0
0 0.5 0 0 0.5 0 0 0.5 0 0
0.5 0 0 0.5 0 0 0.5 0 0 0.5
0 0 0.5 0 0 0.5 0 0 0.5 0
0 0.5 0 0 0.5 0 0 0.5 0 0
0.5 0 0 0.5 0 0 0.5 0 0 0.5
0 0 0.5 0 0 0.5 0 0 0.5 0
0 0.5 0 0 0.5 0 0 0.5 0 0
0.5 0 0 0.5 0 0 0.5 0 0 0.5
0 0 0.5 0 0 0.5 0 0 0.5 0
0 0.5 0 0 0.5 0 0 0.5 0 0
0.5 0 0 0.5 0 0 0.5 0 0 0.5
0 0 0.5 0 0 0.5 0 0 0.5 0
0 0.5 0 0 0.5 0 0 0.5 0 0
0.5 0 0 0.5 0 0 0.5 0 0 0.5
0 0 0.5 0 0 0.5 0 0 0.5 0
0 0.5 0 0 0.5 0 0 0.5 0 0
0.5 0 0 0.5 0 0 0.5 0 0 0.5
0 0 0.5 0 0 0.5 0 0 0.5 0
0 0.5 0 0 0.5 0 0 0.5 0 0
0.5 0 0 0.5 0 0 0.5 0 0 0.5
0 0 0.5 0 0 0.5 0 0 0.5 0
0 0.5 0 0 0.5 0 0 0.5 0 0
0.5 0 0 0.5 0 0 0.5 0 0 0.5
0 0 0.5 0 0 0.5 0 0 0.5 0
0 0.5 0 0 0.5 0 0 0.5 0 0
0.5 0 0 0.5 0 0 0.5 0 0 0.5
0 0 0.5 0 0 0.5 0 0 0.5 0
0 0.5 0 0 0.5 0 0 0.5 0 0
0.5 0 0 0.5 0 0 0.5 0 0 0.5
0 0 0.5 0 0 0.5 0 0 0.5 0
0 0.5 0 0 0.5 0 0 0.5 0 0
0.5 0 0 0.5 0 0 0.5 0 0 0.5
0 0 0.5 0 0 0.5 0 0 0.5 0
0 0.5 0 0 0.5 0 0 0.5 0 0
0.5 0 0 0.5 0 0 0.5 0 0 0.5
0 0 0.5 0 0 0.5 0 0 0.5 0
0 0.5 0 0 0.5 0 0 0.5 0 0
0.5 0 0 0.5 0 0 0.5 0 0 0.5
0 0 0.5 0 0 0.5 0 0 0.5 0
0 0.5 0 0 0.5 0 0 0.5 0 0
0.5 0 0 0.5 0 0 0.5 0 0 0.5
0 0 0.5 0 0 0.5 0 0 0.5 0
0 0.5 0 0 0.5 0 0 0.5 0 0
0.5 0 0 0.5 0 0 0.5 0 0 0.5
0 0 0.5 0 0 0.5 0 0 0.5 0
0 0.5 0 0 0.5 0 0 0.5 0 0
0.5 0 0 0.5 0 0 0.5 0 0 0.5
0 0 0.5 0 0 0.5 0 0 0.5 0
0 0.5 0 0 0.5 0 0 0.5 0 0
0.5 0 0 0.5 0 0 0.5 0 0 0.5
0 0 0.5 0 0 0.5 0 0 0.5 0
0 0.5 0 0 0.5 0 0 0.5 0 0
0.5 0 0 0.5 0 0 0.5 0 0 0.5
0 0 0.5 0 0 0.5 0 0 0.5 0
0 0.5 0 0 0.5 0 0 0.5 0 0
0.5 0 0 0.5 0 0 0.5 0 0 0.5
0 0 0.5 0 0 0.5 0 0 0.5 0
0 0.5 0 0 0.5 0 0 0.5 0 0
0.5 0 0 0.5 0 0 0.5 0 0 0.5
0 0 0.5 0 0 0.5 0 0 0.5 0
0 0.5 0 0 0.5 0 0 0.5 0 0
0.5 0 0 0.5 0 0 0.5 0 0 0.5
0 0 0.5 0 0 0.5 0 0 0.5 0
0 0.5 0 0 0.5 0 0 0.5 0 0
0.5 0 0 0.5 0 0 0.5 0 0 0.5
0 0 0.5 0 0 0.5 0 0 0.5 0
0 0.5 0 0 0.5 0 0 0.5 0 0
0.5 0 0 0.5 0 0 0.5 0 0 0.5
0 0 0.5 0 0 0.5 0 0 0.5 0
0 0.5 0 0 0.5 0 0 0.5 0 0
0.5 0 0 0.5 0 0 0.5 0 0 0.5
0 0 0.5 0 0 0.5 0 0 0.5 0
0 0.5 0 0 0.5 0 0 0.5 0 0
0.5 0 0 0.5 0 0 0.5 0 0 0.5
0 0 0.5 0 0 0.5 0 0 0.5 0
0 0.5 0 0 0.5 0 0 0.5 0 0
0.5 0 0 0.5 0 0 0.5 0 0 0.5
0 0 0.5 0 0 0.5 0 0 0.5 0
0 0.5 0 0 0.5 0 0 0.5 0 0
0.5 0 0 0.5 0 0 0.5 0 0 0.5
0 0 0.5 0 0 0.5 0 0 0.5 0
0 0.5 0 0 0.5 0 0 0.5 0 0
0.5 0 0 0.5 0 0 0.5 0 0 0.5
0 0 0.5 0 0 
