/*--------------------------------*- C++ -*----------------------------------*\
| =========                 |                                                 |
| \\      /  F ield         | OpenFOAM: The Open Source CFD Toolbox           |
|  \\    /   O peration     | Version:  5.x                                   |
|   \\  /    A nd           | Web:      www.OpenFOAM.org                      |
|    \\/     M anipulation  |                                                 |
\*---------------------------------------------------------------------------*/
FoamFile
{
    version     2.0;
    format      ascii;
    class       volScalarField;
    location    "0.4";
    object      p;
}
// * * * * * * * * * * * * * * * * * * * * * * * * * * * * * * * * * * * * * //

dimensions      [0 2 -2 0 0 0 0];

internalField   nonuniform List<scalar> 
10800
(
0.0429829
0.0380047
0.0314542
0.0257433
0.020616
0.0155013
0.0103372
0.00576038
0.00274769
0.00169314
0.00213232
0.0032342
0.00438668
0.00530097
0.0059059
0.00624377
0.00639533
0.00643606
0.00641974
0.00637827
0.00632759
0.00627437
0.00622143
0.00617068
0.00612318
0.0060784
0.00603365
0.00598562
0.00593253
0.00587476
0.00581288
0.00574699
0.00567729
0.00560543
0.00553346
0.00546282
0.00539317
0.00532329
0.00525203
0.00517962
0.00510671
0.00503401
0.00496148
0.00488933
0.00481679
0.00474326
0.00466831
0.00459218
0.0045144
0.00443584
0.00435714
0.00427888
0.00420035
0.00412182
0.00404328
0.00396546
0.00388785
0.00381084
0.00373354
0.00365577
0.00357648
0.00349656
0.00341544
0.00333382
0.00325134
0.00316842
0.00308422
0.00300043
0.00291671
0.00283325
0.00274864
0.00266361
0.0025775
0.00249087
0.00240232
0.00231276
0.00222189
0.002131
0.00203911
0.00194691
0.00185391
0.00176058
0.00166604
0.00157046
0.00147393
0.00137627
0.00127834
0.00117918
0.00108084
0.000980869
0.00088236
0.000781295
0.00068306
0.000581643
0.000486014
0.000386131
0.00029609
0.000199445
0.000119373
2.77502e-05
0.0395901
0.0365979
0.0309961
0.025466
0.0204168
0.0154673
0.0105159
0.00611475
0.0031335
0.00199499
0.00233819
0.00337768
0.00448896
0.00537381
0.00595904
0.00628507
0.00642968
0.0064661
0.00644679
0.00640295
0.0063502
0.00629505
0.00624027
0.00618783
0.00613884
0.00609279
0.00604697
0.005998
0.00594407
0.00588554
0.00582299
0.00575648
0.00568621
0.00561381
0.00554134
0.00547026
0.00540021
0.00532997
0.00525836
0.00518562
0.0051124
0.00503941
0.00496661
0.00489421
0.00482144
0.0047477
0.00467255
0.00459623
0.00451826
0.00443952
0.00436066
0.00428224
0.00420358
0.0041249
0.00404624
0.00396829
0.00389056
0.00381344
0.00373604
0.00365817
0.00357879
0.00349878
0.00341757
0.00333586
0.00325331
0.00317031
0.00308604
0.00300217
0.00291839
0.00283487
0.0027502
0.00266511
0.00257895
0.00249226
0.00240367
0.00231405
0.00222315
0.00213221
0.00204028
0.00194803
0.00185499
0.00176162
0.00166706
0.00157143
0.00147488
0.00137718
0.00127922
0.00118002
0.00108167
0.000981653
0.000883136
0.000782027
0.000683788
0.000582326
0.000486698
0.000386769
0.000296734
0.000200046
0.000119984
2.83333e-05
0.0370409
0.0353008
0.030608
0.0252965
0.0203006
0.0155196
0.0108692
0.00675298
0.00385037
0.00257008
0.00270437
0.00359324
0.00461748
0.00545103
0.00600862
0.00632183
0.00646135
0.00649585
0.00647547
0.00643048
0.00637628
0.00631944
0.00626281
0.00620842
0.00615746
0.00610953
0.00606202
0.0060116
0.00595642
0.00589681
0.00583333
0.00576601
0.00569503
0.00562198
0.00554894
0.00547735
0.00540685
0.00533621
0.00526423
0.00519115
0.00511763
0.00504434
0.00497127
0.00489863
0.00482564
0.00475168
0.00467633
0.00459982
0.00452168
0.00444277
0.00436375
0.0042852
0.0042064
0.00412759
0.0040488
0.00397074
0.00389291
0.00381569
0.0037382
0.00366024
0.00358078
0.00350068
0.0034194
0.00333761
0.00325499
0.00317193
0.0030876
0.00300366
0.00291983
0.00283625
0.00275154
0.00266639
0.00258018
0.00249345
0.00240482
0.00231515
0.00222421
0.00213322
0.00204127
0.00194898
0.00185592
0.0017625
0.00166792
0.00157225
0.00147568
0.00137794
0.00127997
0.00118073
0.00108237
0.000982312
0.000883788
0.00078264
0.000684397
0.000582893
0.000487266
0.000387296
0.000297265
0.000200536
0.000120471
2.87806e-05
0.0350599
0.0339988
0.0301115
0.0251273
0.0202366
0.0156291
0.0112803
0.00745738
0.00466626
0.00327378
0.00318672
0.00388564
0.00479522
0.00556788
0.00609259
0.0063874
0.00651629
0.00654426
0.00651932
0.00647067
0.00641324
0.00635347
0.00629412
0.00623705
0.00618333
0.00613266
0.00608263
0.00603005
0.00597308
0.00591197
0.00584718
0.00577873
0.00570676
0.00563284
0.00555898
0.00548662
0.00541541
0.00534413
0.0052716
0.00519805
0.00512411
0.00505043
0.00497699
0.004904
0.0048307
0.00475645
0.00468083
0.00460407
0.0045257
0.00444657
0.00436734
0.0042886
0.00420962
0.00413065
0.00405171
0.00397352
0.00389555
0.00381821
0.00374061
0.00366254
0.00358298
0.00350278
0.00342141
0.00333953
0.00325683
0.00317368
0.00308928
0.00300527
0.00292138
0.00283773
0.00275296
0.00266776
0.0025815
0.00249472
0.00240605
0.00231632
0.00222534
0.0021343
0.00204231
0.00194997
0.00185688
0.00176343
0.00166882
0.00157311
0.00147652
0.00137873
0.00128075
0.00118147
0.00108309
0.000982996
0.000884461
0.000783273
0.000685021
0.000583476
0.000487842
0.000387832
0.000297794
0.00020103
0.000120925
2.92027e-05
0.0333878
0.0326848
0.0294734
0.0249081
0.0202003
0.0157732
0.0116898
0.00812748
0.0054546
0.00398595
0.00370224
0.0042092
0.00499497
0.00570334
0.00619543
0.00647162
0.00658841
0.0066079
0.00657668
0.00652303
0.00646142
0.00639804
0.00633545
0.0062752
0.00621816
0.00616402
0.00611067
0.00605521
0.00599587
0.00593272
0.00586613
0.00579611
0.0057228
0.00564773
0.00557278
0.00549935
0.00542708
0.00535484
0.00528152
0.0052073
0.00513277
0.00505853
0.00498457
0.00491109
0.00483735
0.0047627
0.0046867
0.00460961
0.00453093
0.0044515
0.00437199
0.00429296
0.00421372
0.00413452
0.00405538
0.003977
0.00389886
0.00382135
0.0037436
0.00366539
0.00358569
0.00350537
0.00342387
0.00334187
0.00325905
0.0031758
0.0030913
0.00300719
0.00292322
0.0028395
0.00275466
0.00266938
0.00258306
0.00249621
0.00240747
0.00231768
0.00222665
0.00213555
0.00204351
0.00195112
0.00185799
0.00176449
0.00166985
0.00157409
0.00147747
0.00137964
0.00128163
0.0011823
0.0010839
0.000983768
0.000885214
0.000783984
0.000685713
0.000584126
0.000488474
0.000388425
0.000298361
0.000201572
0.000121368
2.96343e-05
0.0319146
0.0313998
0.0287321
0.0246369
0.0201841
0.0159463
0.0120868
0.00874476
0.00618828
0.00467451
0.00422604
0.00455072
0.00520782
0.00584709
0.00630609
0.00656484
0.00666994
0.00668039
0.00664202
0.00658264
0.0065164
0.00644922
0.00638331
0.00631982
0.00625928
0.0062014
0.0061444
0.00608574
0.00602374
0.00595828
0.00588964
0.00581781
0.005743
0.00566661
0.00559042
0.00551568
0.0054421
0.00536864
0.00529428
0.00521921
0.00514393
0.00506897
0.0049943
0.00492018
0.00484585
0.00477068
0.00469421
0.0046167
0.00453764
0.00445786
0.00437799
0.00429859
0.004219
0.00413949
0.00406007
0.00398144
0.00390306
0.00382533
0.00374736
0.00366897
0.0035891
0.00350862
0.00342696
0.0033448
0.00326182
0.00317843
0.0030938
0.00300958
0.00292549
0.00284166
0.00275673
0.00267136
0.00258495
0.00249801
0.0024092
0.00231932
0.00222822
0.00213705
0.00204495
0.00195249
0.00185932
0.00176575
0.00167107
0.00157525
0.00147859
0.0013807
0.00128265
0.00118327
0.00108485
0.000984665
0.000886082
0.000784805
0.000686503
0.000584872
0.000489184
0.0003891
0.000298981
0.000202182
0.000121796
3.00891e-05
0.0305822
0.0301774
0.0279429
0.0243202
0.0201752
0.0161398
0.0124713
0.00931244
0.00686595
0.00533301
0.00475189
0.00490892
0.00543485
0.00599896
0.00642258
0.00666456
0.00675873
0.00675989
0.00671349
0.00664748
0.00657594
0.00650454
0.00643511
0.00636822
0.00630405
0.00624227
0.00618147
0.00611949
0.00605472
0.00598688
0.0059161
0.00584241
0.00576606
0.00568834
0.00561086
0.00553477
0.00545978
0.00538498
0.00530948
0.00523347
0.00515732
0.00508152
0.00500604
0.00493113
0.0048561
0.00478031
0.0047033
0.0046253
0.00454583
0.00446567
0.0043854
0.00430557
0.00422557
0.00414568
0.00406592
0.00398697
0.00390828
0.00383025
0.00375202
0.0036734
0.00359333
0.00351265
0.0034308
0.00334845
0.00326527
0.00318169
0.00309691
0.00301253
0.00292829
0.00284432
0.00275927
0.00267379
0.00258728
0.00250022
0.00241131
0.00232134
0.00223014
0.00213887
0.00204669
0.00195416
0.00186091
0.00176728
0.00167254
0.00157664
0.00147992
0.00138197
0.00128387
0.00118444
0.00108597
0.000985732
0.000887108
0.000785776
0.000687428
0.00058575
0.000490007
0.00038989
0.000299679
0.000202891
0.000122215
3.05948e-05
0.029361
0.0290353
0.0271484
0.023967
0.0201578
0.0163407
0.0128441
0.00983942
0.00749324
0.00595922
0.00527458
0.00528181
0.00567734
0.00616032
0.00654471
0.00676961
0.00685371
0.00684572
0.00679058
0.00671695
0.00663922
0.00656298
0.00648967
0.00641918
0.00635123
0.00628543
0.00622074
0.00615534
0.00608773
0.00601744
0.00594446
0.00586887
0.00579093
0.00571186
0.0056331
0.00555564
0.00547922
0.00540306
0.0053264
0.0052494
0.00517236
0.00509566
0.00501929
0.00494354
0.00486774
0.00479126
0.00471365
0.00463512
0.00455522
0.00447468
0.004394
0.00431373
0.0042333
0.004153
0.00407287
0.00399355
0.0039145
0.0038361
0.00375755
0.00367865
0.00359835
0.00351745
0.00343541
0.00335284
0.00326945
0.00318566
0.00310069
0.00301612
0.0029317
0.00284754
0.00276235
0.00267673
0.0025901
0.00250291
0.00241388
0.00232379
0.00223248
0.00214109
0.00204881
0.00195617
0.00186285
0.00176912
0.00167431
0.00157833
0.00148154
0.0013835
0.00128535
0.00118584
0.00108733
0.000987019
0.000888339
0.000786943
0.000688532
0.000586802
0.000490978
0.000390834
0.000300482
0.000203733
0.00012264
3.11882e-05
0.0282348
0.0279797
0.0263753
0.0235887
0.0201205
0.0165353
0.0132036
0.0103327
0.00807563
0.00655136
0.00578779
0.00566471
0.0059347
0.00633212
0.00667248
0.00687884
0.00695364
0.00693713
0.00687294
0.00679084
0.00670601
0.0066242
0.00654655
0.00647226
0.0064004
0.00633048
0.0062618
0.00619289
0.00612235
0.00604952
0.00597428
0.00589669
0.00581712
0.00573665
0.00565656
0.00557772
0.00549988
0.00542233
0.0053445
0.00526649
0.00518853
0.0051109
0.00503361
0.00495696
0.00488036
0.00480316
0.00472491
0.00464582
0.00456547
0.00448453
0.00440347
0.00432277
0.00424191
0.00416122
0.00408072
0.00400101
0.00392156
0.00384276
0.00376384
0.00368463
0.00360407
0.00352293
0.00344067
0.0033579
0.00327427
0.00319026
0.00310512
0.00302034
0.0029357
0.00285132
0.00276595
0.00268018
0.00259341
0.00250606
0.00241691
0.00232669
0.00223526
0.00214373
0.00205134
0.00195857
0.00186516
0.00177132
0.00167643
0.00158034
0.00148348
0.00138533
0.00128711
0.00118752
0.00108895
0.000988558
0.000889812
0.000788341
0.00068985
0.000588062
0.000492129
0.000391964
0.000301418
0.000204737
0.000123096
3.19e-05
0.0271918
0.0270087
0.0256399
0.023198
0.0200584
0.0167124
0.0135457
0.0107963
0.00861836
0.00710937
0.00628634
0.00605228
0.00620517
0.00651505
0.00680647
0.00699175
0.00705758
0.00703355
0.00696045
0.0068692
0.00677637
0.00668819
0.00660567
0.00652732
0.00645144
0.0063773
0.00630453
0.00623203
0.00615847
0.00608299
0.00600539
0.00592574
0.00584445
0.00576251
0.00568106
0.0056008
0.0055215
0.00544255
0.0053635
0.00528446
0.00520555
0.00512695
0.00504871
0.00497114
0.00489371
0.00481576
0.00473684
0.00465716
0.00457634
0.004495
0.00441356
0.00433243
0.00425116
0.00417008
0.00408921
0.00400911
0.00392927
0.00385004
0.00377073
0.00369116
0.00361033
0.00352892
0.00344645
0.00336346
0.00327962
0.00319539
0.00311009
0.00302508
0.00294022
0.00285559
0.00277004
0.00268407
0.00259715
0.00250962
0.00242036
0.00233
0.00223846
0.00214677
0.00205426
0.00196134
0.00186783
0.00177386
0.00167889
0.00158268
0.00148573
0.00138746
0.00128918
0.00118948
0.00109084
0.000990359
0.000891541
0.000789984
0.000691401
0.000589547
0.00049348
0.000393299
0.000302503
0.000205917
0.000123604
3.27421e-05
0.0262242
0.0261191
0.0249523
0.0228067
0.0199708
0.0168642
0.0138652
0.011232
0.00912614
0.00763485
0.00676685
0.00643955
0.00648627
0.00670956
0.00694791
0.00710871
0.00716504
0.00713446
0.00705292
0.00695206
0.00685039
0.00675507
0.00666709
0.00658435
0.00650434
0.0064259
0.00634895
0.00627278
0.00619609
0.00611786
0.0060378
0.005956
0.0058729
0.00578941
0.00570652
0.00562481
0.00554401
0.00546361
0.0053833
0.00530319
0.0052233
0.00514369
0.00506448
0.00498597
0.00490768
0.00482895
0.00474934
0.00466903
0.00458772
0.00450597
0.00442413
0.00434256
0.00426089
0.00417942
0.0040982
0.0040177
0.00393745
0.00385779
0.00377808
0.00369814
0.00361702
0.00353531
0.00345263
0.00336941
0.00328536
0.00320092
0.00311546
0.00303024
0.00294515
0.00286026
0.00277451
0.00268833
0.00260125
0.00251352
0.00242415
0.00233364
0.00224201
0.00215015
0.00205752
0.00196444
0.00187083
0.00177669
0.00168165
0.00158529
0.00148828
0.00138987
0.00129152
0.0011917
0.00109301
0.000992407
0.000893514
0.000791861
0.000693179
0.000591256
0.000495031
0.000394839
0.000303738
0.000207271
0.000124182
3.37007e-05
0.0253302
0.0253114
0.0243199
0.0224248
0.0198608
0.0169861
0.0141572
0.0116394
0.00960186
0.00812956
0.00722726
0.00682226
0.00677481
0.00691523
0.00709782
0.00723019
0.00727537
0.00723883
0.00714967
0.00703918
0.00692807
0.00682495
0.00673096
0.00664344
0.00655911
0.00647632
0.00639509
0.00631514
0.00623525
0.00615417
0.00607153
0.00598748
0.00590247
0.00581734
0.00573295
0.00564972
0.00556738
0.00548548
0.00540388
0.00532266
0.00524174
0.0051611
0.00508087
0.00500139
0.00492222
0.00484269
0.00476236
0.0046814
0.00459958
0.00451738
0.00443513
0.00435312
0.00427104
0.00418917
0.00410758
0.00402669
0.00394603
0.00386592
0.0037858
0.00370547
0.00362405
0.00354202
0.00345911
0.00337567
0.00329141
0.00320675
0.00312116
0.00303572
0.00295042
0.00286526
0.0027793
0.00269289
0.00260564
0.00251769
0.00242821
0.00233755
0.00224583
0.0021538
0.00206107
0.00196781
0.0018741
0.00177978
0.00168466
0.00158815
0.00149107
0.00139252
0.00129412
0.00119416
0.0010954
0.000994674
0.000895702
0.000793944
0.00069516
0.000593168
0.000496762
0.000396567
0.000305111
0.000208777
0.000124836
3.47395e-05
0.0245184
0.0245924
0.0237506
0.0220629
0.0197357
0.0170785
0.0144187
0.0120174
0.0100475
0.00859575
0.00766735
0.00719771
0.00706759
0.00713064
0.00725651
0.00735663
0.00738808
0.00734566
0.00725005
0.00713045
0.00700957
0.00689804
0.00679744
0.00670466
0.00661573
0.00652848
0.00644292
0.0063591
0.00627591
0.0061919
0.00610658
0.00602016
0.00593316
0.0058463
0.00576033
0.00567554
0.0055916
0.00550818
0.00542524
0.00534287
0.00526088
0.00517917
0.00509788
0.00501741
0.00493733
0.00485697
0.00477589
0.00469425
0.00461189
0.00452923
0.00444655
0.00436408
0.00428157
0.00419929
0.00411734
0.00403604
0.00395496
0.00387439
0.00379386
0.00371313
0.00363138
0.00354903
0.00346588
0.0033822
0.00329773
0.00321284
0.00312711
0.00304146
0.00295594
0.00287051
0.00278434
0.00269768
0.00261026
0.00252208
0.00243248
0.00234166
0.00224987
0.00215766
0.00206485
0.0019714
0.0018776
0.00178308
0.00168788
0.00159119
0.00149406
0.00139535
0.00129691
0.00119682
0.00109799
0.000997126
0.000898067
0.0007962
0.000697308
0.000595252
0.000498646
0.000398457
0.0003066
0.000210403
0.000125562
3.58112e-05
0.0237977
0.0239667
0.0232501
0.0217302
0.0196051
0.017146
0.0146498
0.0123659
0.010465
0.00903629
0.00808853
0.00756466
0.00736199
0.00735403
0.00742406
0.00748908
0.00750381
0.00745485
0.0073539
0.00722604
0.00709517
0.00697456
0.00686675
0.00676817
0.00667425
0.00658239
0.00649246
0.00640469
0.00631812
0.00623111
0.00614299
0.00605409
0.005965
0.00587633
0.00578869
0.00570228
0.00561672
0.00553172
0.00544738
0.00536382
0.00528071
0.00519789
0.00511551
0.00503402
0.00495301
0.0048718
0.00478994
0.00470761
0.00462467
0.00454153
0.0044584
0.00437545
0.00429249
0.00420979
0.00412745
0.00404573
0.00396423
0.00388319
0.00380223
0.00372109
0.00363901
0.00355632
0.00347292
0.00338899
0.0033043
0.00321918
0.00313331
0.00304743
0.0029617
0.00287598
0.00278961
0.0027027
0.00261509
0.00252667
0.00243695
0.00234597
0.0022541
0.00216171
0.00206881
0.00197518
0.00188128
0.00178656
0.00169127
0.0015944
0.00149721
0.00139835
0.00129986
0.00119964
0.00110074
0.000999732
0.000900575
0.0007986
0.000699586
0.000597479
0.000500651
0.000400482
0.000308182
0.000212119
0.000126351
3.68724e-05
0.0231486
0.0234206
0.0228138
0.0214299
0.0194741
0.0171916
0.0148498
0.0126825
0.0108533
0.00945148
0.00849066
0.0079214
0.00765518
0.00758301
0.00759996
0.00762849
0.00762343
0.00756631
0.00746056
0.00732548
0.00718473
0.00705445
0.00693886
0.00683409
0.00673477
0.00663807
0.00654373
0.00645198
0.00636192
0.00627182
0.00618083
0.00608933
0.00599802
0.00590746
0.00581808
0.00572999
0.00564273
0.00555611
0.00547032
0.00538552
0.00530127
0.00521729
0.00513378
0.00505123
0.00496927
0.00488718
0.00480453
0.00472146
0.00463793
0.00455427
0.00447068
0.00438724
0.00430381
0.00422067
0.00413793
0.00405577
0.00397383
0.00389231
0.00381091
0.00372936
0.00364694
0.00356389
0.00348023
0.00339604
0.00331112
0.00322576
0.00313974
0.00305363
0.00296768
0.00288168
0.00279508
0.00270792
0.00262013
0.00253145
0.00244161
0.00235045
0.0022585
0.00216593
0.00207294
0.00197912
0.00188512
0.00179019
0.00169481
0.00159776
0.00150049
0.00140148
0.00130294
0.00120259
0.00110362
0.00100247
0.000903202
0.000801123
0.00070197
0.000599825
0.000502752
0.000402617
0.000309839
0.000213897
0.000127194
3.78917e-05
0.0225471
0.0229322
0.0224311
0.0211615
0.0193458
0.0172179
0.0150189
0.0129653
0.0112103
0.00983992
0.00887247
0.0082663
0.00794504
0.00781537
0.00778303
0.00777497
0.00774734
0.00767962
0.00756894
0.00742786
0.00727789
0.00713759
0.00701372
0.00690242
0.00679738
0.00669549
0.00659663
0.00650092
0.00640729
0.006314
0.00622007
0.00612587
0.00603222
0.00593967
0.00584849
0.00575864
0.00566966
0.00558135
0.00549408
0.005408
0.00532255
0.00523737
0.0051527
0.00506907
0.00498612
0.00490314
0.00481965
0.00473583
0.00465167
0.00456748
0.0044834
0.00439945
0.00431553
0.00423194
0.00414878
0.00406618
0.00398378
0.00390177
0.00381992
0.00373794
0.00365516
0.00357175
0.00348782
0.00340336
0.0033182
0.00323258
0.00314641
0.00306006
0.00297389
0.00288759
0.00280077
0.00271334
0.00262536
0.00253643
0.00244644
0.00235511
0.00226307
0.00217031
0.00207722
0.00198321
0.00188911
0.00179398
0.00169849
0.00160125
0.00150391
0.00140475
0.00130615
0.00120568
0.00110661
0.00100534
0.000905932
0.00080376
0.000704444
0.000602277
0.000504932
0.000404843
0.000311558
0.000215717
0.000128084
3.88525e-05
0.0219844
0.0224904
0.0220952
0.0209257
0.0192253
0.0172305
0.0151609
0.0132151
0.0115352
0.0102011
0.00923377
0.00859922
0.00823104
0.00804976
0.0079719
0.00792814
0.00787598
0.00779503
0.00767864
0.00753266
0.00737454
0.00722416
0.00709142
0.00697327
0.00686226
0.00675481
0.00665116
0.00655146
0.00645426
0.00635766
0.00626071
0.00616376
0.00606765
0.005973
0.00587994
0.00578829
0.00569751
0.00560749
0.00551868
0.00543126
0.00534458
0.00525816
0.00517229
0.00508754
0.00500359
0.00491968
0.00483534
0.00475073
0.00466592
0.00458117
0.00449658
0.00441209
0.00432767
0.0042436
0.00416
0.00407694
0.00399407
0.00391156
0.00382926
0.00374683
0.00366369
0.00357991
0.00349569
0.00341096
0.00332555
0.00323966
0.00315331
0.00306672
0.00298032
0.00289372
0.00280667
0.00271897
0.00263079
0.0025416
0.00245146
0.00235995
0.0022678
0.00217486
0.00208167
0.00198747
0.00189325
0.00179791
0.00170231
0.00160489
0.00150745
0.00140815
0.00130948
0.00120889
0.00110972
0.00100832
0.000908759
0.000806506
0.000706999
0.000604827
0.000507182
0.000407148
0.000313333
0.000217566
0.00012902
3.97488e-05
0.0214566
0.0220885
0.0217997
0.0207218
0.0191171
0.0172349
0.0152804
0.0134341
0.0118282
0.0105346
0.00957446
0.00891987
0.0085124
0.00828472
0.00816483
0.00808725
0.00800984
0.0079133
0.00778973
0.00763939
0.00747436
0.00731421
0.00717204
0.00704661
0.00692949
0.00681617
0.00670736
0.00660356
0.00650283
0.00640286
0.00630279
0.00620302
0.00610437
0.00600749
0.00591248
0.00581896
0.00572633
0.00563454
0.00554414
0.00545533
0.00536737
0.00527967
0.00519256
0.00510667
0.00502168
0.00493682
0.00485159
0.00476618
0.00468069
0.00459535
0.00451022
0.00442518
0.00434024
0.00425566
0.00417162
0.00408809
0.00400474
0.00392171
0.00383894
0.00375606
0.00367254
0.00358837
0.00350385
0.00341883
0.00333316
0.003247
0.00316047
0.00307362
0.00298698
0.00290008
0.00281278
0.00272482
0.00263642
0.00254696
0.00245667
0.00236497
0.00227271
0.00217958
0.00208627
0.00199189
0.00189755
0.00180201
0.00170627
0.00160867
0.00151112
0.00141169
0.00131291
0.00121223
0.00111292
0.00101143
0.000911681
0.000809359
0.000709635
0.000607469
0.0005095
0.000409525
0.000315164
0.000219435
0.00013
4.05817e-05
0.0209604
0.0217209
0.0215385
0.0205477
0.019024
0.017235
0.0153808
0.0136251
0.0120901
0.0108403
0.00989369
0.00922682
0.00878767
0.0085189
0.00836039
0.00825141
0.0081491
0.00803508
0.0079023
0.00774742
0.00757671
0.00740753
0.00725558
0.00712233
0.00699898
0.00687966
0.00676528
0.00665714
0.00655294
0.00644963
0.00634631
0.00624365
0.0061424
0.00604316
0.00594609
0.00585065
0.00575612
0.00566249
0.00557046
0.00548023
0.00539094
0.00530192
0.00521353
0.00512645
0.00504041
0.00495457
0.00486844
0.00478218
0.00469598
0.00461004
0.00452435
0.00443873
0.00435324
0.00426815
0.00418365
0.00409962
0.00401577
0.00393221
0.00384897
0.00376563
0.00368172
0.00359714
0.00351232
0.003427
0.00334105
0.00325461
0.00316788
0.00308077
0.00299387
0.00290667
0.00281912
0.00273088
0.00264226
0.00255254
0.00246208
0.00237019
0.0022778
0.00218448
0.00209104
0.00199648
0.00190199
0.00180625
0.00171037
0.0016126
0.00151492
0.00141536
0.00131647
0.0012157
0.00111624
0.00101465
0.000914697
0.00081232
0.000712353
0.000610202
0.000511887
0.000411967
0.000317053
0.000221317
0.000131024
4.13553e-05
0.0204926
0.0213826
0.0213063
0.0204
0.0189468
0.0172338
0.0154654
0.0137913
0.0123228
0.0111179
0.0101902
0.00951835
0.00905534
0.00875134
0.00855754
0.00841951
0.00829338
0.00816071
0.0080166
0.00785635
0.00768086
0.00750376
0.007342
0.00720033
0.00707056
0.00694531
0.00682512
0.00671224
0.00660451
0.00649795
0.0063913
0.0062856
0.0061817
0.00608004
0.00598078
0.00588337
0.00578689
0.00569136
0.00559765
0.00550596
0.00541531
0.00532492
0.00523521
0.00514692
0.0050598
0.00497295
0.00488588
0.00479875
0.00471181
0.00462523
0.00453897
0.00445275
0.00436669
0.00428106
0.00419608
0.00411154
0.00402718
0.00394308
0.00385936
0.00377555
0.00369122
0.00360624
0.00352109
0.00343546
0.00334923
0.00326249
0.00317555
0.00308818
0.00300102
0.0029135
0.00282569
0.00273717
0.00264832
0.00255833
0.00246768
0.0023756
0.00228307
0.00218956
0.00209598
0.00200123
0.0019066
0.00181066
0.00171462
0.00161668
0.00151885
0.00141917
0.00132015
0.0012193
0.00111967
0.00101799
0.000917813
0.000815388
0.000715155
0.000613023
0.000514347
0.00041447
0.000319002
0.000223209
0.000132092
4.20756e-05
0.0200506
0.0210699
0.0210984
0.0202743
0.0188848
0.017234
0.0155375
0.0139358
0.0125284
0.0113677
0.0104631
0.00979302
0.0093139
0.00898098
0.00875527
0.00859032
0.00844196
0.00829034
0.00813302
0.00796607
0.0077862
0.00760235
0.00743121
0.00728062
0.00714414
0.00701312
0.00688704
0.00676897
0.00665745
0.00654771
0.00643777
0.00632888
0.00622226
0.00611814
0.0060166
0.00591712
0.00581869
0.0057212
0.00562573
0.00553253
0.00544048
0.00534868
0.00525761
0.00516808
0.00507985
0.00499196
0.00490393
0.00481591
0.00472821
0.00464096
0.00455409
0.00446726
0.0043806
0.00429442
0.00420894
0.00412388
0.00403899
0.00395434
0.00387012
0.00378582
0.00370107
0.00361568
0.00353019
0.00344424
0.00335771
0.00327067
0.00318349
0.00309584
0.00300841
0.00292058
0.00283249
0.00274369
0.0026546
0.00256434
0.00247349
0.00238122
0.00228853
0.00219483
0.00210109
0.00200617
0.00191137
0.00181524
0.00171903
0.00162092
0.00152292
0.00142312
0.00132395
0.00122303
0.0011232
0.00102146
0.000921031
0.000818565
0.000718047
0.000615932
0.000516884
0.000417031
0.000321016
0.000225109
0.0001332
4.2749e-05
0.0196326
0.0207794
0.0209107
0.0201666
0.0188367
0.0172378
0.0156001
0.0140611
0.0127092
0.0115911
0.0107122
0.0100496
0.00956162
0.00920641
0.00895263
0.0087628
0.00859399
0.00842385
0.0082519
0.00807671
0.00789229
0.00770274
0.00752302
0.00736331
0.00721965
0.00708292
0.00695105
0.00682742
0.00671168
0.00659879
0.00648568
0.00637354
0.00626407
0.00615748
0.00605358
0.00595192
0.00585148
0.00575201
0.0056547
0.00555994
0.00546646
0.00537322
0.00528075
0.00518994
0.00510057
0.00501163
0.00492261
0.00483366
0.00474516
0.00465723
0.00456973
0.00448226
0.00439498
0.00430822
0.00422223
0.00413663
0.00405119
0.00396598
0.00388126
0.00379647
0.00371128
0.00362545
0.00353961
0.00345333
0.00336648
0.00327913
0.0031917
0.00310378
0.00301606
0.00292791
0.00283954
0.00275046
0.00266111
0.00257057
0.00247951
0.00238704
0.00229418
0.00220029
0.00210638
0.00201129
0.0019163
0.00182
0.00172359
0.00162531
0.00152713
0.00142722
0.00132788
0.0012269
0.00112686
0.00102505
0.000924356
0.000821849
0.000721033
0.000618925
0.000519504
0.000419645
0.000323097
0.000227015
0.000134347
4.33823e-05
0.0192372
0.0205088
0.02074
0.0200736
0.0188006
0.0172461
0.0156556
0.0141695
0.0128675
0.0117897
0.0109379
0.0102873
0.00979683
0.00942606
0.00914863
0.00893604
0.00874853
0.00856089
0.00837348
0.00818848
0.00799896
0.00780439
0.00761707
0.00744837
0.00729701
0.00715442
0.00701701
0.00688769
0.00676729
0.0066511
0.00653502
0.00641964
0.00630714
0.00619799
0.00609172
0.00598778
0.00588525
0.00578379
0.0056846
0.00558821
0.00549327
0.00539854
0.00530464
0.00521252
0.00512198
0.00503197
0.00494193
0.00485201
0.00476268
0.00467404
0.0045859
0.00449776
0.00440985
0.00432249
0.00423596
0.00414981
0.00406381
0.00397802
0.00389278
0.00380749
0.00372184
0.00363558
0.00354938
0.00346274
0.00337557
0.0032879
0.00320021
0.003112
0.00302399
0.00293551
0.00284684
0.00275748
0.00266786
0.00257705
0.00248576
0.00239309
0.00230004
0.00220596
0.00211186
0.0020166
0.00192141
0.00182493
0.0017283
0.00162988
0.00153148
0.00143148
0.00133195
0.0012309
0.00113065
0.00102877
0.000927795
0.000825241
0.000724118
0.000622001
0.00052221
0.000422312
0.000325246
0.000228929
0.000135528
4.3982e-05
0.0188629
0.0202562
0.0205838
0.0199923
0.0187741
0.0172589
0.0157059
0.0142635
0.0130057
0.0119657
0.0111412
0.0105055
0.0100181
0.00963825
0.00934204
0.00910907
0.00890456
0.00870086
0.00849782
0.00830168
0.0081062
0.00790686
0.00771279
0.00753555
0.00737615
0.00722738
0.0070847
0.00694991
0.00682447
0.00670459
0.00658563
0.00646714
0.00635147
0.00623961
0.006131
0.00602474
0.00592
0.00581652
0.00571543
0.00561734
0.0055209
0.00542466
0.00532928
0.00523582
0.00514408
0.00505296
0.00496189
0.00487098
0.0047808
0.00469141
0.0046026
0.00451378
0.0044252
0.00433722
0.00425014
0.00416343
0.00407685
0.00399047
0.0039047
0.0038189
0.00373278
0.00364608
0.00355949
0.00347249
0.00338499
0.00329699
0.003209
0.00312051
0.00303218
0.00294337
0.00285439
0.00276475
0.00267485
0.00258376
0.00249223
0.00239935
0.0023061
0.00221183
0.00211753
0.0020221
0.00192671
0.00183004
0.00173319
0.00163461
0.00153599
0.00143589
0.00133615
0.00123505
0.00113456
0.00103261
0.000931351
0.000828741
0.000727306
0.000625159
0.000525006
0.000425031
0.000327464
0.000230851
0.00013674
4.45541e-05
0.0185083
0.0200201
0.0204403
0.0199201
0.0187543
0.0172751
0.0157527
0.0143454
0.013126
0.0121209
0.0113233
0.0107046
0.0102243
0.00984127
0.00953145
0.00928085
0.00906109
0.0088431
0.00862489
0.00841649
0.00821402
0.0080098
0.00780955
0.00762445
0.00745705
0.00730177
0.00715394
0.00701401
0.00688333
0.00675925
0.00663729
0.00651594
0.00639709
0.00628232
0.00617135
0.00606282
0.00595579
0.00585019
0.00574718
0.00564735
0.00554935
0.00545158
0.00535468
0.00525984
0.00516689
0.00507463
0.00498249
0.00489058
0.00479951
0.00470936
0.00461985
0.00453032
0.00444105
0.00435244
0.00426479
0.0041775
0.00409031
0.00400333
0.00391703
0.0038307
0.00374409
0.00365694
0.00356995
0.00348258
0.00339473
0.00330639
0.0032181
0.00312931
0.00304066
0.00295152
0.00286222
0.00277229
0.0026821
0.00259073
0.00249893
0.00240585
0.00231237
0.00221791
0.0021234
0.0020278
0.00193219
0.00183534
0.00173825
0.00163951
0.00154066
0.00144045
0.00134051
0.00123935
0.0011386
0.00103659
0.000935031
0.000832348
0.000730604
0.000628398
0.000527895
0.0004278
0.00032975
0.000232785
0.000137977
4.51043e-05
0.0181721
0.0197988
0.0203077
0.0198547
0.0187388
0.0172938
0.0157972
0.0144178
0.0132305
0.012257
0.0114857
0.0108849
0.0104148
0.0100335
0.00971534
0.00945029
0.00921713
0.00898683
0.00875443
0.00853293
0.00832233
0.00811297
0.00790697
0.00771469
0.00753965
0.00737759
0.00722447
0.00707972
0.00694387
0.00681514
0.00668992
0.00656591
0.00644404
0.00632618
0.00621269
0.00610199
0.00599266
0.00588478
0.00577982
0.00567823
0.00557861
0.00547928
0.00538085
0.00528459
0.00519041
0.00509699
0.00500375
0.00491081
0.00481881
0.00472788
0.00463765
0.0045474
0.00445741
0.00436814
0.0042799
0.00419201
0.00410422
0.00401663
0.00392977
0.00384292
0.0037558
0.00366819
0.00358078
0.00349303
0.00340481
0.00331612
0.0032275
0.00313841
0.00304944
0.00295995
0.00287031
0.0027801
0.0026896
0.00259795
0.00250587
0.00241258
0.00231887
0.00222421
0.00212947
0.00203371
0.00193786
0.00184084
0.00174349
0.00164459
0.00154549
0.00144518
0.00134501
0.00124379
0.00114279
0.00104069
0.00093884
0.000836063
0.000734012
0.000631719
0.000530878
0.000430622
0.000332101
0.000234732
0.000139236
4.56372e-05
0.0178529
0.0195909
0.0201846
0.0197947
0.0187258
0.0173135
0.0158397
0.0144826
0.0133214
0.0123756
0.0116294
0.0110474
0.0105892
0.0102137
0.00989226
0.00961631
0.00937166
0.00913109
0.00888593
0.00865088
0.00843108
0.00821635
0.00800489
0.0078059
0.00762363
0.0074547
0.007296
0.00714668
0.00700602
0.00687239
0.00674349
0.00661692
0.00649229
0.00637122
0.00625496
0.00614212
0.00603059
0.00592035
0.00581332
0.00570998
0.0056087
0.00550777
0.00540779
0.00531007
0.00521463
0.00512005
0.00502568
0.00493166
0.00483873
0.00474698
0.00465601
0.00456501
0.00447429
0.00438435
0.0042955
0.004207
0.00411856
0.00403036
0.00394293
0.00385554
0.0037679
0.00367983
0.00359199
0.00350383
0.00341524
0.00332619
0.00323722
0.00314783
0.00305851
0.00296867
0.00287869
0.00278819
0.00269737
0.00260543
0.00251306