/*--------------------------------*- C++ -*----------------------------------*\
| =========                 |                                                 |
| \\      /  F ield         | OpenFOAM: The Open Source CFD Toolbox           |
|  \\    /   O peration     | Version:  5.x                                   |
|   \\  /    A nd           | Web:      www.OpenFOAM.org                      |
|    \\/     M anipulation  |                                                 |
\*---------------------------------------------------------------------------*/
FoamFile
{
    version     2.0;
    format      ascii;
    class       surfaceScalarField;
    location    "0.4";
    object      phi;
}
// * * * * * * * * * * * * * * * * * * * * * * * * * * * * * * * * * * * * * //

dimensions      [0 3 -1 0 0 0 0];

internalField   nonuniform List<scalar> 
21390
(
7.41206e-08
6.75319e-09
-8.08738e-08
6.57369e-08
8.38371e-09
5.74809e-08
8.25605e-09
4.94503e-08
8.03051e-09
4.16752e-08
7.77516e-09
3.44769e-08
7.19825e-09
2.83466e-08
6.13038e-09
2.36798e-08
4.66671e-09
2.05328e-08
3.14701e-09
1.85619e-08
1.97097e-09
1.73115e-08
1.25032e-09
1.64648e-08
8.46728e-10
1.58382e-08
6.26664e-10
1.53202e-08
5.18003e-10
1.48467e-08
4.73405e-10
1.4391e-08
4.5572e-10
1.39468e-08
4.44202e-10
1.35167e-08
4.30132e-10
1.3105e-08
4.11686e-10
1.27151e-08
3.89949e-10
1.23483e-08
3.66743e-10
1.20049e-08
3.43433e-10
1.1684e-08
3.20861e-10
1.13846e-08
2.99446e-10
1.11049e-08
2.7968e-10
1.0843e-08
2.61926e-10
1.05964e-08
2.46539e-10
1.03632e-08
2.33276e-10
1.01415e-08
2.21667e-10
9.93035e-09
2.11135e-10
9.72872e-09
2.01635e-10
9.5357e-09
1.93016e-10
9.35052e-09
1.85178e-10
9.17284e-09
1.77681e-10
9.00231e-09
1.70532e-10
8.83865e-09
1.63662e-10
8.68121e-09
1.57439e-10
8.52946e-09
1.51748e-10
8.3828e-09
1.46661e-10
8.24106e-09
1.41738e-10
8.10397e-09
1.37089e-10
7.97148e-09
1.32499e-10
7.84323e-09
1.28247e-10
7.71916e-09
1.24069e-10
7.59881e-09
1.20353e-10
7.48204e-09
1.16767e-10
7.3685e-09
1.1354e-10
7.25816e-09
1.10336e-10
7.15063e-09
1.0753e-10
7.04607e-09
1.04564e-10
6.94423e-09
1.01843e-10
6.8452e-09
9.90214e-11
6.74857e-09
9.66371e-11
6.65444e-09
9.41239e-11
6.56251e-09
9.19294e-11
6.47301e-09
8.95076e-11
6.38554e-09
8.74706e-11
6.30037e-09
8.51697e-11
6.21702e-09
8.33443e-11
6.13571e-09
8.13097e-11
6.05593e-09
7.97792e-11
5.9781e-09
7.78342e-11
5.90169e-09
7.64091e-11
5.82713e-09
7.45629e-11
5.75391e-09
7.3217e-11
5.6824e-09
7.1507e-11
5.61201e-09
7.03946e-11
5.54338e-09
6.86309e-11
5.47592e-09
6.74619e-11
5.41011e-09
6.58037e-11
5.34523e-09
6.48835e-11
5.28191e-09
6.33143e-11
5.21946e-09
6.24508e-11
5.15856e-09
6.09032e-11
5.09831e-09
6.02548e-11
5.0395e-09
5.88017e-11
4.98131e-09
5.81937e-11
4.92465e-09
5.66561e-11
4.86849e-09
5.61653e-11
4.81382e-09
5.46684e-11
4.75957e-09
5.42521e-11
4.70684e-09
5.27255e-11
4.65438e-09
5.24654e-11
4.6034e-09
5.09776e-11
4.55258e-09
5.08147e-11
4.50326e-09
4.93227e-11
4.45401e-09
4.92517e-11
4.40627e-09
4.77423e-11
4.35856e-09
4.7707e-11
4.31237e-09
4.61913e-11
4.2661e-09
4.62698e-11
4.22129e-09
4.48117e-11
4.1763e-09
4.49854e-11
4.1327e-09
4.36044e-11
4.08894e-09
4.37562e-11
4.04635e-09
4.25944e-11
4.0037e-09
4.26478e-11
3.96166e-09
4.2038e-11
3.91994e-09
4.17197e-11
4.36918e-11
8.53895e-08
6.20775e-09
-8.48441e-08
8.44904e-08
9.2828e-09
8.26261e-08
1.01203e-08
8.02168e-08
1.04398e-08
7.72674e-08
1.07246e-08
7.38095e-08
1.06561e-08
6.99956e-08
9.9443e-09
6.6092e-08
8.57028e-09
6.24093e-08
6.82976e-09
5.91393e-08
5.24092e-09
5.62687e-08
4.12096e-09
5.37089e-08
3.40648e-09
5.14074e-08
2.92826e-09
4.93349e-08
2.59041e-09
4.74584e-08
2.34997e-09
4.57483e-08
2.1658e-09
4.41806e-08
2.01189e-09
4.27362e-08
1.87458e-09
4.13996e-08
1.74821e-09
4.01586e-08
1.63097e-09
3.90027e-08
1.52262e-09
3.79237e-08
1.42247e-09
3.69149e-08
1.32968e-09
3.59708e-08
1.24358e-09
3.50857e-08
1.16472e-09
3.42539e-08
1.09372e-09
3.34693e-08
1.03117e-09
3.27265e-08
9.7605e-10
3.20212e-08
9.2702e-10
3.13498e-08
8.82475e-10
3.07093e-08
8.42106e-10
3.00972e-08
8.05161e-10
2.95111e-08
7.71255e-10
2.89496e-08
7.39196e-10
2.8411e-08
7.09107e-10
2.78939e-08
6.80748e-10
2.73964e-08
6.55016e-10
2.69168e-08
6.31354e-10
2.64536e-08
6.09849e-10
2.60061e-08
5.89194e-10
2.55735e-08
5.69747e-10
2.51551e-08
5.50816e-10
2.47502e-08
5.33241e-10
2.4358e-08
5.16207e-10
2.39776e-08
5.00757e-10
2.36086e-08
4.85818e-10
2.32499e-08
4.72186e-10
2.29015e-08
4.58752e-10
2.25624e-08
4.46615e-10
2.22328e-08
4.34185e-10
2.19118e-08
4.2281e-10
2.15995e-08
4.11306e-10
2.12949e-08
4.01267e-10
2.09981e-08
3.90892e-10
2.07084e-08
3.81676e-10
2.04261e-08
3.71834e-10
2.01502e-08
3.63331e-10
1.98813e-08
3.54111e-10
1.96181e-08
3.46491e-10
1.93613e-08
3.38159e-10
1.91096e-08
3.31458e-10
1.88639e-08
3.23526e-10
1.8623e-08
3.17341e-10
1.83877e-08
3.09826e-10
1.81568e-08
3.04138e-10
1.79311e-08
2.97146e-10
1.77094e-08
2.92148e-10
1.74929e-08
2.85111e-10
1.72801e-08
2.80269e-10
1.70723e-08
2.73653e-10
1.68675e-08
2.69598e-10
1.66676e-08
2.63243e-10
1.64705e-08
2.59531e-10
1.62781e-08
2.53338e-10
1.6088e-08
2.50345e-10
1.59025e-08
2.44357e-10
1.5719e-08
2.41635e-10
1.55402e-08
2.35483e-10
1.53631e-08
2.33284e-10
1.51905e-08
2.27197e-10
1.50194e-08
2.25402e-10
1.48529e-08
2.19206e-10
1.46873e-08
2.18032e-10
1.45265e-08
2.11814e-10
1.43662e-08
2.11148e-10
1.42107e-08
2.04796e-10
1.40553e-08
2.04655e-10
1.3905e-08
1.98058e-10
1.37544e-08
1.98331e-10
1.36091e-08
1.91493e-10
1.34629e-08
1.92429e-10
1.33222e-08
1.85457e-10
1.31802e-08
1.87065e-10
1.30438e-08
1.79941e-10
1.29056e-08
1.82022e-10
1.27731e-08
1.75075e-10
1.26382e-08
1.77531e-10
1.25086e-08
1.71642e-10
1.23765e-08
1.73786e-10
1.75276e-10
8.9205e-08
5.74845e-09
-8.87457e-08
8.96425e-08
8.84531e-09
8.96009e-08
1.0162e-08
8.93728e-08
1.06679e-08
8.90101e-08
1.10873e-08
8.83774e-08
1.12888e-08
8.73589e-08
1.09628e-08
8.59575e-08
9.97173e-09
8.42948e-08
8.49241e-09
8.25512e-08
6.9846e-09
8.08268e-08
5.84533e-09
7.9121e-08
5.11229e-09
7.74201e-08
4.62908e-09
7.57316e-08
4.27895e-09
7.40673e-08
4.01424e-09
7.24333e-08
3.79988e-09
7.08326e-08
3.61253e-09
6.92677e-08
3.43948e-09
6.77405e-08
3.27548e-09
6.62526e-08
3.11882e-09
6.48057e-08
2.96955e-09
6.34013e-08
2.82687e-09
6.2041e-08
2.68994e-09
6.07266e-08
2.55795e-09
5.94591e-08
2.43228e-09
5.82383e-08
2.31451e-09
5.7063e-08
2.20647e-09
5.59317e-08
2.1073e-09
5.48429e-08
2.01588e-09
5.3795e-08
1.9304e-09
5.2786e-08
1.85109e-09
5.18142e-08
1.77696e-09
5.08777e-08
1.70777e-09
4.99751e-08
1.64173e-09
4.91048e-08
1.57942e-09
4.82651e-08
1.52043e-09
4.74537e-08
1.46649e-09
4.66685e-08
1.41656e-09
4.59074e-08
1.37093e-09
4.51694e-08
1.32718e-09
4.44531e-08
1.28604e-09
4.37579e-08
1.24604e-09
4.30823e-08
1.20877e-09
4.2426e-08
1.17259e-09
4.17873e-08
1.13939e-09
4.11661e-08
1.10702e-09
4.05611e-08
1.07718e-09
3.99722e-08
1.04765e-09
3.93983e-08
1.02059e-09
3.88394e-08
9.93055e-10
3.82944e-08
9.67823e-10
3.77632e-08
9.42461e-10
3.72444e-08
9.20087e-10
3.67382e-08
8.97125e-10
3.62432e-08
8.76642e-10
3.57601e-08
8.54971e-10
3.52873e-08
8.36068e-10
3.48257e-08
8.15773e-10
3.43735e-08
7.98702e-10
3.39316e-08
7.80056e-10
3.34983e-08
7.64685e-10
3.3075e-08
7.46901e-10
3.26596e-08
7.32713e-10
3.22536e-08
7.15847e-10
3.18548e-08
7.02922e-10
3.14647e-08
6.8718e-10
3.10813e-08
6.75605e-10
3.07064e-08
6.59949e-10
3.03377e-08
6.49028e-10
2.99771e-08
6.34207e-10
2.96219e-08
6.248e-10
2.92747e-08
6.10435e-10
2.89324e-08
6.01894e-10
2.85978e-08
5.87912e-10
2.82673e-08
5.80833e-10
2.79445e-08
5.67156e-10
2.76253e-08
5.60836e-10
2.73139e-08
5.46926e-10
2.70053e-08
5.41811e-10
2.67046e-08
5.27927e-10
2.64062e-08
5.23833e-10
2.61157e-08
5.09665e-10
2.58268e-08
5.0696e-10
2.55461e-08
4.92553e-10
2.52661e-08
4.9113e-10
2.49946e-08
4.76268e-10
2.47231e-08
4.76201e-10
2.44605e-08
4.60583e-10
2.41971e-08
4.61745e-10
2.39433e-08
4.45303e-10
2.36876e-08
4.48184e-10
2.3442e-08
4.31023e-10
2.31933e-08
4.35737e-10
2.29555e-08
4.17725e-10
2.27135e-08
4.24075e-10
2.24829e-08
4.05686e-10
2.22468e-08
4.13601e-10
2.2022e-08
3.96433e-10
2.17913e-08
4.04526e-10
4.00729e-10
9.29806e-08
5.5521e-09
-9.27843e-08
9.3517e-08
8.30892e-09
9.37988e-08
9.88023e-09
9.39869e-08
1.04798e-08
9.42391e-08
1.08351e-08
9.44819e-08
1.10459e-08
9.45677e-08
1.0877e-08
9.43967e-08
1.01427e-08
9.39589e-08
8.93022e-09
9.33478e-08
7.59576e-09
9.26673e-08
6.52578e-09
9.19467e-08
5.83288e-09
9.11749e-08
5.4009e-09
9.03514e-08
5.10252e-09
8.94871e-08
4.87851e-09
8.85897e-08
4.69725e-09
8.76628e-08
4.53944e-09
8.67083e-08
4.39397e-09
8.57279e-08
4.25592e-09
8.47237e-08
4.12298e-09
8.36984e-08
3.9949e-09
8.2655e-08
3.87027e-09
8.15969e-08
3.74799e-09
8.05281e-08
3.62676e-09
7.94522e-08
3.50824e-09
7.83725e-08
3.39414e-09
7.72919e-08
3.28707e-09
7.62133e-08
3.18597e-09
7.51392e-08
3.08994e-09
7.40728e-08
2.99682e-09
7.30164e-08
2.9075e-09
7.19726e-08
2.82075e-09
7.09433e-08
2.73698e-09
6.9931e-08
2.65407e-09
6.89368e-08
2.57361e-09
6.7962e-08
2.49525e-09
6.70064e-08
2.42212e-09
6.60699e-08
2.35305e-09
6.51516e-08
2.28927e-09
6.42513e-08
2.22744e-09
6.33682e-08
2.16915e-09
6.25022e-08
2.11199e-09
6.16524e-08
2.05862e-09
6.08187e-08
2.00625e-09
6.00003e-08
1.95787e-09
5.91974e-08
1.90983e-09
5.84095e-08
1.8651e-09
5.76373e-08
1.81992e-09
5.68799e-08
1.77796e-09
5.61384e-08
1.73455e-09
5.54117e-08
1.69453e-09
5.47003e-08
1.65382e-09
5.40026e-08
1.61779e-09
5.33192e-08
1.58059e-09
5.26482e-08
1.54761e-09
5.19906e-08
1.51255e-09
5.13446e-08
1.48211e-09
5.07112e-08
1.44914e-09
5.00885e-08
1.4214e-09
4.9478e-08
1.39058e-09
4.88777e-08
1.36501e-09
4.82894e-08
1.33518e-09
4.77108e-08
1.3113e-09
4.7144e-08
1.28268e-09
4.6586e-08
1.26089e-09
4.60391e-08
1.23405e-09
4.55003e-08
1.2144e-09
4.49725e-08
1.18782e-09
4.4452e-08
1.16952e-09
4.3942e-08
1.14415e-09
4.34387e-08
1.12813e-09
4.29459e-08
1.10326e-09
4.24591e-08
1.08867e-09
4.19827e-08
1.06431e-09
4.15115e-08
1.05205e-09
4.10506e-08
1.02799e-09
4.05943e-08
1.01719e-09
4.01484e-08
9.92783e-10
3.97062e-08
9.8408e-10
3.92746e-08
9.5952e-10
3.88457e-08
9.52677e-10
3.84279e-08
9.27492e-10
3.80118e-08
9.23049e-10
3.76072e-08
8.97199e-10
3.72032e-08
8.95128e-10
3.68112e-08
8.68272e-10
3.64186e-08
8.6874e-10
3.60389e-08
8.40302e-10
3.56575e-08
8.43193e-10
3.52898e-08
8.12985e-10
3.49189e-08
8.19083e-10
3.45627e-08
7.8717e-10
3.42017e-08
7.9676e-10
3.38566e-08
7.62855e-10
3.35049e-08
7.75777e-10
3.31701e-08
7.40494e-10
3.2827e-08
7.56642e-10
3.25009e-08
7.22571e-10
3.2166e-08
7.39454e-10
7.25239e-10
9.69834e-08
5.48173e-09
-9.69131e-08
9.74594e-08
7.83295e-09
9.78318e-08
9.50785e-09
9.80876e-08
1.02239e-08
9.84007e-08
1.05221e-08
9.87766e-08
1.067e-08
9.91138e-08
1.05398e-08
9.93051e-08
9.95135e-09
9.93005e-08
8.93486e-09
9.91434e-08
7.75277e-09
9.89224e-08
6.74687e-09
9.86801e-08
6.0751e-09
9.84113e-08
5.66977e-09
9.81072e-08
5.4066e-09
9.77717e-08
5.21404e-09
9.74097e-08
5.05919e-09
9.70226e-08
4.9265e-09
9.66094e-08
4.80725e-09
9.61678e-08
4.69753e-09
9.56963e-08
4.59443e-09
9.51939e-08
4.49732e-09
9.46602e-08
4.40393e-09
9.40952e-08
4.31297e-09
9.34996e-08
4.22238e-09
9.2874e-08
4.13388e-09
9.22195e-08
4.04867e-09
9.15368e-08
3.96969e-09
9.08276e-08
3.89519e-09
9.00932e-08
3.82439e-09
8.93359e-08
3.75414e-09
8.85578e-08
3.68559e-09
8.7762e-08
3.61654e-09
8.69512e-08
3.54774e-09
8.61292e-08
3.47611e-09
8.52987e-08
3.40409e-09
8.44632e-08
3.33078e-09
8.36245e-08
3.26081e-09
8.27849e-08
3.19264e-09
8.19451e-08
3.12908e-09
8.11066e-08
3.06593e-09
8.02694e-08
3.00632e-09
7.94345e-08
2.94684e-09
7.86014e-08
2.89177e-09
7.77708e-08
2.83689e-09
7.69418e-08
2.78678e-09
7.61159e-08
2.73577e-09
7.52926e-08
2.68841e-09
7.44738e-08
2.63867e-09
7.36597e-08
2.59204e-09
7.2853e-08
2.54134e-09
7.20535e-08
2.49404e-09
7.12634e-08
2.44384e-09
7.04819e-08
2.39934e-09
6.97105e-08
2.35198e-09
6.89475e-08
2.31062e-09
6.81943e-08
2.26569e-09
6.74488e-08
2.2276e-09
6.67127e-08
2.18531e-09
6.59835e-08
2.15063e-09
6.52635e-08
2.11054e-09
6.45507e-08
2.07784e-09
6.38479e-08
2.0379e-09
6.31528e-08
2.00643e-09
6.24686e-08
1.96687e-09
6.1792e-08
1.93749e-09
6.11262e-08
1.89981e-09
6.04675e-08
1.8731e-09
5.98197e-08
1.83567e-09
5.91781e-08
1.81111e-09
5.85471e-08
1.77517e-09
5.79216e-08
1.7536e-09
5.7307e-08
1.71782e-09
5.66978e-08
1.69795e-09
5.60997e-08
1.66234e-09
5.55063e-08
1.64544e-09
5.49246e-08
1.60972e-09
5.43469e-08
1.59495e-09
5.3781e-08
1.55859e-09
5.32182e-08
1.54693e-09
5.26677e-08
1.51001e-09
5.21193e-08
1.50112e-09
5.15838e-08
1.46293e-09
5.10494e-08
1.45752e-09
5.05286e-08
1.41791e-09
5.00076e-08
1.41613e-09
4.95012e-08
1.37468e-09
4.89931e-08
1.37685e-09
4.85008e-08
1.33264e-09
4.80053e-08
1.33866e-09
4.7527e-08
1.29134e-09
4.70438e-08
1.30231e-09
4.6579e-08
1.25192e-09
4.61074e-08
1.26835e-09
4.56558e-08
1.21445e-09
4.51954e-08
1.23622e-09
4.47563e-08
1.17959e-09
4.43065e-08
1.20645e-09
4.38781e-08
1.15091e-09
4.34385e-08
1.17909e-09
1.1495e-09
1.01159e-07
5.45871e-09
-1.01136e-07
1.01549e-07
7.44306e-09
1.01958e-07
9.09907e-09
1.02257e-07
9.92475e-09
1.0256e-07
1.02186e-08
1.02921e-07
1.03099e-08
1.03282e-07
1.01785e-08
1.03548e-07
9.68538e-09
1.03661e-07
8.82168e-09
1.03639e-07
7.77444e-09
1.03559e-07
6.82749e-09
1.03471e-07
6.16282e-09
1.03381e-07
5.75954e-09
1.03279e-07
5.50885e-09
1.03163e-07
5.33012e-09
1.03037e-07
5.18529e-09
1.02903e-07
5.06081e-09
1.02759e-07
4.95047e-09
1.02604e-07
4.85243e-09
1.02435e-07
4.76353e-09
1.02249e-07
4.68325e-09
1.02045e-07
4.60845e-09
1.0182e-07
4.53809e-09
1.01573e-07
4.46933e-09
1.01302e-07
4.40434e-09
1.01008e-07
4.34355e-09
1.00687e-07
4.2905e-09
1.00339e-07
4.24254e-09
9.99643e-08
4.19941e-09
9.95617e-08
4.15676e-09
9.91311e-08
4.11618e-09
9.86737e-08
4.07398e-09
9.81901e-08
4.03134e-09
9.76826e-08
3.98361e-09
9.71527e-08
3.93395e-09
9.66035e-08
3.88002e-09
9.60365e-08
3.82781e-09
9.54544e-08
3.7747e-09
9.48581e-08
3.72537e-09
9.42497e-08
3.67436e-09
9.36292e-08
3.62684e-09
9.2998e-08
3.57801e-09
9.23554e-08
3.53443e-09
9.17021e-08
3.49012e-09
9.10369e-08
3.45203e-09
9.03606e-08
3.41209e-09
8.96719e-08
3.37706e-09
8.89727e-08
3.33789e-09
8.82625e-08
3.30218e-09
8.75448e-08
3.25909e-09
8.682e-08
3.21881e-09
8.60922e-08
3.17165e-09
8.53615e-08
3.13008e-09
8.46313e-08
3.08213e-09
8.39006e-08
3.04134e-09
8.3172e-08
2.99435e-09
8.24429e-08
2.9567e-09
8.17155e-08
2.91265e-09
8.09868e-08
2.87933e-09
8.02595e-08
2.83788e-09
7.95308e-08
2.80653e-09
7.88048e-08
2.76392e-09
7.80788e-08
2.73237e-09
7.73581e-08
2.68766e-09
7.66392e-08
2.65633e-09
7.59272e-08
2.61183e-09
7.52178e-08
2.58249e-09
7.45161e-08
2.53738e-09
7.38164e-08
2.51077e-09
7.31242e-08
2.46737e-09
7.24332e-08
2.44462e-09
7.17501e-08
2.40091e-09
7.10683e-08
2.37982e-09
7.03955e-08
2.33514e-09
6.9724e-08
2.3169e-09
6.90629e-08
2.27078e-09
6.84031e-08
2.25476e-09
6.77545e-08
2.20719e-09
6.71063e-08
2.1952e-09
6.64699e-08
2.1464e-09
6.58329e-08
2.13809e-09
6.52088e-08
2.08702e-09
6.45832e-08
2.08308e-09
6.39719e-08
2.02928e-09
6.33579e-08
2.03007e-09
6.27594e-08
1.97318e-09
6.21569e-08
1.97937e-09
6.15713e-08
1.91824e-09
6.09802e-08
1.92973e-09
6.04078e-08
1.86376e-09
5.98282e-08
1.88187e-09
5.92691e-08
1.81106e-09
5.87008e-08
1.83663e-09
5.81548e-08
1.76049e-09
5.75975e-08
1.79346e-09
5.70641e-08
1.71299e-09
5.65177e-08
1.75284e-09
5.59954e-08
1.67321e-09
5.54596e-08
1.71496e-09
1.6664e-09
1.05473e-07
5.44461e-09
-1.05458e-07
1.05783e-07
7.13303e-09
1.06194e-07
8.6881e-09
1.06533e-07
9.58508e-09
1.06838e-07
9.91389e-09
1.07174e-07
9.97424e-09
1.07521e-07
9.83153e-09
1.07799e-07
9.40667e-09
1.07951e-07
8.6699e-09
1.07977e-07
7.74884e-09
1.07937e-07
6.86683e-09
1.0789e-07
6.21048e-09
1.0785e-07
5.79949e-09
1.0781e-07
5.54907e-09
1.07764e-07
5.37562e-09
1.07716e-07
5.23376e-09
1.07667e-07
5.10937e-09
1.0762e-07
4.99792e-09
1.07572e-07
4.9004e-09
1.07521e-07
4.8138e-09
1.07466e-07
4.73817e-09
1.07405e-07
4.66941e-09
1.07336e-07
4.60711e-09
1.07258e-07
4.5475e-09
1.07169e-07
4.49363e-09
1.07067e-07
4.44503e-09
1.06952e-07
4.40622e-09
1.06821e-07
4.37357e-09
1.06672e-07
4.34788e-09
1.06505e-07
4.32354e-09
1.06319e-07
4.30308e-09
1.06111e-07
4.28115e-09
1.05883e-07
4.25985e-09
1.05634e-07
4.23261e-09
1.05364e-07
4.20365e-09
1.05076e-07
4.16857e-09
1.04769e-07
4.13487e-09
1.04445e-07
4.09812e-09
1.04105e-07
4.06517e-09
1.03751e-07
4.0287e-09
1.03382e-07
3.9963e-09
1.02998e-07
3.96115e-09
1.026e-07
3.93264e-09
1.02188e-07
3.90254e-09
1.01759e-07
3.88097e-09
1.01314e-07
3.85717e-09
1.0085e-07
3.84113e-09
1.00367e-07
3.82029e-09
9.98643e-08
3.80518e-09
9.9343e-08
3.78032e-09
9.88029e-08
3.75892e-09
9.82483e-08
3.72626e-09
9.76794e-08
3.699e-09
9.71011e-08
3.66041e-09
9.65128e-08
3.62961e-09
9.59186e-08
3.58857e-09
9.5316e-08
3.55931e-09
9.47079e-08
3.52074e-09
9.40903e-08
3.49691e-09
9.34659e-08
3.46232e-09
9.28303e-08
3.44211e-09
9.21876e-08
3.40658e-09
9.15344e-08
3.38565e-09
9.08766e-08
3.34537e-09
9.02114e-08
3.32154e-09
8.95456e-08
3.27771e-09
8.88749e-08
3.25311e-09
8.82064e-08
3.20594e-09
8.75337e-08
3.1835e-09
8.68632e-08
3.13783e-09
8.61873e-08
3.12051e-09
8.55135e-08
3.07474e-09
8.48337e-08
3.0596e-09
8.41573e-08
3.01157e-09
8.34757e-08
2.99849e-09
8.28e-08
2.94646e-09
8.21203e-08
2.93444e-09
8.14485e-08
2.87899e-09
8.07724e-08
2.87131e-09
8.01051e-08
2.81366e-09
7.94326e-08
2.81065e-09
7.877e-08
2.74963e-09
7.81014e-08
2.75166e-09
7.74447e-08
2.686e-09
7.67815e-08
2.69327e-09
7.61321e-08
2.62261e-09
7.5475e-08
2.63641e-09
7.48335e-08
2.5598e-09
7.41829e-08
2.58026e-09
7.35498e-08
2.49685e-09
7.29065e-08
2.52525e-09
7.22827e-08
2.43479e-09
7.16472e-08
2.4722e-09
7.10333e-08
2.37438e-09
7.04058e-08
2.42097e-09
6.98016e-08
2.31718e-09
6.91824e-08
2.37205e-09
6.85868e-08
2.26878e-09
6.79759e-08
2.32584e-09
2.25769e-09
1.09911e-07
5.42532e-09
-1.09891e-07
1.10157e-07
6.88642e-09
1.10549e-07
8.2965e-09
1.10917e-07
9.21718e-09
1.11234e-07
9.59624e-09
1.11556e-07
9.65252e-09
1.11885e-07
9.50313e-09
1.12164e-07
9.12769e-09
1.12337e-07
8.49635e-09
1.12394e-07
7.69229e-09
1.12377e-07
6.88344e-09
1.12344e-07
6.24379e-09
1.12318e-07
5.82475e-09
1.12299e-07
5.56891e-09
1.12277e-07
5.3975e-09
1.12253e-07
5.2578e-09
1.12229e-07
5.13275e-09
1.12209e-07
5.01781e-09
1.12193e-07
4.91708e-09
1.12179e-07
4.82804e-09
1.12165e-07
4.75193e-09
1.12151e-07
4.68339e-09
1.12135e-07
4.62293e-09
1.12117e-07
4.56551e-09
1.12095e-07
4.51532e-09
1.1207e-07
4.47069e-09
1.12038e-07
4.43758e-09
1.12001e-07
4.41101e-09
1.11955e-07
4.39344e-09
1.11901e-07
4.37771e-09
1.11836e-07
4.36792e-09
1.11761e-07
4.35679e-09
1.11672e-07
4.34804e-09
1.11572e-07
4.33283e-09
1.11459e-07
4.3171e-09
1.11333e-07
4.2939e-09
1.11196e-07
4.27274e-09
1.11047e-07
4.24671e-09
1.10887e-07
4.22537e-09
1.10717e-07
4.19882e-09
1.10535e-07
4.17761e-09
1.10344e-07
4.15208e-09
1.10142e-07
4.13504e-09
1.09929e-07
4.11519e-09
1.09704e-07
4.10662e-09
1.09466e-07
4.09537e-09
1.09211e-07
4.09569e-09
1.0894e-07
4.09117e-09
1.08649e-07
4.09648e-09
1.08338e-07
4.09092e-09
1.08006e-07
4.09151e-09
1.07655e-07
4.07728e-09
1.07284e-07
4.06941e-09
1.069e-07
4.04501e-09
1.065e-07
4.02925e-09
1.0609e-07
3.99824e-09
1.05668e-07
3.9814e-09
1.05237e-07
3.95144e-09
1.04794e-07
3.94065e-09
1.0434e-07
3.91637e-09
1.03869e-07
3.91247e-09
1.03386e-07
3.89002e-09
1.02884e-07
3.88776e-09
1.02369e-07
3.86024e-09
1.01837e-07
3.85311e-09
1.01297e-07
3.81802e-09
1.00744e-07
3.80608e-09
1.00187e-07
3.76302e-09
9.96197e-08
3.75072e-09
9.905e-08
3.7076e-09
9.8469e-08
3.70149e-09
9.78843e-08
3.65944e-09
9.72862e-08
3.65764e-09
9.66843e-08
3.61346e-09
9.60692e-08
3.61367e-09
9.54529e-08
3.5627e-09
9.48256e-08
3.56172e-09
9.42008e-08
3.50378e-09
9.35661e-08
3.50601e-09
9.29356e-08
3.44418e-09
9.22942e-08
3.45204e-09
9.16576e-08
3.38626e-09
9.1009e-08
3.40023e-09
9.03671e-08
3.32789e-09
8.97135e-08
3.34689e-09
8.90693e-08
3.2668e-09
8.84132e-08
3.29256e-09
8.77684e-08
3.20455e-09
8.71105e-08
3.23816e-09
8.64657e-08
3.14168e-09
8.58068e-08
3.18418e-09
8.51633e-08
3.07825e-09
8.45052e-08
3.13034e-09
8.38648e-08
3.01478e-09
8.32086e-08
3.07714e-09
8.25715e-08
2.95427e-09
8.19179e-08
3.02569e-09
8.12833e-08
2.90328e-09
8.06328e-08
2.97642e-09
2.89223e-09
1.14478e-07
5.4003e-09
-1.14453e-07
1.1468e-07
6.68476e-09
1.1504e-07
7.93607e-09
1.1542e-07
8.83723e-09
1.15754e-07
9.26194e-09
1.16071e-07
9.33602e-09
1.16382e-07
9.19154e-09
1.16656e-07
8.85377e-09
1.16844e-07
8.30844e-09
1.16927e-07
7.60904e-09
1.16932e-07
6.8785e-09
1.16911e-07
6.26536e-09
1.16893e-07
5.8426e-09
1.16883e-07
5.57875e-09
1.16873e-07
5.40722e-09
1.16861e-07
5.2702e-09
1.16847e-07
5.14636e-09
1.16836e-07
5.02891e-09
1.16828e-07
4.92487e-09
1.16824e-07
4.83231e-09
1.16822e-07
4.75447e-09
1.16821e-07
4.68452e-09
1.16819e-07
4.62417e-09
1.16818e-07
4.56662e-09
1.16816e-07
4.51752e-09
1.16813e-07
4.47346e-09
1.16809e-07
4.44225e-09
1.16802e-07
4.41717e-09
1.16793e-07
4.40277e-09
1.16781e-07
4.38994e-09
1.16764e-07
4.38497e-09
1.16742e-07
4.37823e-09
1.16715e-07
4.37572e-09
1.16681e-07
4.36598e-09
1.16641e-07
4.3573e-09
1.16595e-07
4.3397e-09
1.16543e-07
4.32536e-09
1.16485e-07
4.30428e-09
1.16421e-07
4.2893e-09
1.16353e-07
4.26732e-09
1.16278e-07
4.25239e-09
1.16199e-07
4.23126e-09
1.16113e-07
4.22065e-09
1.16023e-07
4.20544e-09
1.15925e-07
4.20422e-09
1.15822e-07
4.19912e-09
1.15708e-07
4.20956e-09
1.15584e-07
4.21473e-09
1.15446e-07
4.23462e-09
1.15294e-07
4.24293e-09
1.15124e-07
4.2616e-09
1.14939e-07
4.2627e-09
1.14735e-07
4.27263e-09
1.14519e-07
4.26121e-09
1.14288e-07
4.26013e-09
1.14048e-07
4.23848e-09
1.13796e-07
4.23366e-09
1.13536e-07
4.21111e-09
1.13265e-07
4.21218e-09
1.12985e-07
4.19636e-09
1.12689e-07
4.20772e-09
1.12381e-07
4.19793e-09
1.12053e-07
4.21585e-09
1.1171e-07
4.20386e-09
1.11345e-07
4.21781e-09
1.10967e-07
4.19611e-09
1.10571e-07
4.202e-09
1.10167e-07
4.16736e-09
1.09748e-07
4.16894e-09
1.09325e-07
4.13093e-09
1.08888e-07
4.13853e-09
1.08445e-07
4.10286e-09
1.07984e-07
4.11827e-09
1.07515e-07
4.08296e-09
1.07026e-07
4.10262e-09
1.06529e-07
4.05945e-09
1.06015e-07
4.07602e-09
1.05497e-07
4.02162e-09
1.04964e-07
4.03863e-09
1.04431e-07
3.97733e-09
1.03883e-07
4.0002e-09
1.03334e-07
3.93504e-09
1.02768e-07
3.96616e-09
1.02202e-07
3.89385e-09
1.01619e-07
3.92993e-09
1.01039e-07
3.84674e-09
1.00443e-07
3.88841e-09
9.98531e-08
3.79478e-09
9.92463e-08
3.84494e-09
9.86459e-08
3.74207e-09
9.80279e-08
3.8022e-09
9.7418e-08
3.68814e-09
9.6791e-08
3.75734e-09
9.61746e-08
3.63115e-09
9.55414e-08
3.71038e-09
9.49195e-08
3.57618e-09
9.42807e-08
3.66453e-09
9.36523e-08
3.53165e-09
9.30084e-08
3.62025e-09
3.52791e-09
1.19189e-07
5.37462e-09
-1.19164e-07
1.19361e-07
6.5133e-09
1.19687e-07
7.61012e-09
1.20064e-07
8.46003e-09
1.20412e-07
8.91391e-09
1.20728e-07
9.02002e-09
1.21026e-07
8.89333e-09
1.21292e-07
8.58826e-09
1.21487e-07
8.1128e-09
1.21592e-07
7.50397e-09
1.21619e-07
6.85201e-09
1.2161e-07
6.27423e-09
1.21598e-07
5.85424e-09
1.21595e-07
5.58212e-09
1.21594e-07
5.40828e-09
1.2159e-07
5.27374e-09
1.21584e-07
5.1531e-09
1.21577e-07
5.0351e-09
1.21574e-07
4.92884e-09
1.21573e-07
4.83286e-09
1.21574e-07
4.75329e-09
1.21577e-07
4.68171e-09
1.2158e-07
4.62137e-09
1.21583e-07
4.56333e-09
1.21586e-07
4.5149e-09
1.21589e-07
4.47048e-09
1.21591e-07
4.44001e-09
1.21593e-07
4.41465e-09
1.21595e-07
4.4014e-09
1.21596e-07
4.38887e-09
1.21595e-07
4.38594e-09
1.21593e-07
4.38032e-09
1.21588e-07
4.38078e-09
1.21581e-07
4.3729e-09
1.2157e-07
4.36789e-09
1.21558e-07
4.35235e-09
1.21541e-07
4.34158e-09
1.21524e-07
4.32207e-09
1.21503e-07
4.31037e-09
1.2148e-07
4.28965e-09
1.21455e-07
4.27798e-09
1.21428e-07
4.25791e-09
1.21398e-07
4.25052e-09
1.21367e-07
4.23619e-09
1.21333e-07
4.23838e-09
1.21298e-07
4.23466e-09
1.21257e-07
4.25005e-09
1.21213e-07
4.25886e-09
1.2116e-07
4.2871e-09
1.21101e-07
4.30269e-09
1.21029e-07
4.33333e-09
1.20948e-07
4.34397e-09
1.20854e-07
4.36687e-09
1.20751e-07
4.36413e-09
1.20636e-07
4.37429e-09
1.20516e-07
4.35876e-09
1.20387e-07
4.3631e-09
1.20253e-07
4.3448e-09
1.20111e-07
4.35432e-09
1.19964e-07
4.34277e-09
1.19807e-07
4.36486e-09
1.19642e-07
4.36311e-09
1.19461e-07
4.39732e-09
1.19266e-07
4.39813e-09
1.19052e-07
4.43173e-09
1.18825e-07
4.42318e-09
1.1858e-07
4.44744e-09
1.18325e-07
4.42231e-09
1.18056e-07
4.43835e-09
1.17781e-07
4.4056e-09
1.17494e-07
4.4259e-09
1.17201e-07
4.39583e-09
1.16891e-07
4.42745e-09
1.16573e-07
4.40175e-09
1.16233e-07
4.44215e-09
1.15882e-07
4.41035e-09
1.15511e-07
4.44772e-09
1.15131e-07
4.40148e-09
1.14733e-07
4.43583e-09
1.14332e-07
4.37851e-09
1.13915e-07
4.41742e-09
1.13494e-07
4.35634e-09
1.13053e-07
4.40648e-09
1.12607e-07
4.33997e-09
1.12141e-07
4.39646e-09
1.11671e-07
4.31697e-09
1.11182e-07
4.3768e-09
1.10693e-07
4.28368e-09
1.10187e-07
4.35129e-09
1.0968e-07
4.24902e-09
1.09154e-07
4.32821e-09
1.08627e-07
4.21498e-09
1.08082e-07
4.3024e-09
1.07538e-07
4.17471e-09
1.06979e-07
4.27005e-09
1.06421e-07
4.13423e-09
1.05847e-07
4.23795e-09
1.05273e-07
4.10601e-09
1.04685e-07
4.20806e-09
4.11834e-09
1.24062e-07
5.35543e-09
-1.24043e-07
1.24214e-07
6.36113e-09
1.24509e-07
7.31562e-09
1.24873e-07
8.09584e-09
1.25227e-07
8.55994e-09
1.25544e-07
8.70243e-09
1.25833e-07
8.60488e-09
1.26089e-07
8.33241e-09
1.26286e-07
7.91493e-09
1.26407e-07
7.38301e-09
1.26454e-07
6.80544e-09
1.26459e-07
6.26965e-09
1.26453e-07
5.85941e-09
1.26454e-07
5.58105e-09
1.2646e-07
5.40304e-09
1.26464e-07
5.26974e-09
1.26463e-07
5.15353e-09
1.26461e-07
5.03699e-09
1.2646e-07
4.93004e-09
1.26462e-07
4.83112e-09
1.26465e-07
4.74996e-09
1.2647e-07
4.67682e-09
1.26475e-07
4.61672e-09
1.2648e-07
4.55829e-09
1.26484e-07
4.51071e-09
1.26489e-07
4.46583e-09
1.26493e-07
4.43588e-09
1.26498e-07
4.40964e-09
1.26502e-07
4.39681e-09
1.26508e-07
4.38344e-09
1.26513e-07
4.3813e-09
1.26518e-07
4.37525e-09
1.26521e-07
4.37715e-09
1.26525e-07
4.36942e-09
1.26526e-07
4.36653e-09
1.26527e-07
4.35144e-09
1.26526e-07
4.34288e-09
1.26524e-07
4.32353e-09
1.26521e-07
4.31388e-09
1.26517e-07
4.29311e-09
1.26512e-07
4.2835e-09
1.26506e-07
4.26319e-09
1.26499e-07
4.25776e-09
1.26493e-07
4.24281e-09
1.26484e-07
4.24673e-09
1.26477e-07
4.24217e-09
1.26467e-07
4.25976e-09
1.26457e-07
4.26869e-09
1.26443e-07
4.3011e-09
1.26427e-07
4.31918e-09
1.26403e-07
4.3567e-09
1.26375e-07
4.37179e-09
1.2634e-07
4.40283e-09
1.26299e-07
4.40451e-09
1.26251e-07
4.42208e-09
1.26201e-07
4.4094e-09
1.26144e-07
4.41983e-09
1.26086e-07
4.40295e-09
1.26022e-07
4.41772e-09
1.25958e-07
4.40691e-09
1.25888e-07
4.43512e-09
1.25815e-07
4.43636e-09
1.25731e-07
4.4811e-09
1.25639e-07
4.48963e-09
1.25533e-07
4.53794e-09
1.25417e-07
4.53901e-09
1.25286e-07
4.57843e-09
1.25148e-07
4.56124e-09
1.24996e-07
4.58968e-09
1.24841e-07
4.56092e-09
1.24676e-07
4.59088e-09
1.24508e-07
4.56395e-09
1.24328e-07
4.60754e-09
1.24141e-07
4.58894e-09
1.23936e-07
4.64659e-09
1.23721e-07
4.62583e-09
1.23486e-07
4.68268e-09
1.23241e-07
4.64648e-09
1.22979e-07
4.69757e-09
1.22711e-07
4.64607e-09
1.2243e-07
4.69886e-09
1.22143e-07
4.64289e-09
1.2184e-07
4.70964e-09
1.21528e-07
4.65188e-09
1.21196e-07
4.7283e-09
1.20856e-07
4.65786e-09
1.20497e-07
4.73549e-09
1.20132e-07
4.6481e-09
1.19753e-07
4.73095e-09
1.19367e-07
4.63467e-09
1.18965e-07
4.73081e-09
1.18553e-07
4.62645e-09
1.18125e-07
4.73094e-09
1.17688e-07
4.611e-09
1.17239e-07
4.71953e-09
1.16782e-07
4.59146e-09
1.16313e-07
4.70663e-09
1.15832e-07
4.58683e-09
1.15341e-07
4.69922e-09
4.62312e-09
1.2911e-07
5.34686e-09
-1.29101e-07
1.29253e-07
6.2184e-09
1.29521e-07
7.04708e-09
1.29866e-07
7.75047e-09
1.30217e-07
8.20921e-09
1.30536e-07
8.38341e-09
1.30818e-07
8.3227e-09
1.31065e-07
8.08559e-09
1.31262e-07
7.71846e-09
1.31393e-07
7.2517e-09
1.31457e-07
6.74153e-09
1.31475e-07
6.25139e-09
1.31477e-07
5.85733e-09
1.31482e-07
5.57653e-09
1.31491e-07
5.39346e-09
1.31501e-07
5.25962e-09
1.31507e-07
5.14797e-09
1.31509e-07
5.03458e-09
1.31511e-07
4.92864e-09
1.31514e-07
4.82756e-09
1.31519e-07
4.74498e-09
1.31526e-07
4.67034e-09
1.31532e-07
4.61061e-09
1.31538e-07
4.55194e-09
1.31544e-07
4.50538e-09
1.31549e-07
4.46018e-09
1.31554e-07
4.43075e-09
1.31561e-07
4.40347e-09
1.31567e-07
4.39075e-09
1.31574e-07
4.37608e-09
1.31581e-07
4.37409e-09
1.3159e-07
4.36689e-09
1.31597e-07
4.3694e-09
1.31606e-07
4.36104e-09
1.31613e-07
4.35948e-09
1.3162e-07
4.34424e-09
1.31625e-07
4.33734e-09
1.31631e-07
4.31777e-09
1.31635e-07
4.30978e-09
1.3164e-07
4.28872e-09
1.31642e-07
4.28084e-09
1.31645e-07
4.26012e-09
1.31647e-07
4.25638e-09
1.31649e-07
4.24066e-09
1.3165e-07
4.2459e-09
1.31652e-07
4.24005e-09
1.31653e-07
4.25881e-09
1.31655e-07
4.2665e-09
1.31655e-07
4.30083e-09
1.31656e-07
4.31882e-09
1.31653e-07
4.35989e-09
1.31648e-07
4.37622e-09
1.31639e-07
4.41186e-09
1.31628e-07
4.41511e-09
1.31613e-07
4.43721e-09
1.31597e-07
4.42537e-09
1.31578e-07
4.43965e-09
1.31558e-07
4.42273e-09
1.31535e-07
4.4407e-09
1.31513e-07
4.42893e-09
1.31488e-07
4.4602e-09
1.31463e-07
4.46127e-09
1.31432e-07
4.51161e-09
1.31398e-07
4.5234e-09
1.31356e-07
4.58086e-09
1.31307e-07
4.58742e-09
1.31248e-07
4.6372e-09
1.31184e-07
4.62536e-09
1.31111e-07
4.66283e-09
1.31035e-07
4.63664e-09
1.30953e-07
4.67285e-09
1.3087e-07
4.64697e-09
1.3078e-07
4.69759e-09
1.30686e-07
4.68281e-09
1.30581e-07
4.7519e-09
1.30468e-07
4.73945e-09
1.30339e-07
4.811e-09
1.30202e-07
4.78415e-09
1.3005e-07
4.84864e-09
1.29893e-07
4.80339e-09
1.29726e-07
4.86599e-09
1.29554e-07
4.81465e-09
1.29371e-07
4.89269e-09
1.29179e-07
4.84373e-09
1.28972e-07
4.93592e-09
1.28752e-07
4.87721e-09
1.28518e-07
4.96952e-09
1.28275e-07
4.89143e-09
1.28021e-07
4.98493e-09
1.27758e-07
4.8977e-09
1.27483e-07
5.00539e-09
1.27195e-07
4.91488e-09
1.26893e-07
5.03275e-09
1.26577e-07
4.92771e-09
1.26251e-07
5.04492e-09
1.25911e-07
4.93159e-09
1.25565e-07
5.05251e-09
1.25199e-07
4.95272e-09
1.24827e-07
5.07173e-09
5.01758e-09
1.3435e-07
5.33139e-09
-1.34335e-07
1.3449e-07
6.07916e-09
1.34735e-07
6.80119e-09
1.3506e-07
7.42612e-09
1.354e-07
7.8688e-09
1.35718e-07
8.06546e-09
1.35997e-07
8.04377e-09
1.36237e-07
7.84583e-09
1.3643e-07
7.52494e-09
1.36568e-07
7.11427e-09
1.36646e-07
6.6638e-09
1.36677e-07
6.21966e-09
1.36687e-07
5.84717e-09
1.36695e-07
5.56848e-09
1.36708e-07
5.38087e-09
1.36723e-07
5.24481e-09
1.36734e-07
5.13687e-09
1.36741e-07
5.02777e-09
1.36745e-07
4.92457e-09
1.3675e-07
4.82244e-09
1.36756e-07
4.73863e-09
1.36764e-07
4.66252e-09
1.36772e-07
4.60318e-09
1.36779e-07