/*--------------------------------*- C++ -*----------------------------------*\
| =========                 |                                                 |
| \\      /  F ield         | OpenFOAM: The Open Source CFD Toolbox           |
|  \\    /   O peration     | Version:  5.x                                   |
|   \\  /    A nd           | Web:      www.OpenFOAM.org                      |
|    \\/     M anipulation  |                                                 |
\*---------------------------------------------------------------------------*/
FoamFile
{
    version     2.0;
    format      ascii;
    class       volVectorField;
    location    "0.4";
    object      U;
}
// * * * * * * * * * * * * * * * * * * * * * * * * * * * * * * * * * * * * * //

dimensions      [0 1 -1 0 0 0 0];

internalField   nonuniform List<vector> 
10800
(
(0.912501 0.010301 0)
(0.819031 0.0140511 0)
(0.72581 0.0139735 0)
(0.631316 0.0130001 0)
(0.537015 0.011931 0)
(0.446347 0.0103517 0)
(0.365371 0.00799935 0)
(0.301085 0.00478143 0)
(0.256924 0.00173878 0)
(0.229122 -8.25638e-06 0)
(0.211185 -0.000544562 0)
(0.199038 -0.000570677 0)
(0.190398 -0.000446736 0)
(0.183694 -0.00027652 0)
(0.177881 -0.000111169 0)
(0.172431 1.4031e-05 0)
(0.167147 9.27631e-05 0)
(0.162004 0.000133899 0)
(0.157048 0.000149679 0)
(0.152325 0.000150636 0)
(0.147866 0.000144326 0)
(0.14368 0.000135275 0)
(0.139766 0.0001257 0)
(0.136111 0.000116312 0)
(0.132699 0.000107427 0)
(0.129509 9.92853e-05 0)
(0.126513 9.22279e-05 0)
(0.123685 8.61659e-05 0)
(0.121004 8.08372e-05 0)
(0.118452 7.59389e-05 0)
(0.116019 7.1539e-05 0)
(0.113691 6.75863e-05 0)
(0.111461 6.40078e-05 0)
(0.109321 6.05075e-05 0)
(0.107268 5.70996e-05 0)
(0.105296 5.378e-05 0)
(0.103403 5.08128e-05 0)
(0.101578 4.81563e-05 0)
(0.099819 4.58415e-05 0)
(0.0981161 4.36014e-05 0)
(0.0964726 4.14857e-05 0)
(0.0948803 3.93877e-05 0)
(0.093344 3.74514e-05 0)
(0.0918532 3.55507e-05 0)
(0.0904136 3.3895e-05 0)
(0.0890117 3.23175e-05 0)
(0.087656 3.09124e-05 0)
(0.0863314 2.95363e-05 0)
(0.0850497 2.83577e-05 0)
(0.0837938 2.70997e-05 0)
(0.0825807 2.59375e-05 0)
(0.0813901 2.47442e-05 0)
(0.0802415 2.37505e-05 0)
(0.079109 2.27206e-05 0)
(0.0780184 2.18181e-05 0)
(0.0769396 2.08391e-05 0)
(0.0759041 2.00107e-05 0)
(0.0748756 1.9092e-05 0)
(0.0738919 1.83593e-05 0)
(0.0729083 1.758e-05 0)
(0.0719706 1.69885e-05 0)
(0.0710261 1.62607e-05 0)
(0.0701315 1.57143e-05 0)
(0.0692233 1.50422e-05 0)
(0.06837 1.45224e-05 0)
(0.0674952 1.39227e-05 0)
(0.0666802 1.35086e-05 0)
(0.0658351 1.29006e-05 0)
(0.0650588 1.2454e-05 0)
(0.0642429 1.19024e-05 0)
(0.0635037 1.15536e-05 0)
(0.0627119 1.10548e-05 0)
(0.0620081 1.07225e-05 0)
(0.0612381 1.02462e-05 0)
(0.0605689 9.98929e-06 0)
(0.0598159 9.57012e-06 0)
(0.0591803 9.32189e-06 0)
(0.0584424 8.89071e-06 0)
(0.0578421 8.67281e-06 0)
(0.0571162 8.2785e-06 0)
(0.0565518 8.07515e-06 0)
(0.0558346 7.69446e-06 0)
(0.0553075 7.52938e-06 0)
(0.0545942 7.18809e-06 0)
(0.054106 7.037e-06 0)
(0.0533916 6.72101e-06 0)
(0.0529449 6.57954e-06 0)
(0.0522242 6.29007e-06 0)
(0.0518233 6.14001e-06 0)
(0.0510908 5.88055e-06 0)
(0.0507408 5.73843e-06 0)
(0.0499883 5.5267e-06 0)
(0.0496943 5.38289e-06 0)
(0.0489122 5.22453e-06 0)
(0.0486814 5.04356e-06 0)
(0.0478589 4.96998e-06 0)
(0.0476998 4.72897e-06 0)
(0.0468221 4.8066e-06 0)
(0.046744 4.44142e-06 0)
(0.0457869 4.98885e-06 0)
(0.967374 0.018979 0)
(0.960701 0.0266036 0)
(0.947795 0.0278621 0)
(0.926465 0.0274445 0)
(0.896312 0.0268897 0)
(0.858378 0.0256995 0)
(0.815325 0.0233286 0)
(0.770782 0.0193238 0)
(0.728493 0.0144017 0)
(0.69025 0.00998663 0)
(0.655663 0.00689805 0)
(0.624359 0.00492586 0)
(0.596269 0.00366894 0)
(0.57122 0.00290089 0)
(0.548775 0.00244871 0)
(0.528487 0.00217185 0)
(0.509987 0.00197871 0)
(0.492988 0.00182083 0)
(0.47728 0.00167789 0)
(0.462708 0.00154351 0)
(0.449144 0.00141686 0)
(0.436488 0.00129809 0)
(0.424658 0.00118786 0)
(0.413591 0.001087 0)
(0.403226 0.000996786 0)
(0.393496 0.000917535 0)
(0.384336 0.000849122 0)
(0.375678 0.000789759 0)
(0.367469 0.000737476 0)
(0.359663 0.000690276 0)
(0.352226 0.000647727 0)
(0.34512 0.000609056 0)
(0.338326 0.000573789 0)
(0.331815 0.000540683 0)
(0.325578 0.000509771 0)
(0.319588 0.000480785 0)
(0.313836 0.000454483 0)
(0.308289 0.000430342 0)
(0.302944 0.000408409 0)
(0.297772 0.000387566 0)
(0.292784 0.000368099 0)
(0.287949 0.000349445 0)
(0.283285 0.000332218 0)
(0.278754 0.000315758 0)
(0.27438 0.000300864 0)
(0.270117 0.000286704 0)
(0.265998 0.000273775 0)
(0.261974 0.000261289 0)
(0.258086 0.000249994 0)
(0.254276 0.000238722 0)
(0.2506 0.000228341 0)
(0.246989 0.000218092 0)
(0.243508 0.000209005 0)
(0.240072 0.000199926 0)
(0.236768 0.000191739 0)
(0.233494 0.00018338 0)
(0.230356 0.000175988 0)
(0.227232 0.000168354 0)
(0.224247 0.000161799 0)
(0.221257 0.000155051 0)
(0.218413 0.00014935 0)
(0.215544 0.000143123 0)
(0.212832 0.000137944 0)
(0.210075 0.00013222 0)
(0.207488 0.000127495 0)
(0.204831 0.000122303 0)
(0.202363 0.000118176 0)
(0.199798 0.000113186 0)
(0.197447 0.000109269 0)
(0.194966 0.000104715 0)
(0.192725 0.000101369 0)
(0.190318 9.71654e-05 0)
(0.188185 9.41069e-05 0)
(0.185843 9.01654e-05 0)
(0.183815 8.75691e-05 0)
(0.181526 8.39288e-05 0)
(0.179603 8.15446e-05 0)
(0.177359 7.79959e-05 0)
(0.175543 7.59151e-05 0)
(0.173335 7.25807e-05 0)
(0.171628 7.07289e-05 0)
(0.169445 6.75238e-05 0)
(0.167851 6.59773e-05 0)
(0.165681 6.29521e-05 0)
(0.164205 6.16291e-05 0)
(0.162032 5.87291e-05 0)
(0.160684 5.76114e-05 0)
(0.158492 5.48072e-05 0)
(0.157284 5.38309e-05 0)
(0.155056 5.11302e-05 0)
(0.154002 5.03651e-05 0)
(0.151715 4.78132e-05 0)
(0.150833 4.72308e-05 0)
(0.14846 4.48262e-05 0)
(0.147771 4.43228e-05 0)
(0.14528 4.21753e-05 0)
(0.14481 4.16941e-05 0)
(0.142159 4.00551e-05 0)
(0.141937 3.94109e-05 0)
(0.139071 3.99509e-05 0)
(0.971458 0.017523 0)
(0.972761 0.0254605 0)
(0.975666 0.0283055 0)
(0.977015 0.0290694 0)
(0.975054 0.0294763 0)
(0.969181 0.029355 0)
(0.959364 0.0279896 0)
(0.945982 0.0248669 0)
(0.929903 0.0205335 0)
(0.912208 0.0162634 0)
(0.89349 0.0130356 0)
(0.874246 0.0108751 0)
(0.854988 0.00939898 0)
(0.836083 0.00833471 0)
(0.817621 0.00752032 0)
(0.799585 0.00685681 0)
(0.781957 0.0062853 0)
(0.764714 0.00577363 0)
(0.747866 0.00530695 0)
(0.731424 0.00487896 0)
(0.715414 0.004487 0)
(0.699848 0.00412741 0)
(0.684757 0.00379647 0)
(0.67015 0.00349155 0)
(0.656057 0.0032137 0)
(0.642469 0.00296409 0)
(0.629393 0.00274331 0)
(0.6168 0.00254789 0)
(0.604688 0.0023739 0)
(0.593023 0.00221701 0)
(0.581803 0.00207571 0)
(0.570989 0.00194739 0)
(0.560582 0.00183052 0)
(0.55054 0.00172209 0)
(0.540875 0.00162204 0)
(0.531536 0.00152943 0)
(0.522537 0.00144551 0)
(0.513815 0.00136855 0)
(0.505388 0.00129825 0)
(0.497195 0.00123183 0)
(0.489272 0.00116988 0)
(0.481554 0.00111093 0)
(0.47409 0.00105638 0)
(0.466803 0.00100456 0)
(0.459754 0.000957134 0)
(0.452857 0.000912036 0)
(0.446187 0.000870586 0)
(0.439645 0.000830725 0)
(0.433326 0.000794195 0)
(0.427112 0.000758348 0)
(0.421121 0.000725357 0)
(0.415211 0.00069317 0)
(0.40952 0.000664178 0)
(0.403881 0.000635502 0)
(0.398464 0.000609424 0)
(0.393073 0.000583202 0)
(0.387912 0.000559708 0)
(0.38275 0.000535895 0)
(0.377828 0.000515005 0)
(0.372875 0.000493688 0)
(0.368177 0.000475174 0)
(0.363415 0.000455575 0)
(0.35893 0.000438823 0)
(0.354345 0.000420839 0)
(0.350062 0.000405715 0)
(0.345636 0.000389334 0)
(0.341544 0.000375851 0)
(0.337263 0.000360332 0)
(0.333358 0.000347895 0)
(0.329209 0.000333684 0)
(0.325484 0.000322805 0)
(0.321451 0.000309603 0)
(0.317903 0.000299756 0)
(0.313972 0.000287428 0)
(0.310597 0.000278883 0)
(0.306752 0.000267355 0)
(0.303551 0.000259612 0)
(0.299778 0.00024853 0)
(0.296753 0.000241774 0)
(0.293035 0.000231278 0)
(0.290191 0.000225337 0)
(0.286511 0.000215247 0)
(0.283856 0.000210248 0)
(0.280192 0.000200586 0)
(0.277735 0.000196386 0)
(0.274064 0.000187032 0)
(0.271821 0.000183594 0)
(0.268117 0.000174425 0)
(0.266108 0.000171626 0)
(0.262341 0.000162631 0)
(0.260591 0.000160625 0)
(0.256725 0.000151856 0)
(0.255263 0.000150605 0)
(0.251254 0.000142018 0)
(0.250116 0.000141363 0)
(0.245914 0.000133151 0)
(0.245143 0.000133015 0)
(0.240683 0.000125712 0)
(0.240322 0.000125674 0)
(0.235536 0.000123433 0)
(0.975817 0.0162759 0)
(0.976581 0.0233483 0)
(0.980136 0.0268999 0)
(0.984558 0.0281618 0)
(0.988372 0.0287308 0)
(0.991087 0.0288136 0)
(0.992431 0.027852 0)
(0.992011 0.0254015 0)
(0.989469 0.0218268 0)
(0.984807 0.0180998 0)
(0.978349 0.01514 0)
(0.970618 0.013159 0)
(0.962165 0.0118651 0)
(0.953338 0.0109408 0)
(0.944283 0.0102087 0)
(0.934987 0.00958477 0)
(0.92544 0.00902807 0)
(0.915596 0.00851578 0)
(0.905474 0.0080363 0)
(0.895065 0.00758354 0)
(0.884421 0.00715528 0)
(0.873549 0.00674801 0)
(0.862515 0.00635888 0)
(0.85133 0.0059855 0)
(0.840066 0.00563044 0)
(0.828728 0.00529679 0)
(0.817384 0.00498827 0)
(0.806026 0.00470269 0)
(0.794725 0.00443748 0)
(0.783466 0.00418875 0)
(0.772325 0.00395693 0)
(0.761276 0.0037399 0)
(0.750401 0.00353722 0)
(0.739661 0.00334541 0)
(0.729141 0.00316559 0)
(0.718781 0.00299682 0)
(0.708666 0.00284207 0)
(0.698709 0.00269899 0)
(0.688995 0.00256776 0)
(0.679422 0.0024437 0)
(0.670087 0.00232782 0)
(0.660875 0.00221722 0)
(0.6519 0.00211432 0)
(0.643026 0.00201605 0)
(0.634389 0.00192521 0)
(0.625835 0.00183809 0)
(0.617527 0.00175734 0)
(0.609287 0.00167926 0)
(0.601306 0.0016071 0)
(0.593381 0.00153635 0)
(0.585733 0.00147111 0)
(0.578119 0.00140759 0)
(0.570791 0.00135009 0)
(0.563465 0.00129339 0)
(0.556436 0.00124172 0)
(0.549373 0.00118989 0)
(0.542625 0.00114318 0)
(0.535805 0.00109594 0)
(0.529321 0.0010541 0)
(0.522726 0.00101135 0)
(0.516498 0.000973821 0)
(0.510118 0.000934421 0)
(0.504142 0.000900411 0)
(0.497966 0.000864195 0)
(0.492237 0.00083358 0)
(0.486246 0.000800521 0)
(0.480752 0.000773028 0)
(0.474929 0.000741851 0)
(0.469666 0.000716681 0)
(0.463995 0.000687969 0)
(0.458957 0.000665688 0)
(0.453421 0.000638879 0)
(0.44861 0.000618741 0)
(0.443194 0.000593682 0)
(0.438607 0.00057604 0)
(0.433292 0.000552485 0)
(0.428934 0.000536594 0)
(0.423701 0.000514033 0)
(0.419576 0.000500144 0)
(0.414404 0.000478678 0)
(0.410521 0.000466512 0)
(0.405386 0.000445833 0)
(0.401757 0.000435558 0)
(0.396633 0.000415625 0)
(0.393274 0.000407056 0)
(0.388129 0.000387658 0)
(0.385061 0.000380736 0)
(0.379861 0.000361602 0)
(0.377113 0.000356145 0)
(0.371818 0.000337213 0)
(0.369425 0.000333469 0)
(0.363987 0.00031478 0)
(0.36199 0.00031272 0)
(0.356353 0.00029416 0)
(0.3548 0.000293574 0)
(0.348898 0.000275411 0)
(0.347846 0.000276174 0)
(0.341602 0.000259348 0)
(0.341104 0.000260548 0)
(0.334441 0.000252155 0)
(0.979732 0.0157537 0)
(0.980147 0.0218758 0)
(0.983067 0.0257633 0)
(0.98733 0.0273498 0)
(0.991676 0.0278694 0)
(0.995625 0.0277952 0)
(0.999067 0.0268615 0)
(1.00172 0.0247583 0)
(1.00319 0.0217073 0)
(1.00314 0.0184266 0)
(1.00166 0.0156978 0)
(0.999097 0.0138276 0)
(0.995985 0.0126354 0)
(0.992619 0.0118195 0)
(0.989169 0.0111844 0)
(0.98558 0.0106403 0)
(0.981842 0.0101529 0)
(0.977839 0.00970618 0)
(0.973581 0.00929119 0)
(0.968983 0.0089006 0)
(0.964097 0.0085309 0)
(0.958854 0.0081765 0)
(0.953326 0.007834 0)
(0.947444 0.00749987 0)
(0.941293 0.00717689 0)
(0.934801 0.00686766 0)
(0.928065 0.00657696 0)
(0.921005 0.00630204 0)
(0.913734 0.00604078 0)
(0.906166 0.00578847 0)
(0.898433 0.00554663 0)
(0.890445 0.00531255 0)
(0.882356 0.005087 0)
(0.874067 0.004866 0)
(0.865751 0.00465259 0)
(0.857291 0.00444605 0)
(0.848871 0.00425211 0)
(0.840347 0.00406865 0)
(0.83191 0.00389799 0)
(0.823382 0.00373438 0)
(0.814972 0.00358052 0)
(0.806472 0.00343214 0)
(0.798108 0.00329339 0)
(0.789641 0.00315944 0)
(0.781328 0.00303469 0)
(0.772896 0.00291313 0)
(0.764643 0.00279913 0)
(0.756264 0.00268683 0)
(0.748104 0.00258155 0)
(0.739821 0.00247654 0)
(0.731807 0.00237875 0)
(0.723671 0.00228239 0)
(0.715848 0.00219479 0)
(0.707883 0.00210794 0)
(0.700267 0.00202898 0)
(0.69247 0.00194947 0)
(0.685054 0.00187786 0)
(0.677411 0.00180495 0)
(0.670184 0.00174019 0)
(0.662679 0.00167326 0)
(0.655641 0.00161414 0)
(0.648279 0.0015516 0)
(0.641447 0.0014974 0)
(0.634237 0.00143929 0)
(0.627629 0.00139026 0)
(0.620567 0.00133702 0)
(0.614183 0.00129279 0)
(0.60726 0.00124259 0)
(0.6011 0.0012022 0)
(0.594296 0.00115565 0)
(0.588357 0.00111954 0)
(0.581657 0.00107571 0)
(0.575948 0.00104289 0)
(0.569343 0.00100168 0)
(0.563874 0.000972708 0)
(0.55735 0.000933738 0)
(0.552132 0.000907684 0)
(0.54567 0.000870352 0)
(0.540714 0.000847533 0)
(0.534289 0.000811823 0)
(0.529607 0.000791842 0)
(0.523195 0.000757308 0)
(0.518808 0.000740378 0)
(0.51238 0.000706902 0)
(0.508311 0.000692831 0)
(0.501832 0.000660109 0)
(0.498109 0.000648822 0)
(0.491538 0.000616395 0)
(0.488199 0.000607649 0)
(0.48149 0.000575388 0)
(0.47858 0.000569529 0)
(0.471679 0.000537463 0)
(0.469248 0.000534485 0)
(0.46209 0.000502421 0)
(0.460198 0.000502051 0)
(0.452708 0.000470351 0)
(0.451421 0.000472343 0)
(0.443514 0.00044251 0)
(0.442894 0.000445239 0)
(0.43449 0.000427376 0)
(0.983028 0.0155241 0)
(0.983303 0.0208079 0)
(0.985726 0.0247462 0)
(0.989557 0.0265904 0)
(0.993748 0.0271114 0)
(0.997687 0.0268943 0)
(1.00127 0.0259362 0)
(1.00428 0.0240676 0)
(1.00649 0.0214076 0)
(1.00757 0.018475 0)
(1.00754 0.0159166 0)
(1.00663 0.0140824 0)
(1.00534 0.0129001 0)
(1.00392 0.012113 0)
(1.00261 0.0115166 0)
(1.00133 0.0110055 0)
(1.00011 0.0105452 0)
(0.998794 0.0101252 0)
(0.997428 0.00974141 0)
(0.995857 0.00938646 0)
(0.994187 0.00905663 0)
(0.992266 0.00874424 0)
(0.990224 0.00844557 0)
(0.987895 0.00815563 0)
(0.985426 0.0078777 0)
(0.982637 0.00761298 0)
(0.979692 0.00736673 0)
(0.976398 0.00713453 0)
(0.97294 0.00691466 0)
(0.969109 0.00670038 0)
(0.965116 0.00649366 0)
(0.96074 0.00628963 0)
(0.956227 0.0060896 0)
(0.951343 0.00588766 0)
(0.946368 0.00568818 0)
(0.941048 0.00548913 0)
(0.935696 0.00529852 0)
(0.930029 0.0051135 0)
(0.924386 0.00493916 0)
(0.918443 0.00476855 0)
(0.912566 0.00460707 0)
(0.906386 0.00444907 0)
(0.900303 0.0043014 0)
(0.893899 0.00415724 0)
(0.887612 0.00402353 0)
(0.880973 0.00389136 0)
(0.874472 0.00376734 0)
(0.867592 0.00364229 0)
(0.860887 0.00352385 0)
(0.853794 0.00340175 0)
(0.846944 0.00328628 0)
(0.839712 0.0031688 0)
(0.832805 0.00306095 0)
(0.825514 0.0029516 0)
(0.818622 0.0028524 0)
(0.811316 0.00275118 0)
(0.804468 0.00266088 0)
(0.79715 0.00256779 0)
(0.790339 0.00248591 0)
(0.78299 0.00239962 0)
(0.77621 0.00232358 0)
(0.768831 0.00224108 0)
(0.762108 0.00216963 0)
(0.754725 0.00209094 0)
(0.748109 0.00202485 0)
(0.740756 0.00195167 0)
(0.73428 0.00189154 0)
(0.726971 0.00182222 0)
(0.720654 0.00176741 0)
(0.713372 0.00170285 0)
(0.707212 0.00165356 0)
(0.69994 0.00159209 0)
(0.69395 0.00154676 0)
(0.686684 0.0014882 0)
(0.680889 0.00144767 0)
(0.673629 0.00139168 0)
(0.668059 0.0013551 0)
(0.660798 0.00130125 0)
(0.655472 0.00126918 0)
(0.648188 0.00121734 0)
(0.643127 0.00118922 0)
(0.635794 0.00113876 0)
(0.631025 0.00111482 0)
(0.623617 0.00106555 0)
(0.619175 0.00104567 0)
(0.61166 0.000997259 0)
(0.607581 0.000981407 0)
(0.599917 0.000933205 0)
(0.596247 0.000921054 0)
(0.588387 0.000872849 0)
(0.585179 0.000864844 0)
(0.577069 0.000816685 0)
(0.574383 0.000812875 0)
(0.565955 0.000764523 0)
(0.563858 0.000764555 0)
(0.555036 0.000716495 0)
(0.553602 0.00071993 0)
(0.544299 0.000674343 0)
(0.543597 0.000678789 0)
(0.533731 0.000648536 0)
(0.985697 0.0154081 0)
(0.985908 0.0199948 0)
(0.987969 0.0237413 0)
(0.991376 0.0257352 0)
(0.995338 0.0263173 0)
(0.99914 0.0260379 0)
(1.00264 0.0250829 0)
(1.00558 0.0234024 0)
(1.00787 0.0210689 0)
(1.00917 0.0184423 0)
(1.00958 0.0160468 0)
(1.00917 0.014237 0)
(1.00845 0.0130332 0)
(1.00759 0.012237 0)
(1.00693 0.0116481 0)
(1.00632 0.0111448 0)
(1.00592 0.0106865 0)
(1.00548 0.0102654 0)
(1.00514 0.00988364 0)
(1.00466 0.00953479 0)
(1.00425 0.0092164 0)
(1.00366 0.00891915 0)
(1.00312 0.00863976 0)
(1.00237 0.00837142 0)
(1.00166 0.00811866 0)
(1.0007 0.00788104 0)
(0.999765 0.00766484 0)
(0.99853 0.00746382 0)
(0.997315 0.00727757 0)
(0.995752 0.0070971 0)
(0.994198 0.00692538 0)
(0.992256 0.00675489 0)
(0.990327 0.00658797 0)
(0.987985 0.00641593 0)
(0.985676 0.00624454 0)
(0.982943 0.00606906 0)
(0.980284 0.0058996 0)
(0.977202 0.00573116 0)
(0.974241 0.00557185 0)
(0.97085 0.00541263 0)
(0.967621 0.00526213 0)
(0.963945 0.0051125 0)
(0.960464 0.00497415 0)
(0.956502 0.00483765 0)
(0.952758 0.0047136 0)
(0.948483 0.00458984 0)
(0.944442 0.00447629 0)
(0.939809 0.00435963 0)
(0.935429 0.00425041 0)
(0.930407 0.00413331 0)
(0.925692 0.0040219 0)
(0.920312 0.00390287 0)
(0.915331 0.00379259 0)
(0.909678 0.00367575 0)
(0.904529 0.00356982 0)
(0.898683 0.00345838 0)
(0.893429 0.00336058 0)
(0.88742 0.00325761 0)
(0.88207 0.00316957 0)
(0.875875 0.00307452 0)
(0.870406 0.00299292 0)
(0.863995 0.00290073 0)
(0.858403 0.00282216 0)
(0.851783 0.002731 0)
(0.846119 0.00265528 0)
(0.839347 0.00256751 0)
(0.833684 0.00249671 0)
(0.826811 0.00241211 0)
(0.821201 0.00234738 0)
(0.814232 0.00226836 0)
(0.808683 0.00221044 0)
(0.801594 0.00213478 0)
(0.796104 0.00208106 0)
(0.78888 0.00200766 0)
(0.783478 0.00195861 0)
(0.776131 0.00188696 0)
(0.77087 0.00184201 0)
(0.763415 0.00177235 0)
(0.758337 0.00173289 0)
(0.750762 0.0016654 0)
(0.745892 0.00163085 0)
(0.738171 0.00156462 0)
(0.733539 0.00153503 0)
(0.72565 0.00146963 0)
(0.721302 0.001445 0)
(0.713223 0.00138025 0)
(0.709208 0.00136077 0)
(0.700902 0.00129597 0)
(0.697271 0.00128124 0)
(0.688693 0.00121604 0)
(0.685502 0.00120653 0)
(0.676606 0.00114102 0)
(0.673923 0.00113688 0)
(0.664648 0.00107089 0)
(0.662547 0.00107174 0)
(0.652819 0.00100592 0)
(0.651376 0.00101107 0)
(0.641116 0.00094831 0)
(0.640402 0.000954655 0)
(0.629536 0.000910163 0)
(0.987781 0.0153234 0)
(0.987945 0.0193278 0)
(0.989734 0.0227575 0)
(0.992746 0.0247881 0)
(0.996459 0.0254535 0)
(1.0001 0.0251844 0)
(1.00351 0.0242616 0)
(1.00636 0.0227334 0)
(1.00865 0.0206702 0)
(1.01001 0.0183215 0)
(1.01064 0.0161002 0)
(1.01045 0.014335 0)
(1.01001 0.0131125 0)
(1.00933 0.0122963 0)
(1.00889 0.011705 0)
(1.00845 0.0112052 0)
(1.0083 0.0107463 0)
(1.00807 0.0103181 0)
(1.00805 0.00992924 0)
(1.00786 0.00957501 0)
(1.00785 0.0092555 0)
(1.00764 0.00895972 0)
(1.00761 0.00868562 0)
(1.00735 0.00842378 0)
(1.00729 0.00818037 0)
(1.00696 0.00795305 0)
(1.00683 0.00775014 0)
(1.00639 0.00756327 0)
(1.00616 0.00739443 0)
(1.00557 0.00723217 0)
(1.00518 0.00708144 0)
(1.0044 0.00693174 0)
(1.00383 0.0067875 0)
(1.00281 0.0066367 0)
(1.00203 0.00648726 0)
(1.00077 0.00633086 0)
(0.999778 0.00618025 0)
(0.998286 0.00602722 0)
(0.997109 0.00588345 0)
(0.995404 0.00573677 0)
(0.994055 0.00559965 0)
(0.992142 0.00546091 0)
(0.990627 0.00533518 0)
(0.988501 0.00520954 0)
(0.986808 0.00509921 0)
(0.984441 0.00498829 0)
(0.98253 0.0048914 0)
(0.979862 0.00479059 0)
(0.977665 0.00470062 0)
(0.974622 0.0046001 0)
(0.972087 0.00450652 0)
(0.96864 0.00439992 0)
(0.965782 0.00430165 0)
(0.961978 0.00419041 0)
(0.958876 0.00409022 0)
(0.95479 0.00397921 0)
(0.951519 0.00388403 0)
(0.947199 0.00378004 0)
(0.943785 0.00369517 0)
(0.939217 0.00360059 0)
(0.935632 0.00352432 0)
(0.930758 0.00343365 0)
(0.926951 0.00336039 0)
(0.921726 0.00326839 0)
(0.917706 0.00319445 0)
(0.912164 0.00310148 0)
(0.908006 0.00302876 0)
(0.902217 0.00293561 0)
(0.898007 0.00286765 0)
(0.892012 0.00277978 0)
(0.88778 0.00271982 0)
(0.881558 0.00263614 0)
(0.877288 0.00258118 0)
(0.870795 0.00249911 0)
(0.866489 0.00244803 0)
(0.859722 0.00236558 0)
(0.855435 0.00231718 0)
(0.848429 0.00223512 0)
(0.844231 0.00219219 0)
(0.836999 0.00211198 0)
(0.832928 0.00207479 0)
(0.825444 0.00199562 0)
(0.821519 0.00196388 0)
(0.813755 0.0018846 0)
(0.810023 0.00185794 0)
(0.801968 0.00177844 0)
(0.798493 0.00175756 0)
(0.790128 0.00167753 0)
(0.786962 0.00166223 0)
(0.778246 0.00158125 0)
(0.775442 0.0015718 0)
(0.766332 0.00148981 0)
(0.76396 0.00148642 0)
(0.754416 0.00140349 0)
(0.752553 0.00140593 0)
(0.742514 0.00132302 0)
(0.741229 0.00133029 0)
(0.730627 0.00125099 0)
(0.729988 0.00125933 0)
(0.718767 0.00120069 0)
(0.989395 0.0152349 0)
(0.989503 0.0187475 0)
(0.991078 0.0218224 0)
(0.993721 0.0237994 0)
(0.997172 0.0245373 0)
(1.00061 0.0243289 0)
(1.00395 0.0234669 0)
(1.00669 0.0220708 0)
(1.00898 0.0202313 0)
(1.01036 0.0181315 0)
(1.01116 0.0160895 0)
(1.01113 0.0143932 0)
(1.0109 0.0131655 0)
(1.01033 0.0123279 0)
(1.01003 0.0117297 0)
(1.00963 0.0112339 0)
(1.00959 0.0107784 0)
(1.00939 0.0103456 0)
(1.0095 0.00994931 0)
(1.00935 0.00958707 0)
(1.00949 0.00926296 0)
(1.00933 0.00896403 0)
(1.00948 0.00869041 0)
(1.00931 0.00842919 0)
(1.00947 0.00818853 0)
(1.00927 0.00796343 0)
(1.00942 0.00776524 0)
(1.00918 0.00758274 0)
(1.00931 0.00742115 0)
(1.00901 0.0072661 0)
(1.0091 0.00712555 0)
(1.00872 0.00698545 0)
(1.00874 0.00685336 0)
(1.00823 0.00671336 0)
(1.00817 0.00657653 0)
(1.00753 0.00643031 0)
(1.00738 0.00629098 0)
(1.00662 0.00614626 0)
(1.00639 0.00601219 0)
(1.00551 0.00587254 0)
(1.00521 0.00574429 0)
(1.00421 0.00561182 0)
(1.00385 0.0054947 0)
(1.00273 0.00537538 0)
(1.00229 0.00527464 0)
(1.00103 0.00517197 0)
(1.00051 0.00508796 0)
(0.99906 0.00499949 0)
(0.998375 0.00492701 0)
(0.996667 0.00484258 0)
(0.995753 0.00476871 0)
(0.993719 0.0046777 0)
(0.992554 0.00459638 0)
(0.990199 0.00449589 0)
(0.988825 0.00440726 0)
(0.9862 0.00430175 0)
(0.98468 0.00421427 0)
(0.981832 0.00411325 0)
(0.980201 0.00403557 0)
(0.977129 0.00394495 0)
(0.97537 0.00387879 0)
(0.972016 0.00379524 0)
(0.970058 0.00373497 0)
(0.966334 0.00365057 0)
(0.96413 0.00358797 0)
(0.960018 0.00349872 0)
(0.957608 0.00343285 0)
(0.953162 0.00333833 0)
(0.950634 0.00327365 0)
(0.945918 0.00318213 0)
(0.943333 0.00312562 0)
(0.938348 0.00303939 0)
(0.935688 0.00298989 0)
(0.930367 0.00290607 0)
(0.927594 0.00286055 0)
(0.921894 0.00277431 0)
(0.919032 0.0027291 0)
(0.912981 0.00264009 0)
(0.910109 0.00259863 0)
(0.903747 0.00251005 0)
(0.900926 0.00247472 0)
(0.89424 0.00238727 0)
(0.891477 0.00235813 0)
(0.884421 0.00226967 0)
(0.881738 0.00224507 0)
(0.8743 0.00215465 0)
(0.871765 0.00213542 0)
(0.863949 0.00204356 0)
(0.861623 0.00203042 0)
(0.853398 0.00193722 0)
(0.851317 0.00193025 0)
(0.842641 0.00183511 0)
(0.840861 0.00183405 0)
(0.831712 0.00173716 0)
(0.830312 0.00174213 0)
(0.820655 0.00164524 0)
(0.819691 0.0016551 0)
(0.809472 0.00156245 0)
(0.808993 0.00157268 0)
(0.798179 0.00150243 0)
(0.990684 0.0151404 0)
(0.990715 0.0182312 0)
(0.992111 0.0209536 0)
(0.994413 0.022813 0)
(0.997601 0.0235984 0)
(1.00081 0.0234766 0)
(1.00405 0.0227018 0)
(1.00668 0.0214305 0)
(1.00897 0.0197786 0)
(1.01034 0.0178963 0)
(1.01127 0.0160293 0)
(1.01135 0.0144205 0)
(1.01131 0.0132049 0)
(1.01083 0.0123491 0)
(1.01065 0.0117403 0)
(1.01026 0.0112463 0)
(1.0103 0.0107971 0)
(1.0101 0.0103628 0)
(1.01029 0.0099608 0)
(1.01013 0.00959049 0)
(1.01036 0.00926161 0)
(1.01018 0.00895868 0)
(1.01042 0.00868489 0)
(1.01022 0.00842325 0)
(1.01047 0.00818419 0)
(1.01026 0.00795894 0)
(1.01053 0.00776263 0)
(1.01029 0.00758052 0)
(1.01057 0.00742174 0)
(1.01031 0.00726841 0)
(1.01059 0.00713248 0)
(1.01029 0.00699563 0)
(1.01057 0.00686952 0)
(1.0102 0.00673375 0)
(1.01046 0.00660356 0)
(1.01002 0.00646143 0)
(1.01025 0.00632807 0)
(1.00974 0.00618631 0)
(1.00996 0.00605734 0)
(1.00938 0.00591998 0)
(1.0096 0.0057965 0)
(1.00895 0.00566586 0)
(1.00916 0.00555323 0)
(1.00845 0.00543549 0)
(1.00866 0.00533954 0)
(1.00787 0.00523941 0)
(1.00807 0.00516248 0)
(1.00719 0.00507979 0)
(1.00735 0.00501871 0)
(1.00631 0.00494438 0)
(1.00636 0.00488558 0)
(1.00511 0.00480635 0)
(1.00502 0.00473978 0)
(1.00353 0.00464864 0)
(1.00332 0.00457132 0)
(1.00162 0.00447117 0)
(1.00133 0.00439172 0)
(0.999462 0.00429347 0)
(0.999118 0.00422268 0)
(0.997087 0.0041349 0)
(0.996696 0.00407794 0)
(0.994463 0.00400089 0)
(0.993963 0.00395443 0)
(0.991432 0.00387975 0)
(0.990747 0.00383217 0)
(0.98786 0.00375107 0)
(0.986988 0.00369714 0)
(0.983765 0.00360611 0)
(0.982767 0.00354894 0)
(0.979268 0.00345707 0)
(0.97822 0.00340665 0)
(0.974471 0.00332057 0)
(0.973371 0.00327966 0)
(0.969309 0.00319842 0)
(0.968095 0.00316352 0)
(0.96364 0.00307959 0)
(0.962289 0.00304337 0)
(0.957434 0.00295324 0)
(0.956004 0.00291768 0)
(0.950801 0.00282518 0)
(0.949369 0.00279505 0)
(0.94383 0.00270381 0)
(0.942404 0.00268125 0)
(0.93647 0.0025892 0)
(0.935032 0.00257089 0)
(0.928669 0.0024749 0)
(0.927267 0.00246037 0)
(0.920496 0.00236125 0)
(0.9192 0.00235259 0)
(0.912015 0.00225215 0)
(0.910845 0.00225007 0)
(0.903195 0.00214719 0)
(0.902172 0.00215015 0)
(0.894043 0.0020443 0)
(0.893238 0.00205246 0)
(0.88463 0.0019467 0)
(0.884086 0.00195935 0)
(0.874961 0.00185885 0)
(0.874694 0.00187065 0)
(0.865036 0.00179361 0)
(0.991767 0.0150432 0)
(0.991701 0.0177577 0)
(0.992943 0.0201425 0)
(0.994935 0.0218461 0)
(0.99787 0.022652 0)
(1.00083 0.0226234 0)
(1.00396 0.0219561 0)
(1.00646 0.02081 0)
(1.00873 0.0193219 0)
(1.01008 0.017629 0)
(1.01111 0.0159281 0)
(1.01127 0.0144184 0)
(1.0114 0.0132322 0)
(1.01098 0.0123649 0)
(1.01092 0.0117425 0)
(1.01053 0.0112459 0)
(1.01064 0.0108036 0)
(1.01042 0.0103716 0)
(1.01068 0.00996755 0)
(1.0105 0.00959113 0)
(1.01079 0.00925897 0)
(1.01059 0.00895259 0)
(1.01089 0.00867883 0)
(1.01066 0.00841661 0)
(1.01097 0.00817919 0)
(1.01072 0.00795304 0)
(1.01105 0.00775754 0)
(1.01077 0.00757407 0)
(1.01113 0.00741618 0)
(1.01084 0.00726187 0)
(1.01123 0.00712784 0)
(1.01091 0.00699104 0)
(1.01131 0.00686784 0)
(1.01096 0.00673302 0)
(1.01138 0.00660665 0)
(1.01097 0.00646571 0)
(1.0114 0.00633594 0)
(1.01095 0.0061947 0)
(1.01138 0.00606882 0)
(1.01088 0.00593153 0)
(1.01134 0.00581093 0)
(1.01079 0.00568 0)
(1.01126 0.00556995 0)
(1.01066 0.00545142 0)
(1.01116 0.00535777 0)
(1.01052 0.00525687 0)
(1.01105 0.0051832 0)
(1.01035 0.00510152 0)
(1.0109 0.00504659 0)
(1.01012 0.00497657 0)
(1.01065 0.00492721 0)
(1.00974 0.0048544 0)
(1.01022 0.00479809 0)
(1.00915 0.00471254 0)
(1.00958 0.00464367 0)
(1.00837 0.00454656 0)
(1.00878 0.00447332 0)
(1.00745 0.00437611 0)
(1.00787 0.00431026 0)
(1.00643 0.00422285 0)
(1.00686 0.00417192 0)
(1.00529 0.00409792 0)
(1.0057 0.00406188 0)
(1.00393 0.00399451 0)
(1.00425 0.00396036 0)
(1.00222 0.00388717 0)
(1.00242 0.00384561 0)
(1.00011 0.00375961 0)
(1.00022 0.00371112 0)
(0.997666 0.0036202 0)
(0.997753 0.00357589 0)
(0.995007 0.00349021 0)
(0.995088 0.00345734 0)
(0.992103 0.0033795 0)
(0.99212 0.00335603 0)
(0.988809 0.00327737 0)
(0.988702 0.00325271 0)
(0.985023 0.00316572 0)
(0.984815 0.0031386 0)
(0.980807 0.00304568 0)
(0.980572 0.00302192 0)
(0.976272 0.00292992 0)
(0.976029 0.00291531 0)
(0.971385 0.00282412 0)
(0.971086 0.00281468 0)
(0.966033 0.00271852 0)
(0.965686 0.00271072 0)
(0.960246 0.00260912 0)
(0.959918 0.00260579 0)
(0.954114 0.00250297 0)
(0.953821 0.00250687 0)
(0.947605 0.00240234 0)
(0.947322 0.00241045 0)
(0.940667 0.00230172 0)
(0.940443 0.00231302 0)
(0.933377 0.00220436 0)
(0.933249 0.00221926 0)
(0.925758 0.00211757 0)
(0.925704 0.00213045 0)
(0.917769 0.00205264 0)
(0.992718 0.0149623 0)
(0.992541 0.0173179 0)
(0.993645 0.0193748 0)
(0.995366 0.0208999 0)
(0.998067 0.0216961 0)
(1.00077 0.021751 0)
(1.00377 0.0212005 0)
(1.00613 0.0201822 0)
(1.00838 0.0188449 0)
(1.00968 0.0173194 0)
(1.0108 0.0157742 0)
(1.01101 0.0143678 0)
(1.01128 0.0132258 0)
(1.01092 0.0123575 0)
(1.01096 0.0117231 0)
(1.01057 0.0112218 0)
(1.01075 0.0107882 0)
(1.0105 0.0103644 0)
(1.01081 0.00996422 0)
(1.01062 0.009585 0)
(1.01097 0.00925116 0)
(1.01074 0.00894196 0)
(1.01109 0.00866838 0)
(1.01082 0.0084055 0)
(1.01119 0.00817022 0)
(1.0109 0.00794364 0)
(1.01128 0.00774915 0)
(1.01097 0.00756414 0)
(1.01138 0.00740686 0)
(1.01105 0.00725069 0)
(1.0115 0.00711743 0)
(1.01115 0.00697935 0)
(1.01163 0.00685778 0)
(1.01127 0.00672253 0)
(1.01177 0.00659881 0)
(1.01137 0.00645804 0)
(1.01189 0.00633108 0)
(1.01144 0.00618968 0)
(1.01199 0.00606633 0)
(1.0115 0.00592861 0)
(1.01206 0.00581046 0)
(1.01153 0.00567885 0)
(1.01212 0.00557101 0)
(1.01154 0.00545129 0)
(1.01216 0.00535932 0)
(1.01154 0.0052567 0)
(1.01221 0.0051847 0)
(1.01155 0.0051018 0)
(1.01225 0.00504992 0)
(1.01154 0.00498061 0)
(1.01227 0.00493653 0)
(1.01148 0.00486612 0)
(1.01221 0.00481608 0)
(1.01133 0.00473292 0)
(1.01206 0.0046696 0)
(1.01108 0.00457353 0)
(1.01183 0.00450454 0)
(1.01076 0.00440708 0)
(1.01154 0.00434448 0)
(1.0104 0.00425586 0)
(1.01121 0.00420819 0)
(1.01 0.00413425 0)
(1.01085 0.00410444 0)
(1.00951 0.00404077 0)
(1.01034 0.00401606 0)
(1.00883 0.00394822 0)
(1.00962 0.0039164 0)
(1.00791 0.00383468 0)
(1.00865 0.0037937 0)
(1.00677 0.00370385 0)
(1.00751 0.00366423 0)
(1.00548 0.00357834 0)
(1.00625 0.00355097 0)
(1.00408 0.00347539 0)
(1.00483 0.00346084 0)
(1.00243 0.00338747 0)
(1.00311 0.00337335 0)
(1.00043 0.00329129 0)
(1.00102 0.00327259 0)
(0.998077 0.0031815 0)
(0.998637 0.00316327 0)
(0.995473 0.003072 0)
(0.996031 0.00306396 0)
(0.992621 0.00297595 0)
(0.993122 0.00297521 0)
(0.989385 0.00288288 0)
(0.989795 0.00288212 0)
(0.985738 0.00278208 0)
(0.986107 0.00278326 0)
(0.981776 0.00268179 0)
(0.982124 0.00269068 0)
(0.977487 0.00258951 0)
(0.977762 0.00260269 0)
(0.972768 0.00249682 0)
(0.972978 0.00251035 0)
(0.967671 0.00240423 0)
(0.967852 0.0024199 0)
(0.96224 0.00232299 0)
(0.962351 0.00233631 0)
(0.956396 0.00226345 0)
(0.993567 0.0150056 0)
(0.993276 0.0170039 0)
(0.994257 0.0187363 0)
(0.995753 0.0200642 0)
(0.998241 0.0208153 0)
(1.00071 0.0209259 0)
(1.00356 0.0204828 0)
(1.00579 0.0195873 0)
(1.00799 0.018387 0)
(1.00925 0.0170068 0)
(1.01042 0.0155997 0)
(1.01067 0.014291 0)
(1.01105 0.0132004 0)
(1.01075 0.0123409 0)
(1.01087 0.0116985 0)
(1.0105 0.0111904 0)
(1.01072 0.0107636 0)
(1.01046 0.0103499 0)
(1.01081 0.00995638 0)
(1.0106 0.00957522 0)
(1.01099 0.00923909 0)
(1.01075 0.00892671 0)
(1.01114 0.0086531 0)
(1.01086 0.00838947 0)
(1.01124 0.00815659 0)
(1.01094 0.00793037 0)
(1.01135 0.00773737 0)
(1.01102 0.00755102 0)
(1.01146 0.00739426 0)
(1.01112 0.00723608 0)
(1.01159 0.00710297 0)