0 	0 	0 	0
2.5125628e-05 	0.017611068 	1.3228797e-05 	0
5.0251256e-05 	0.035222135 	2.6457595e-05 	0
7.5376884e-05 	0.052833203 	3.9686392e-05 	0
0.00010050251 	0.070276846 	6.6707736e-05 	0
0.00012562814 	0.087621787 	0.00010186033 	0
0.00015075377 	0.10496673 	0.00013701292 	0
0.0001758794 	0.12227336 	0.00017544278 	0
0.00020100503 	0.13930953 	0.00023700997 	0
0.00022613065 	0.15634571 	0.00029857717 	0
0.00025125628 	0.17338189 	0.00036014436 	0
0.00027638191 	0.19009266 	0.00043270673 	0
0.00030150754 	0.20645026 	0.00051720286 	0
0.00032663317 	0.22280786 	0.000601699 	0
0.00035175879 	0.23916546 	0.00068619514 	0
0.00037688442 	0.25469694 	0.00078339274 	0
0.00040201005 	0.26985718 	0.00088629819 	0
0.00042713568 	0.28501742 	0.00098920364 	0
0.00045226131 	0.30017766 	0.0010921091 	0
0.00047738693 	0.31399283 	0.0012028285 	0
0.00050251256 	0.32735855 	0.0013161588 	0
0.00052763819 	0.34072426 	0.0014294891 	0
0.00055276382 	0.35408998 	0.0015428195 	0
0.00057788945 	0.36593608 	0.0016556604 	0
0.00060301508 	0.37697222 	0.0017682404 	0
0.0006281407 	0.38800836 	0.0018808205 	0
0.00065326633 	0.39904451 	0.0019934005 	0
0.00067839196 	0.40905018 	0.0021010717 	0
0.00070351759 	0.41745775 	0.0022011299 	0
0.00072864322 	0.42586532 	0.0023011882 	0
0.00075376884 	0.43427289 	0.0024012464 	0
0.00077889447 	0.44268046 	0.0025013047 	0
0.0008040201 	0.44861182 	0.002580975 	0
0.00082914573 	0.45444586 	0.002659844 	0
0.00085427136 	0.4602799 	0.0027387131 	0
0.00087939698 	0.46611394 	0.0028175821 	0
0.00090452261 	0.47117067 	0.0028878548 	0
0.00092964824 	0.47482153 	0.0029425795 	0
0.00095477387 	0.47847239 	0.0029973043 	0
0.0009798995 	0.48212324 	0.003052029 	0
0.0010050251 	0.4857741 	0.0031067538 	0
0.0010301508 	0.48851529 	0.00314928 	0
0.0010552764 	0.49056063 	0.0031824749 	0
0.001080402 	0.49260596 	0.0032156698 	0
0.0011055276 	0.49465129 	0.0032488647 	0
0.0011306533 	0.49669663 	0.0032820596 	0
0.0011557789 	0.49814066 	0.0033060027 	0
0.0011809045 	0.49916078 	0.0033234234 	0
0.0012060302 	0.5001809 	0.003340844 	0
0.0012311558 	0.50120101 	0.0033582647 	0
0.0012562814 	0.50222113 	0.0033756853 	0
0.001281407 	0.50300884 	0.0033891425 	0
0.0013065327 	0.50345966 	0.0033968543 	0
0.0013316583 	0.50391048 	0.0034045661 	0
0.0013567839 	0.5043613 	0.003412278 	0
0.0013819095 	0.50481212 	0.0034199898 	0
0.0014070352 	0.50525637 	0.0034275804 	0
0.0014321608 	0.50543207 	0.0034302138 	0
0.0014572864 	0.50560778 	0.0034328472 	0
0.0014824121 	0.50578348 	0.0034354807 	0
0.0015075377 	0.50595919 	0.0034381141 	0
0.0015326633 	0.5061349 	0.0034407475 	0
0.0015577889 	0.5062614 	0.0034424143 	0
0.0015829146 	0.50632139 	0.0034427745 	0
0.0016080402 	0.50638139 	0.0034431347 	0
0.0016331658 	0.50644139 	0.0034434949 	0
0.0016582915 	0.50650138 	0.0034438551 	0
0.0016834171 	0.50656138 	0.0034442153 	0
0.0017085427 	0.5065958 	0.0034440463 	0
0.0017336683 	0.50661343 	0.0034435298 	0
0.001758794 	0.50663107 	0.0034430134 	0
0.0017839196 	0.5066487 	0.003442497 	0
0.0018090452 	0.50666633 	0.0034419806 	0
0.0018341709 	0.50668396 	0.0034414642 	0
0.0018592965 	0.50669414 	0.0034407849 	0
0.0018844221 	0.50669822 	0.0034399727 	0
0.0019095477 	0.5067023 	0.0034391605 	0
0.0019346734 	0.50670638 	0.0034383483 	0
0.001959799 	0.50671046 	0.0034375361 	0
0.0019849246 	0.50671454 	0.0034367239 	0
0.0020100503 	0.50671763 	0.003435888 	0
0.0020351759 	0.50671783 	0.0034349832 	0
0.0020603015 	0.50671803 	0.0034340784 	0
0.0020854271 	0.50671823 	0.0034331736 	0
0.0021105528 	0.50671843 	0.0034322688 	0
0.0021356784 	0.50671864 	0.003431364 	0
0.002160804 	0.50671884 	0.0034304593 	0
0.0021859296 	0.50671825 	0.003429531 	0
0.0022110553 	0.50671734 	0.0034285932 	0
0.0022361809 	0.50671643 	0.0034276555 	0
0.0022613065 	0.50671551 	0.0034267177 	0
0.0022864322 	0.5067146 	0.0034257799 	0
0.0023115578 	0.50671369 	0.0034248422 	0
0.0023366834 	0.50671278 	0.0034239044 	0
0.002361809 	0.50671147 	0.0034229498 	0
0.0023869347 	0.50671012 	0.0034219934 	0
0.0024120603 	0.50670877 	0.003421037 	0
0.0024371859 	0.50670741 	0.0034200806 	0
0.0024623116 	0.50670606 	0.0034191242 	0
0.0024874372 	0.50670471 	0.0034181678 	0
0.0025125628 	0.50670336 	0.0034172115 	0
0.0025376884 	0.50670176 	0.0034162417 	0
0.0025628141 	0.50670011 	0.0034152692 	0
0.0025879397 	0.50669846 	0.0034142968 	0
0.0026130653 	0.50669681 	0.0034133243 	0
0.002638191 	0.50669517 	0.0034123518 	0
0.0026633166 	0.50669352 	0.0034113794 	0
0.0026884422 	0.50669187 	0.0034104069 	0
0.0027135678 	0.5066901 	0.0034094268 	0
0.0027386935 	0.5066882 	0.0034084383 	0
0.0027638191 	0.5066863 	0.0034074498 	0
0.0027889447 	0.5066844 	0.0034064613 	0
0.0028140704 	0.5066825 	0.0034054728 	0
0.002839196 	0.5066806 	0.0034044843 	0
0.0028643216 	0.5066787 	0.0034034959 	0
0.0028894472 	0.5066768 	0.0034025074 	0
0.0029145729 	0.50667472 	0.0034015055 	0
0.0029396985 	0.5066726 	0.0034005007 	0
0.0029648241 	0.50667048 	0.003399496 	0
0.0029899497 	0.50666836 	0.0033984912 	0
0.0030150754 	0.50666624 	0.0033974865 	0
0.003040201 	0.50666412 	0.0033964817 	0
0.0030653266 	0.506662 	0.0033954769 	0
0.0030904523 	0.50665988 	0.0033944722 	0
0.0031155779 	0.50665759 	0.0033934531 	0
0.0031407035 	0.50665529 	0.0033924319 	0
0.0031658291 	0.50665298 	0.0033914107 	0
0.0031909548 	0.50665068 	0.0033903894 	0
0.0032160804 	0.50664837 	0.0033893682 	0
0.003241206 	0.50664606 	0.003388347 	0
0.0032663317 	0.50664376 	0.0033873257 	0
0.0032914573 	0.50664145 	0.0033863045 	0
0.0033165829 	0.50663905 	0.0033852733 	0
0.0033417085 	0.50663659 	0.0033842353 	0
0.0033668342 	0.50663413 	0.0033831974 	0
0.0033919598 	0.50663167 	0.0033821595 	0
0.0034170854 	0.50662921 	0.0033811215 	0
0.0034422111 	0.50662675 	0.0033800836 	0
0.0034673367 	0.50662429 	0.0033790456 	0
0.0034924623 	0.50662183 	0.0033780077 	0
0.0035175879 	0.50661936 	0.0033769697 	0
0.0035427136 	0.50661677 	0.0033759149 	0
0.0035678392 	0.50661418 	0.00337486 	0
0.0035929648 	0.50661159 	0.0033738051 	0
0.0036180905 	0.506609 	0.0033727502 	0
0.0036432161 	0.50660641 	0.0033716953 	0
0.0036683417 	0.50660382 	0.0033706404 	0
0.0036934673 	0.50660122 	0.0033695855 	0
0.003718593 	0.50659863 	0.0033685306 	0
0.0037437186 	0.50659603 	0.0033674747 	0
0.0037688442 	0.50659333 	0.0033664025 	0
0.0037939698 	0.50659063 	0.0033653303 	0
0.0038190955 	0.50658792 	0.0033642582 	0
0.0038442211 	0.50658522 	0.003363186 	0
0.0038693467 	0.50658251 	0.0033621138 	0
0.0038944724 	0.50657981 	0.0033610416 	0
0.003919598 	0.5065771 	0.0033599694 	0
0.0039447236 	0.5065744 	0.0033588972 	0
0.0039698492 	0.50657169 	0.003357825 	0
0.0039949749 	0.50656891 	0.0033567394 	0
0.0040201005 	0.50656611 	0.0033556496 	0
0.0040452261 	0.5065633 	0.0033545597 	0
0.0040703518 	0.5065605 	0.0033534698 	0
0.0040954774 	0.50655769 	0.0033523799 	0
0.004120603 	0.50655488 	0.0033512901 	0
0.0041457286 	0.50655208 	0.0033502002 	0
0.0041708543 	0.50654927 	0.0033491103 	0
0.0041959799 	0.50654647 	0.0033480204 	0
0.0042211055 	0.50654365 	0.003346929 	0
0.0042462312 	0.50654075 	0.003345821 	0
0.0042713568 	0.50653785 	0.003344713 	0
0.0042964824 	0.50653495 	0.003343605 	0
0.004321608 	0.50653205 	0.0033424971 	0
0.0043467337 	0.50652915 	0.0033413891 	0
0.0043718593 	0.50652625 	0.0033402811 	0
0.0043969849 	0.50652335 	0.0033391731 	0
0.0044221106 	0.50652045 	0.0033380651 	0
0.0044472362 	0.50651755 	0.0033369571 	0
0.0044723618 	0.50651464 	0.0033358485 	0
0.0044974874 	0.50651165 	0.0033347219 	0
0.0045226131 	0.50650866 	0.0033335954 	0
0.0045477387 	0.50650567 	0.0033324688 	0
0.0045728643 	0.50650268 	0.0033313422 	0
0.0045979899 	0.50649969 	0.0033302156 	0
0.0046231156 	0.5064967 	0.003329089 	0
0.0046482412 	0.50649371 	0.0033279624 	0
0.0046733668 	0.50649072 	0.0033268358 	0
0.0046984925 	0.50648773 	0.0033257092 	0
0.0047236181 	0.50648474 	0.0033245827 	0
0.0047487437 	0.50648169 	0.003323445 	0
0.0047738693 	0.50647861 	0.0033222993 	0
0.004798995 	0.50647553 	0.0033211537 	0
0.0048241206 	0.50647246 	0.003320008 	0
0.0048492462 	0.50646938 	0.0033188623 	0
0.0048743719 	0.5064663 	0.0033177167 	0
0.0048994975 	0.50646322 	0.003316571 	0
0.0049246231 	0.50646014 	0.0033154253 	0
0.0049497487 	0.50645706 	0.0033142796 	0
0.0049748744 	0.50645398 	0.003313134 	0
0.005 	0.5064509 	0.0033119883 	0
