# vtk DataFile Version 2.0
symmBound
ASCII
DATASET POLYDATA
POINTS 42 float
-0.02 0 0 -0.0174955 0 0 -0.0174955 0 0.001 -0.02 0
0.001 -0.0152768 0 0 -0.0152768 0 0.001 -0.0133113 0 0
-0.0133113 0 0.001 -0.0115702 0 0 -0.0115702 0 0.001 -0.0100278
0 0 -0.0100278 0 0.001 -0.00866141 0 0 -0.00866141 0
0.001 -0.00745099 0 0 -0.00745099 0 0.001 -0.00637872 0 0
-0.00637872 0 0.001 -0.00542882 0 0 -0.00542882 0 0.001 -0.00458735
0 0 -0.00458735 0 0.001 -0.00384191 0 0 -0.00384191 0
0.001 -0.00318155 0 0 -0.00318155 0 0.001 -0.00259656 0 0
-0.00259656 0 0.001 -0.00207834 0 0 -0.00207834 0 0.001 -0.00161927
0 0 -0.00161927 0 0.001 -0.00121259 0 0 -0.00121259 0
0.001 -0.000852321 0 0 -0.000852321 0 0.001 -0.000533174 0 0
-0.000533174 0 0.001 -0.000250453 0 0 -0.000250453 0 0.001 0
0 0 0 0 0.001 
POLYGONS 20 100
4 0 1 2 3 4 1 4 5 2 4
4 6 7 5 4 6 8 9 7 4
8 10 11 9 4 10 12 13 11 4
12 14 15 13 4 14 16 17 15 4
16 18 19 17 4 18 20 21 19 4
20 22 23 21 4 22 24 25 23 4
24 26 27 25 4 26 28 29 27 4
28 30 31 29 4 30 32 33 31 4
32 34 35 33 4 34 36 37 35 4
36 38 39 37 4 38 40 41 39 
CELL_DATA 20
FIELD attributes 3
patchID 1 20 float
4 4 4 4 4 4 4 4 4 4 4
4 4 4 4 4 4 4 4 4 
p 1 20 float
0.0195607 0.0178655 0.0179645 0.0182494 0.0185183 0.0183843 0.0189027 0.0188917 0.0192428 0.0195893 0.0201392
0.0209052 0.0218915 0.023063 0.0245834 0.0265224 0.0290457 0.0323182 0.0360572 0.0402628 
U 3 20 float
0.891361 0.0038275 0 1.10468 -0.00317298 0 0.902469 0.00163658 0 1.09203 -0.00303466
0 0.905957 0.00372017 0 1.07882 -0.0014726 0 0.913744 0.00508393 0
1.06598 -0.00132 0 0.92122 0.00348142 0 1.05395 -0.00154304 0 0.927897
0.00328252 0 1.04427 -0.00142495 0 0.933372 0.0030468 0 1.03508 -0.0018047
0 0.936862 0.00264389 0 1.02548 -0.00193771 0 0.937828 0.00207459 0
1.01394 -0.00139642 0 0.935707 0.00276219 0 1.0012 0.0017347 0 
POINT_DATA  42
FIELD attributes 2
p 1 42 float
0.0195607 0.0186696 0.0186696 0.0195607 0.0179174 0.0179174 0.0181136 0.0181136 0.0183898 0.0183898 0.0184485
0.0184485 0.0186533 0.0186533 0.018897 0.018897 0.0190726 0.0190726 0.0194207 0.0194207 0.0198707
0.0198707 0.0205299 0.0205299 0.0214067 0.0214067 0.0224855 0.0224855 0.0238321 0.0238321 0.0255622
0.0255622 0.0277938 0.0277938 0.0306922 0.0306922 0.0341971 0.0341971 0.0381684 0.0381684 0.0402628
0.0402628 
U 3 42 float
0.891361 0.0038275 0 1.00349 0.000147717 0 1.00349 0.000147717 0 0.891361 0.0038275
0 0.998596 -0.000649796 0 0.998596 -0.000649796 0 1.00169 -0.000808448 0
1.00169 -0.000808448 0 0.99489 0.000491737 0 0.99489 0.000491737 0 0.995937
0.00101718 0 0.995937 0.00101718 0 0.993167 0.00192937 0 0.993167 0.00192937
0 0.992466 0.00177244 0 0.992466 0.00177244 0 0.991388 0.00115409 0
0.991388 0.00115409 0 0.989371 0.000901572 0 0.989371 0.000901572 0 0.989451
0.000926106 0 0.989451 0.000926106 0 0.987247 0.000881718 0 0.987247 0.000881718
0 0.987884 0.000848704 0 0.987884 0.000848704 0 0.984944 0.000586824 0
0.984944 0.000586824 0 0.985398 0.000445528 0 0.985398 0.000445528 0 0.981594
0.000331222 0 0.981594 0.000331222 0 0.981314 8.39987e-05 0 0.981314 8.39987e-05
0 0.976122 0.000328222 0 0.976122 0.000328222 0 0.974627 0.000693332 0
0.974627 0.000693332 0 0.968585 0.00224638 0 0.968585 0.00224638 0 1.0012
0.0017347 0 1.0012 0.0017347 0 
