# vtk DataFile Version 2.0
symmBound
ASCII
DATASET POLYDATA
POINTS 42 float
-0.02 0 0 -0.0174955 0 0 -0.0174955 0 0.001 -0.02 0
0.001 -0.0152768 0 0 -0.0152768 0 0.001 -0.0133113 0 0
-0.0133113 0 0.001 -0.0115702 0 0 -0.0115702 0 0.001 -0.0100278
0 0 -0.0100278 0 0.001 -0.00866141 0 0 -0.00866141 0
0.001 -0.00745099 0 0 -0.00745099 0 0.001 -0.00637872 0 0
-0.00637872 0 0.001 -0.00542882 0 0 -0.00542882 0 0.001 -0.00458735
0 0 -0.00458735 0 0.001 -0.00384191 0 0 -0.00384191 0
0.001 -0.00318155 0 0 -0.00318155 0 0.001 -0.00259656 0 0
-0.00259656 0 0.001 -0.00207834 0 0 -0.00207834 0 0.001 -0.00161927
0 0 -0.00161927 0 0.001 -0.00121259 0 0 -0.00121259 0
0.001 -0.000852321 0 0 -0.000852321 0 0.001 -0.000533174 0 0
-0.000533174 0 0.001 -0.000250453 0 0 -0.000250453 0 0.001 0
0 0 0 0 0.001 
POLYGONS 20 100
4 0 1 2 3 4 1 4 5 2 4
4 6 7 5 4 6 8 9 7 4
8 10 11 9 4 10 12 13 11 4
12 14 15 13 4 14 16 17 15 4
16 18 19 17 4 18 20 21 19 4
20 22 23 21 4 22 24 25 23 4
24 26 27 25 4 26 28 29 27 4
28 30 31 29 4 30 32 33 31 4
32 34 35 33 4 34 36 37 35 4
36 38 39 37 4 38 40 41 39 
CELL_DATA 20
FIELD attributes 3
patchID 1 20 float
4 4 4 4 4 4 4 4 4 4 4
4 4 4 4 4 4 4 4 4 
p 1 20 float
0.0183299 0.0166283 0.0168945 0.0168939 0.0171065 0.0172374 0.017649 0.0175943 0.0179833 0.0183059 0.0188746
0.0195561 0.0203986 0.0215959 0.0231295 0.0250825 0.0275294 0.0306867 0.034511 0.0387005 
U 3 20 float
0.890664 0.00368034 0 1.10658 -0.0043775 0 0.901026 0.00293694 0 1.09018 -0.0017202
0 0.909503 0.00351296 0 1.07814 -0.00220709 0 0.913583 0.0037639 0
1.06596 -0.001586 0 0.92079 0.00431706 0 1.05535 -0.00125928 0 0.927703
0.0034643 0 1.04518 -0.00134795 0 0.933269 0.00300175 0 1.03576 -0.00148332
0 0.936818 0.00253871 0 1.02567 -0.0016365 0 0.937932 0.0022912 0
1.01437 -0.00128073 0 0.935747 0.00281486 0 1.00118 0.0019856 0 
POINT_DATA  42
FIELD attributes 2
p 1 42 float
0.0183299 0.0174355 0.0174355 0.0183299 0.016768 0.016768 0.0168942 0.0168942 0.0170049 0.0170049 0.0171746
0.0171746 0.017451 0.017451 0.0176207 0.0176207 0.0177947 0.0177947 0.0181489 0.0181489 0.0185969
0.0185969 0.0192222 0.0192222 0.0199845 0.0199845 0.0210057 0.0210057 0.0223716 0.0223716 0.0241153
0.0241153 0.0263154 0.0263154 0.0291179 0.0291179 0.0326085 0.0326085 0.0366142 0.0366142 0.0387005
0.0387005 
U 3 42 float
0.890664 0.00368034 0 1.00416 -0.000555241 0 1.00416 -0.000555241 0 0.890664 0.00368034
0 0.998743 -0.000540209 0 0.998743 -0.000540209 0 1.00003 0.000499292 0
1.00003 0.000499292 0 0.995857 0.0010118 0 0.995857 0.0010118 0 0.997284
0.000535501 0 0.997284 0.000535501 0 0.992757 0.000891064 0 0.992757 0.000891064
0 0.992378 0.000997448 0 0.992378 0.000997448 0 0.991156 0.00145575 0
0.991156 0.00145575 0 0.989881 0.00145384 0 0.989881 0.00145384 0 0.990035
0.00115768 0 0.990035 0.00115768 0 0.987616 0.00101006 0 0.987616 0.00101006
0 0.988279 0.000863648 0 0.988279 0.000863648 0 0.985238 0.000727574 0
0.985238 0.000727574 0 0.985712 0.000551141 0 0.985712 0.000551141 0 0.981668
0.000431176 0 0.981668 0.000431176 0 0.981461 0.000342581 0 0.981461 0.000342581
0 0.97639 0.000494056 0 0.97639 0.000494056 0 0.974861 0.000777354 0
0.974861 0.000777354 0 0.968595 0.00239857 0 0.968595 0.00239857 0 1.00118
0.0019856 0 1.00118 0.0019856 0 
