# vtk DataFile Version 2.0
symmBound
ASCII
DATASET POLYDATA
POINTS 42 float
-0.02 0 0 -0.0174955 0 0 -0.0174955 0 0.001 -0.02 0
0.001 -0.0152768 0 0 -0.0152768 0 0.001 -0.0133113 0 0
-0.0133113 0 0.001 -0.0115702 0 0 -0.0115702 0 0.001 -0.0100278
0 0 -0.0100278 0 0.001 -0.00866141 0 0 -0.00866141 0
0.001 -0.00745099 0 0 -0.00745099 0 0.001 -0.00637872 0 0
-0.00637872 0 0.001 -0.00542882 0 0 -0.00542882 0 0.001 -0.00458735
0 0 -0.00458735 0 0.001 -0.00384191 0 0 -0.00384191 0
0.001 -0.00318155 0 0 -0.00318155 0 0.001 -0.00259656 0 0
-0.00259656 0 0.001 -0.00207834 0 0 -0.00207834 0 0.001 -0.00161927
0 0 -0.00161927 0 0.001 -0.00121259 0 0 -0.00121259 0
0.001 -0.000852321 0 0 -0.000852321 0 0.001 -0.000533174 0 0
-0.000533174 0 0.001 -0.000250453 0 0 -0.000250453 0 0.001 0
0 0 0 0 0.001 
POLYGONS 20 100
4 0 1 2 3 4 1 4 5 2 4
4 6 7 5 4 6 8 9 7 4
8 10 11 9 4 10 12 13 11 4
12 14 15 13 4 14 16 17 15 4
16 18 19 17 4 18 20 21 19 4
20 22 23 21 4 22 24 25 23 4
24 26 27 25 4 26 28 29 27 4
28 30 31 29 4 30 32 33 31 4
32 34 35 33 4 34 36 37 35 4
36 38 39 37 4 38 40 41 39 
CELL_DATA 20
FIELD attributes 3
patchID 1 20 float
4 4 4 4 4 4 4 4 4 4 4
4 4 4 4 4 4 4 4 4 
p 1 20 float
0.0148846 0.0135144 0.0136109 0.0131622 0.0137043 0.0136209 0.0137503 0.0140172 0.0144364 0.0147708 0.0150106
0.0155695 0.0163363 0.0173869 0.0187604 0.0203972 0.0225071 0.025266 0.0286491 0.0325813 
U 3 20 float
0.891415 0.00285304 0 1.1068 -0.00271768 0 0.898932 0.00457621 0 1.09176 -0.00360265
0 0.908391 0.00210385 0 1.07581 -0.00295527 0 0.916862 0.00231202 0
1.06387 -0.00199885 0 0.921287 0.00444466 0 1.0549 0.000216656 0 0.927196
0.00509285 0 1.04589 0.000970604 0 0.932436 0.00514228 0 1.03656 0.000645133
0 0.935837 0.00486577 0 1.02641 0.000613228 0 0.937695 0.00441589 0
1.01514 0.00103259 0 0.936605 0.00483593 0 1.00253 0.0035585 0 
POINT_DATA  42
FIELD attributes 2
p 1 42 float
0.0148846 0.0141644 0.0141644 0.0148846 0.013565 0.013565 0.013376 0.013376 0.0134452 0.0134452 0.0136609
0.0136609 0.013688 0.013688 0.0138883 0.0138883 0.0142332 0.0142332 0.0146081 0.0146081 0.0148935
0.0148935 0.0152956 0.0152956 0.0159594 0.0159594 0.016869 0.016869 0.0180817 0.0180817 0.0195866
0.0195866 0.0214603 0.0214603 0.0238952 0.0238952 0.026966 0.026966 0.0306231 0.0306231 0.0325813
0.0325813 
U 3 42 float
0.891415 0.00285304 0 1.00463 -7.51935e-05 0 1.00463 -7.51935e-05 0 0.891415 0.00285304
0 0.997749 0.00110883 0 0.997749 0.00110883 0 0.999862 0.000295218 0
0.999862 0.000295218 0 0.996031 -0.00062354 0 0.996031 -0.00062354 0 0.995538
-0.000529575 0 0.995538 -0.000529575 0 0.993337 -0.000222243 0 0.993337 -0.000222243
0 0.99288 8.28543e-05 0 0.99288 8.28543e-05 0 0.990399 0.00132138 0
0.990399 0.00132138 0 0.989892 0.00227376 0 0.989892 0.00227376 0 0.989556
0.00271171 0 0.989556 0.00271171 0 0.98773 0.00299051 0 0.98773 0.00299051
0 0.988204 0.00309169 0 0.988204 0.00309169 0 0.985233 0.00286198 0
0.985233 0.00286198 0 0.985611 0.00278006 0 0.985611 0.00278006 0 0.981556
0.0027192 0 0.981556 0.0027192 0 0.981708 0.0025293 0 0.981708 0.0025293
0 0.97666 0.00271365 0 0.97666 0.00271365 0 0.975675 0.00294381 0
0.975675 0.00294381 0 0.9697 0.00419465 0 0.9697 0.00419465 0 1.00253
0.0035585 0 1.00253 0.0035585 0 
