# vtk DataFile Version 2.0
symmBound
ASCII
DATASET POLYDATA
POINTS 42 float
-0.02 0 0 -0.0174955 0 0 -0.0174955 0 0.001 -0.02 0
0.001 -0.0152768 0 0 -0.0152768 0 0.001 -0.0133113 0 0
-0.0133113 0 0.001 -0.0115702 0 0 -0.0115702 0 0.001 -0.0100278
0 0 -0.0100278 0 0.001 -0.00866141 0 0 -0.00866141 0
0.001 -0.00745099 0 0 -0.00745099 0 0.001 -0.00637872 0 0
-0.00637872 0 0.001 -0.00542882 0 0 -0.00542882 0 0.001 -0.00458735
0 0 -0.00458735 0 0.001 -0.00384191 0 0 -0.00384191 0
0.001 -0.00318155 0 0 -0.00318155 0 0.001 -0.00259656 0 0
-0.00259656 0 0.001 -0.00207834 0 0 -0.00207834 0 0.001 -0.00161927
0 0 -0.00161927 0 0.001 -0.00121259 0 0 -0.00121259 0
0.001 -0.000852321 0 0 -0.000852321 0 0.001 -0.000533174 0 0
-0.000533174 0 0.001 -0.000250453 0 0 -0.000250453 0 0.001 0
0 0 0 0 0.001 
POLYGONS 20 100
4 0 1 2 3 4 1 4 5 2 4
4 6 7 5 4 6 8 9 7 4
8 10 11 9 4 10 12 13 11 4
12 14 15 13 4 14 16 17 15 4
16 18 19 17 4 18 20 21 19 4
20 22 23 21 4 22 24 25 23 4
24 26 27 25 4 26 28 29 27 4
28 30 31 29 4 30 32 33 31 4
32 34 35 33 4 34 36 37 35 4
36 38 39 37 4 38 40 41 39 
CELL_DATA 20
FIELD attributes 3
patchID 1 20 float
4 4 4 4 4 4 4 4 4 4 4
4 4 4 4 4 4 4 4 4 
p 1 20 float
0.0131527 0.0117414 0.012102 0.0119116 0.0124134 0.012273 0.0126674 0.0127851 0.0131168 0.0135097 0.0141448
0.0149467 0.0155517 0.0165873 0.0177483 0.0194355 0.0215607 0.0243089 0.0276935 0.0315525 
U 3 20 float
0.888463 0.00324671 0 1.11038 -0.00371197 0 0.896272 0.00374043 0 1.09099 -0.00274615
0 0.903429 0.00359068 0 1.07566 -0.00260713 0 0.916053 0.00242444 0
1.065 -0.00218517 0 0.925448 0.00339475 0 1.05619 -0.00140333 0 0.93094
0.00421175 0 1.04692 -0.000452529 0 0.934313 0.00402319 0 1.0365 0.000319675
0 0.936484 0.00421583 0 1.02553 0.000503683 0 0.936706 0.00418734 0
1.0134 0.000769706 0 0.934354 0.00466178 0 0.999866 0.00330969 0 
POINT_DATA  42
FIELD attributes 2
p 1 42 float
0.0131527 0.0124109 0.0124109 0.0131527 0.0119306 0.0119306 0.0120023 0.0120023 0.0121736 0.0121736 0.0123403
0.0123403 0.0124776 0.0124776 0.0127283 0.0127283 0.012956 0.012956 0.0133185 0.0133185 0.0138347
0.0138347 0.0145538 0.0145538 0.0152543 0.0152543 0.0160768 0.0160768 0.0171746 0.0171746 0.0186
0.0186 0.0205063 0.0205063 0.0229434 0.0229434 0.0260097 0.0260097 0.0296307 0.0296307 0.0315525
0.0315525 
U 3 42 float
0.888463 0.00324671 0 1.00511 -0.000411101 0 1.00511 -0.000411101 0 0.888463 0.00324671
0 0.998055 0.000197697 0 0.998055 0.000197697 0 0.998192 0.000345214 0
0.998192 0.000345214 0 0.993073 0.000562028 0 0.993073 0.000562028 0 0.99308
0.000364533 0 0.99308 0.000364533 0 0.992845 3.58953e-06 0 0.992845 3.58953e-06
0 0.993074 4.07948e-05 0 0.993074 4.07948e-05 0 0.993091 0.000690067 0
0.993091 0.000690067 0 0.992579 0.000931139 0 0.992579 0.000931139 0 0.992102
0.0014698 0 0.992102 0.0014698 0 0.99009 0.00183297 0 0.99009 0.00183297
0 0.989665 0.00182314 0 0.989665 0.00182314 0 0.986127 0.00214531 0
0.986127 0.00214531 0 0.985909 0.00229046 0 0.985909 0.00229046 0 0.981432
0.00234204 0 0.981432 0.00234204 0 0.980774 0.0023598 0 0.980774 0.0023598
0 0.975293 0.00246783 0 0.975293 0.00246783 0 0.973678 0.00272552 0
0.973678 0.00272552 0 0.967242 0.00398302 0 0.967242 0.00398302 0 0.999866
0.00330969 0 0.999866 0.00330969 0 
