# vtk DataFile Version 2.0
symmBound
ASCII
DATASET POLYDATA
POINTS 42 float
-0.02 0 0 -0.0174955 0 0 -0.0174955 0 0.001 -0.02 0
0.001 -0.0152768 0 0 -0.0152768 0 0.001 -0.0133113 0 0
-0.0133113 0 0.001 -0.0115702 0 0 -0.0115702 0 0.001 -0.0100278
0 0 -0.0100278 0 0.001 -0.00866141 0 0 -0.00866141 0
0.001 -0.00745099 0 0 -0.00745099 0 0.001 -0.00637872 0 0
-0.00637872 0 0.001 -0.00542882 0 0 -0.00542882 0 0.001 -0.00458735
0 0 -0.00458735 0 0.001 -0.00384191 0 0 -0.00384191 0
0.001 -0.00318155 0 0 -0.00318155 0 0.001 -0.00259656 0 0
-0.00259656 0 0.001 -0.00207834 0 0 -0.00207834 0 0.001 -0.00161927
0 0 -0.00161927 0 0.001 -0.00121259 0 0 -0.00121259 0
0.001 -0.000852321 0 0 -0.000852321 0 0.001 -0.000533174 0 0
-0.000533174 0 0.001 -0.000250453 0 0 -0.000250453 0 0.001 0
0 0 0 0 0.001 
POLYGONS 20 100
4 0 1 2 3 4 1 4 5 2 4
4 6 7 5 4 6 8 9 7 4
8 10 11 9 4 10 12 13 11 4
12 14 15 13 4 14 16 17 15 4
16 18 19 17 4 18 20 21 19 4
20 22 23 21 4 22 24 25 23 4
24 26 27 25 4 26 28 29 27 4
28 30 31 29 4 30 32 33 31 4
32 34 35 33 4 34 36 37 35 4
36 38 39 37 4 38 40 41 39 
CELL_DATA 20
FIELD attributes 3
patchID 1 20 float
4 4 4 4 4 4 4 4 4 4 4
4 4 4 4 4 4 4 4 4 
p 1 20 float
0.0148273 0.0135173 0.0135432 0.0130692 0.013632 0.0135824 0.0136725 0.0138793 0.0143175 0.0148769 0.0151232
0.0156756 0.016346 0.0172709 0.0186218 0.0202566 0.0223516 0.0250965 0.0284536 0.0323304 
U 3 20 float
0.89192 0.0027652 0 1.10718 -0.00263671 0 0.898093 0.00472855 0 1.09088 -0.00315392
0 0.908684 0.00231542 0 1.07602 -0.00275981 0 0.917201 0.00207722 0
1.06507 -0.00304928 0 0.920379 0.00279513 0 1.05498 -0.000446782 0 0.926293
0.00459163 0 1.04582 0.000636947 0 0.93165 0.00553862 0 1.03659 0.000912567
0 0.93555 0.00536933 0 1.02631 0.00105129 0 0.937571 0.00479057 0
1.01505 0.0013358 0 0.936469 0.00501917 0 1.00247 0.00371117 0 
POINT_DATA  42
FIELD attributes 2
p 1 42 float
0.0148273 0.0141387 0.0141387 0.0148273 0.0135309 0.0135309 0.0132951 0.0132951 0.013363 0.013363 0.0136062
0.0136062 0.0136291 0.0136291 0.0137794 0.0137794 0.0141051 0.0141051 0.0146047 0.0146047 0.0150029
0.0150029 0.0154049 0.0154049 0.0160165 0.0160165 0.016815 0.016815 0.0179542 0.0179542 0.019447
0.019447 0.0213122 0.0213122 0.0237326 0.0237326 0.0267835 0.0267835 0.0303998 0.0303998 0.0323304
0.0323304 
U 3 42 float
0.89192 0.0027652 0 1.00507 -7.4299e-05 0 1.00507 -7.4299e-05 0 0.89192 0.0027652
0 0.997489 0.00122724 0 0.997489 0.00122724 0 0.999002 0.000602695 0
0.999002 0.000602695 0 0.995764 -0.00029862 0 0.995764 -0.00029862 0 0.995787
-0.00032639 0 0.995787 -0.00032639 0 0.993614 -0.000250031 0 0.993614 -0.000250031
0 0.993665 -0.000573711 0 0.993665 -0.000573711 0 0.990513 -3.77559e-05 0
0.990513 -3.77559e-05 0 0.989491 0.00113055 0 0.989491 0.00113055 0 0.989133
0.00213128 0 0.989133 0.00213128 0 0.987252 0.00257475 0 0.987252 0.00257475
0 0.98777 0.00312919 0 0.98777 0.00312919 0 0.98486 0.00319296 0
0.98486 0.00319296 0 0.985481 0.00316693 0 0.985481 0.00316693 0 0.981363
0.0031897 0 0.981363 0.0031897 0 0.981596 0.00293543 0 0.981596 0.00293543
0 0.976553 0.00305237 0 0.976553 0.00305237 0 0.975562 0.00318674 0
0.975562 0.00318674 0 0.969602 0.00436254 0 0.969602 0.00436254 0 1.00247
0.00371117 0 1.00247 0.00371117 0 
