# vtk DataFile Version 2.0
symmBound
ASCII
DATASET POLYDATA
POINTS 42 float
-0.02 0 0 -0.0174955 0 0 -0.0174955 0 0.001 -0.02 0
0.001 -0.0152768 0 0 -0.0152768 0 0.001 -0.0133113 0 0
-0.0133113 0 0.001 -0.0115702 0 0 -0.0115702 0 0.001 -0.0100278
0 0 -0.0100278 0 0.001 -0.00866141 0 0 -0.00866141 0
0.001 -0.00745099 0 0 -0.00745099 0 0.001 -0.00637872 0 0
-0.00637872 0 0.001 -0.00542882 0 0 -0.00542882 0 0.001 -0.00458735
0 0 -0.00458735 0 0.001 -0.00384191 0 0 -0.00384191 0
0.001 -0.00318155 0 0 -0.00318155 0 0.001 -0.00259656 0 0
-0.00259656 0 0.001 -0.00207834 0 0 -0.00207834 0 0.001 -0.00161927
0 0 -0.00161927 0 0.001 -0.00121259 0 0 -0.00121259 0
0.001 -0.000852321 0 0 -0.000852321 0 0.001 -0.000533174 0 0
-0.000533174 0 0.001 -0.000250453 0 0 -0.000250453 0 0.001 0
0 0 0 0 0.001 
POLYGONS 20 100
4 0 1 2 3 4 1 4 5 2 4
4 6 7 5 4 6 8 9 7 4
8 10 11 9 4 10 12 13 11 4
12 14 15 13 4 14 16 17 15 4
16 18 19 17 4 18 20 21 19 4
20 22 23 21 4 22 24 25 23 4
24 26 27 25 4 26 28 29 27 4
28 30 31 29 4 30 32 33 31 4
32 34 35 33 4 34 36 37 35 4
36 38 39 37 4 38 40 41 39 
CELL_DATA 20
FIELD attributes 3
patchID 1 20 float
4 4 4 4 4 4 4 4 4 4 4
4 4 4 4 4 4 4 4 4 
p 1 20 float
0.0141768 0.0128274 0.0128878 0.012398 0.0129098 0.0129163 0.0129586 0.0130787 0.0134937 0.0139549 0.0144702
0.0152522 0.0157724 0.0166225 0.017903 0.0195342 0.0215797 0.0242737 0.0275854 0.0314057 
U 3 20 float
0.891638 0.00277716 0 1.1077 -0.00299581 0 0.898323 0.00490099 0 1.09017 -0.00266191
0 0.909114 0.00235547 0 1.07562 -0.00272769 0 0.917001 0.00230729 0
1.06595 -0.0030842 0 0.920355 0.00202927 0 1.05519 -0.00123362 0 0.925708
0.00414829 0 1.04595 0.000173906 0 0.93117 0.00548967 0 1.03672 0.000884857
0 0.935436 0.00549499 0 1.02643 0.00131809 0 0.937628 0.00507874 0
1.01531 0.00168606 0 0.936696 0.00529985 0 1.00277 0.00397562 0 
POINT_DATA  42
FIELD attributes 2
p 1 42 float
0.0141768 0.0134675 0.0134675 0.0141768 0.0128591 0.0128591 0.0126314 0.0126314 0.0126652 0.0126652 0.0129132
0.0129132 0.0129382 0.0129382 0.0130207 0.0130207 0.0132925 0.0132925 0.0137305 0.0137305 0.0142186
0.0142186 0.014869 0.014869 0.0155167 0.0155167 0.0162034 0.0162034 0.0172702 0.0172702 0.0187264
0.0187264 0.0205649 0.0205649 0.0229351 0.0229351 0.0259379 0.0259379 0.0295032 0.0295032 0.0314057
0.0314057 
U 3 42 float
0.891638 0.00277716 0 1.00521 -0.000257386 0 1.00521 -0.000257386 0 0.891638 0.00277716
0 0.997857 0.001147 0 0.997857 0.001147 0 0.99874 0.000942404 0
0.99874 0.000942404 0 0.995649 -4.25586e-05 0 0.995649 -4.25586e-05 0 0.995785
-0.000290468 0 0.995785 -0.000290468 0 0.993318 -0.000115201 0 0.993318 -0.000115201
0 0.994023 -0.000480668 0 0.994023 -0.000480668 0 0.990927 -0.000449317 0
0.990927 -0.000449317 0 0.989587 0.000353914 0 0.989587 0.000353914 0 0.988937
0.0015202 0 0.988937 0.0015202 0 0.987031 0.00212136 0 0.987031 0.00212136
0 0.98759 0.0028767 0 0.98759 0.0028767 0 0.98469 0.00315478 0
0.98469 0.00315478 0 0.985488 0.0032168 0 0.985488 0.0032168 0 0.981367
0.0033866 0 0.981367 0.0033866 0 0.981685 0.003213 0 0.981685 0.003213
0 0.976712 0.00337178 0 0.976712 0.00337178 0 0.975806 0.00350203 0
0.975806 0.00350203 0 0.969866 0.00463508 0 0.969866 0.00463508 0 1.00277
0.00397562 0 1.00277 0.00397562 0 
