# vtk DataFile Version 2.0
symmBound
ASCII
DATASET POLYDATA
POINTS 42 float
-0.02 0 0 -0.0174955 0 0 -0.0174955 0 0.001 -0.02 0
0.001 -0.0152768 0 0 -0.0152768 0 0.001 -0.0133113 0 0
-0.0133113 0 0.001 -0.0115702 0 0 -0.0115702 0 0.001 -0.0100278
0 0 -0.0100278 0 0.001 -0.00866141 0 0 -0.00866141 0
0.001 -0.00745099 0 0 -0.00745099 0 0.001 -0.00637872 0 0
-0.00637872 0 0.001 -0.00542882 0 0 -0.00542882 0 0.001 -0.00458735
0 0 -0.00458735 0 0.001 -0.00384191 0 0 -0.00384191 0
0.001 -0.00318155 0 0 -0.00318155 0 0.001 -0.00259656 0 0
-0.00259656 0 0.001 -0.00207834 0 0 -0.00207834 0 0.001 -0.00161927
0 0 -0.00161927 0 0.001 -0.00121259 0 0 -0.00121259 0
0.001 -0.000852321 0 0 -0.000852321 0 0.001 -0.000533174 0 0
-0.000533174 0 0.001 -0.000250453 0 0 -0.000250453 0 0.001 0
0 0 0 0 0.001 
POLYGONS 20 100
4 0 1 2 3 4 1 4 5 2 4
4 6 7 5 4 6 8 9 7 4
8 10 11 9 4 10 12 13 11 4
12 14 15 13 4 14 16 17 15 4
16 18 19 17 4 18 20 21 19 4
20 22 23 21 4 22 24 25 23 4
24 26 27 25 4 26 28 29 27 4
28 30 31 29 4 30 32 33 31 4
32 34 35 33 4 34 36 37 35 4
36 38 39 37 4 38 40 41 39 
CELL_DATA 20
FIELD attributes 3
patchID 1 20 float
4 4 4 4 4 4 4 4 4 4 4
4 4 4 4 4 4 4 4 4 
p 1 20 float
0.0130584 0.0116452 0.0117383 0.0112704 0.0116975 0.011732 0.0117321 0.0117559 0.0121285 0.0125418 0.0130488
0.0137118 0.0144067 0.0152699 0.0164792 0.0181236 0.0201621 0.0228276 0.0260962 0.0298817 
U 3 20 float
0.891352 0.00284906 0 1.10805 -0.00338794 0 0.898811 0.00489146 0 1.08949 -0.00213876
0 0.909443 0.00253255 0 1.07545 -0.00272759 0 0.916377 0.00247796 0
1.06675 -0.00284493 0 0.920676 0.00162113 0 1.05564 -0.00215436 0 0.92528
0.00351312 0 1.04604 -0.000357259 0 0.930759 0.00517546 0 1.03676 0.000722862
0 0.935375 0.00539402 0 1.02659 0.00138227 0 0.937659 0.00519412 0
1.01555 0.00193475 0 0.93696 0.0055282 0 1.00313 0.00423956 0 
POINT_DATA  42
FIELD attributes 2
p 1 42 float
0.0130584 0.0123156 0.0123156 0.0130584 0.011694 0.011694 0.0114934 0.0114934 0.0114934 0.0114934 0.0117155
0.0117155 0.0117321 0.0117321 0.0117444 0.0117444 0.0119479 0.0119479 0.0123407 0.0123407 0.0128012
0.0128012 0.0133869 0.0133869 0.0140651 0.0140651 0.0148444 0.0148444 0.0158816 0.0158816 0.0173092
0.0173092 0.0191508 0.0191508 0.0215032 0.0215032 0.0244701 0.0244701 0.0279965 0.0279965 0.0298817
0.0298817 
U 3 42 float
0.891352 0.00284906 0 1.00526 -0.000429402 0 1.00526 -0.000429402 0 0.891352 0.00284906
0 0.998279 0.000955586 0 0.998279 0.000955586 0 0.998617 0.00121169 0
0.998617 0.00121169 0 0.995495 0.000299924 0 0.995495 0.000299924 0 0.995855
-0.000205512 0 0.995855 -0.000205512 0 0.992912 -2.65979e-05 0 0.992912 -2.65979e-05
0 0.994135 -0.000274525 0 0.994135 -0.000274525 0 0.991481 -0.000543646 0
0.991481 -0.000543646 0 0.989974 -0.000317425 0 0.989974 -0.000317425 0 0.988937
0.00074558 0 0.988937 0.00074558 0 0.986867 0.00153923 0 0.986867 0.00153923
0 0.987426 0.00245584 0 0.987426 0.00245584 0 0.984507 0.00291775 0
0.984507 0.00291775 0 0.985476 0.00308567 0 0.985476 0.00308567 0 0.981418
0.003369 0 0.981418 0.003369 0 0.98178 0.00330298 0 0.98178 0.00330298
0 0.976848 0.00355423 0 0.976848 0.00355423 0 0.976058 0.0037405 0
0.976058 0.0037405 0 0.970178 0.00488129 0 0.970178 0.00488129 0 1.00313
0.00423956 0 1.00313 0.00423956 0 
