# vtk DataFile Version 2.0
symmBound
ASCII
DATASET POLYDATA
POINTS 42 float
-0.02 0 0 -0.0174955 0 0 -0.0174955 0 0.001 -0.02 0
0.001 -0.0152768 0 0 -0.0152768 0 0.001 -0.0133113 0 0
-0.0133113 0 0.001 -0.0115702 0 0 -0.0115702 0 0.001 -0.0100278
0 0 -0.0100278 0 0.001 -0.00866141 0 0 -0.00866141 0
0.001 -0.00745099 0 0 -0.00745099 0 0.001 -0.00637872 0 0
-0.00637872 0 0.001 -0.00542882 0 0 -0.00542882 0 0.001 -0.00458735
0 0 -0.00458735 0 0.001 -0.00384191 0 0 -0.00384191 0
0.001 -0.00318155 0 0 -0.00318155 0 0.001 -0.00259656 0 0
-0.00259656 0 0.001 -0.00207834 0 0 -0.00207834 0 0.001 -0.00161927
0 0 -0.00161927 0 0.001 -0.00121259 0 0 -0.00121259 0
0.001 -0.000852321 0 0 -0.000852321 0 0.001 -0.000533174 0 0
-0.000533174 0 0.001 -0.000250453 0 0 -0.000250453 0 0.001 0
0 0 0 0 0.001 
POLYGONS 20 100
4 0 1 2 3 4 1 4 5 2 4
4 6 7 5 4 6 8 9 7 4
8 10 11 9 4 10 12 13 11 4
12 14 15 13 4 14 16 17 15 4
16 18 19 17 4 18 20 21 19 4
20 22 23 21 4 22 24 25 23 4
24 26 27 25 4 26 28 29 27 4
28 30 31 29 4 30 32 33 31 4
32 34 35 33 4 34 36 37 35 4
36 38 39 37 4 38 40 41 39 
CELL_DATA 20
FIELD attributes 3
patchID 1 20 float
4 4 4 4 4 4 4 4 4 4 4
4 4 4 4 4 4 4 4 4 
p 1 20 float
0.0196036 0.0179737 0.018033 0.0182717 0.0186316 0.0184409 0.0189791 0.0191429 0.0193951 0.019729 0.0202589
0.0209734 0.0219525 0.0231071 0.0246049 0.0265376 0.0289496 0.0322199 0.0359171 0.0400344 
U 3 20 float
0.891649 0.00372937 0 1.10442 -0.0028018 0 0.901851 0.00173614 0 1.09269 -0.00346807
0 0.905903 0.00345487 0 1.07869 -0.00191734 0 0.913786 0.00502981 0
1.06559 -0.000689876 0 0.921936 0.00383984 0 1.05356 -0.00134235 0 0.928008
0.00344298 0 1.04369 -0.00139506 0 0.933073 0.00352005 0 1.03476 -0.00161053
0 0.936446 0.00298981 0 1.02524 -0.00148571 0 0.937784 0.00233135 0
1.01394 -0.00113718 0 0.935577 0.00298704 0 1.00129 0.00193714 0 
POINT_DATA  42
FIELD attributes 2
p 1 42 float
0.0196036 0.0187468 0.0187468 0.0196036 0.0180048 0.0180048 0.0181579 0.0181579 0.0184596 0.0184596 0.0185323
0.0185323 0.0187202 0.0187202 0.0190638 0.0190638 0.0192729 0.0192729 0.0195665 0.0195665 0.0200001
0.0200001 0.0206233 0.0206233 0.0214712 0.0214712 0.0225379 0.0225379 0.0238647 0.0238647 0.0255805
0.0255805 0.027753 0.027753 0.030595 0.030595 0.0340778 0.0340778 0.037984 0.037984 0.0400344
0.0400344 
U 3 42 float
0.891649 0.00372937 0 1.00349 0.000296279 0 1.00349 0.000296279 0 0.891649 0.00372937
0 0.998149 -0.000421113 0 0.998149 -0.000421113 0 1.00174 -0.000987856 0
1.00174 -0.000987856 0 0.995177 0.00014609 0 0.995177 0.00014609 0 0.995844
0.000658472 0 0.995844 0.000658472 0 0.993127 0.00168731 0 0.993127 0.00168731
0 0.992284 0.00207214 0 0.992284 0.00207214 0 0.991568 0.00164421 0
0.991568 0.00164421 0 0.989519 0.001179 0 0.989519 0.001179 0 0.989317
0.00110621 0 0.989317 0.00110621 0 0.987006 0.000975587 0 0.987006 0.000975587
0 0.987447 0.00110402 0 0.987447 0.00110402 0 0.984634 0.000918565 0
0.984634 0.000918565 0 0.98503 0.000716457 0 0.98503 0.000716457 0 0.981267
0.000730688 0 0.981267 0.000730688 0 0.981173 0.000437622 0 0.981173 0.000437622
0 0.9761 0.00058623 0 0.9761 0.00058623 0 0.974562 0.000935291 0
0.974562 0.000935291 0 0.968565 0.00245998 0 0.968565 0.00245998 0 1.00129
0.00193714 0 1.00129 0.00193714 0 
