# vtk DataFile Version 2.0
symmBound
ASCII
DATASET POLYDATA
POINTS 42 float
-0.02 0 0 -0.0174955 0 0 -0.0174955 0 0.001 -0.02 0
0.001 -0.0152768 0 0 -0.0152768 0 0.001 -0.0133113 0 0
-0.0133113 0 0.001 -0.0115702 0 0 -0.0115702 0 0.001 -0.0100278
0 0 -0.0100278 0 0.001 -0.00866141 0 0 -0.00866141 0
0.001 -0.00745099 0 0 -0.00745099 0 0.001 -0.00637872 0 0
-0.00637872 0 0.001 -0.00542882 0 0 -0.00542882 0 0.001 -0.00458735
0 0 -0.00458735 0 0.001 -0.00384191 0 0 -0.00384191 0
0.001 -0.00318155 0 0 -0.00318155 0 0.001 -0.00259656 0 0
-0.00259656 0 0.001 -0.00207834 0 0 -0.00207834 0 0.001 -0.00161927
0 0 -0.00161927 0 0.001 -0.00121259 0 0 -0.00121259 0
0.001 -0.000852321 0 0 -0.000852321 0 0.001 -0.000533174 0 0
-0.000533174 0 0.001 -0.000250453 0 0 -0.000250453 0 0.001 0
0 0 0 0 0.001 
POLYGONS 20 100
4 0 1 2 3 4 1 4 5 2 4
4 6 7 5 4 6 8 9 7 4
8 10 11 9 4 10 12 13 11 4
12 14 15 13 4 14 16 17 15 4
16 18 19 17 4 18 20 21 19 4
20 22 23 21 4 22 24 25 23 4
24 26 27 25 4 26 28 29 27 4
28 30 31 29 4 30 32 33 31 4
32 34 35 33 4 34 36 37 35 4
36 38 39 37 4 38 40 41 39 
CELL_DATA 20
FIELD attributes 3
patchID 1 20 float
4 4 4 4 4 4 4 4 4 4 4
4 4 4 4 4 4 4 4 4 
p 1 20 float
0.0183228 0.0165436 0.0167306 0.0170012 0.0171298 0.0171422 0.0175353 0.017374 0.0177325 0.01796 0.0185319
0.0192817 0.0201771 0.02131 0.0227966 0.0247976 0.0272769 0.0303952 0.0342494 0.0383476 
U 3 20 float
0.89076 0.00388143 0 1.10551 -0.00386693 0 0.903262 0.00188431 0 1.09041 -0.00217813
0 0.906888 0.00417046 0 1.07865 -0.000965908 0 0.913613 0.00429026 0
1.06624 -0.00238594 0 0.920314 0.00334286 0 1.05556 -0.00182804 0 0.927936
0.0029303 0 1.04573 -0.00194972 0 0.933283 0.00234173 0 1.03614 -0.00195522
0 0.936937 0.00195844 0 1.02587 -0.00189774 0 0.93794 0.00181174 0
1.0143 -0.00154496 0 0.935594 0.00283244 0 1.00138 0.00217415 0 
POINT_DATA  42
FIELD attributes 2
p 1 42 float
0.0183228 0.0173876 0.0173876 0.0183228 0.0166417 0.0166417 0.0168722 0.0168722 0.0170683 0.0170683 0.0171363
0.0171363 0.0173462 0.0173462 0.0174519 0.0174519 0.0175587 0.0175587 0.0178493 0.0178493 0.0182526
0.0182526 0.0189143 0.0189143 0.019737 0.019737 0.0207515 0.0207515 0.022062 0.022062 0.0238067
0.0238067 0.0260469 0.0260469 0.0288458 0.0288458 0.032332 0.032332 0.0363067 0.0363067 0.0383476
0.0383476 
U 3 42 float
0.89076 0.00388143 0 1.00364 -0.000191474 0 1.00364 -0.000191474 0 0.89076 0.00388143
0 0.999407 -0.000849723 0 0.999407 -0.000849723 0 1.00122 -0.000242059 0
1.00122 -0.000242059 0 0.994601 0.00113619 0 0.994601 0.00113619 0 0.996295
0.00149683 0 0.996295 0.00149683 0 0.993018 0.00176135 0 0.993018 0.00176135
0 0.992537 0.000837974 0 0.992537 0.000837974 0 0.991047 0.000566012 0
0.991047 0.000566012 0 0.989757 0.000687821 0 0.989757 0.000687821 0 0.990257
0.00060671 0 0.990257 0.00060671 0 0.988011 0.000441497 0 0.988011 0.000441497
0 0.988557 0.00023226 0 0.988557 0.00023226 0 0.985437 0.000162941 0
0.985437 0.000162941 0 0.98596 2.44243e-05 0 0.98596 2.44243e-05 0 0.981828
1.19441e-05 0 0.981828 1.19441e-05 0 0.981564 -2.86156e-05 0 0.981564 -2.86156e-05
0 0.976359 0.000122885 0 0.976359 0.000122885 0 0.974749 0.000654737 0
0.974749 0.000654737 0 0.968619 0.00250197 0 0.968619 0.00250197 0 1.00138
0.00217415 0 1.00138 0.00217415 0 
