# vtk DataFile Version 2.0
symmBound
ASCII
DATASET POLYDATA
POINTS 42 float
-0.02 0 0 -0.0174955 0 0 -0.0174955 0 0.001 -0.02 0
0.001 -0.0152768 0 0 -0.0152768 0 0.001 -0.0133113 0 0
-0.0133113 0 0.001 -0.0115702 0 0 -0.0115702 0 0.001 -0.0100278
0 0 -0.0100278 0 0.001 -0.00866141 0 0 -0.00866141 0
0.001 -0.00745099 0 0 -0.00745099 0 0.001 -0.00637872 0 0
-0.00637872 0 0.001 -0.00542882 0 0 -0.00542882 0 0.001 -0.00458735
0 0 -0.00458735 0 0.001 -0.00384191 0 0 -0.00384191 0
0.001 -0.00318155 0 0 -0.00318155 0 0.001 -0.00259656 0 0
-0.00259656 0 0.001 -0.00207834 0 0 -0.00207834 0 0.001 -0.00161927
0 0 -0.00161927 0 0.001 -0.00121259 0 0 -0.00121259 0
0.001 -0.000852321 0 0 -0.000852321 0 0.001 -0.000533174 0 0
-0.000533174 0 0.001 -0.000250453 0 0 -0.000250453 0 0.001 0
0 0 0 0 0.001 
POLYGONS 20 100
4 0 1 2 3 4 1 4 5 2 4
4 6 7 5 4 6 8 9 7 4
8 10 11 9 4 10 12 13 11 4
12 14 15 13 4 14 16 17 15 4
16 18 19 17 4 18 20 21 19 4
20 22 23 21 4 22 24 25 23 4
24 26 27 25 4 26 28 29 27 4
28 30 31 29 4 30 32 33 31 4
32 34 35 33 4 34 36 37 35 4
36 38 39 37 4 38 40 41 39 
CELL_DATA 20
FIELD attributes 3
patchID 1 20 float
4 4 4 4 4 4 4 4 4 4 4
4 4 4 4 4 4 4 4 4 
p 1 20 float
0.0194017 0.0176646 0.0178061 0.0180997 0.0182931 0.0182342 0.0187114 0.0186014 0.0189772 0.0192859 0.0198513
0.0206328 0.0216008 0.0227735 0.0242986 0.0262944 0.0288659 0.0320765 0.035917 0.0401259 
U 3 20 float
0.891095 0.00387299 0 1.10509 -0.00354752 0 0.902861 0.00170213 0 1.09124 -0.00255448
0 0.906252 0.00397305 0 1.07887 -0.00116301 0 0.9137 0.00481207 0
1.0662 -0.00192599 0 0.920643 0.00332232 0 1.05463 -0.00165538 0 0.927936
0.0031512 0 1.04502 -0.00165356 0 0.933445 0.00257063 0 1.03557 -0.00194954
0 0.937055 0.00214802 0 1.0256 -0.00214018 0 0.937854 0.00194041 0
1.01414 -0.00165423 0 0.935675 0.00251546 0 1.00108 0.00168623 0 
POINT_DATA  42
FIELD attributes 2
p 1 42 float
0.0194017 0.0184886 0.0184886 0.0194017 0.0177388 0.0177388 0.0179598 0.0179598 0.0182007 0.0182007 0.0182624
0.0182624 0.0184818 0.0184818 0.0186545 0.0186545 0.018795 0.018795 0.0191357 0.0191357 0.0195752
0.0195752 0.0202499 0.0202499 0.021125 0.021125 0.0221954 0.0221954 0.0235449 0.0235449 0.025306
0.025306 0.0275901 0.0275901 0.0304812 0.0304812 0.0340064 0.0340064 0.0380299 0.0380299 0.0401259
0.0401259 
U 3 42 float
0.891095 0.00387299 0 1.00358 -2.75805e-05 0 1.00358 -2.75805e-05 0 0.891095 0.00387299
0 0.998997 -0.000793456 0 0.998997 -0.000793456 0 1.00146 -0.000525872 0
1.00146 -0.000525872 0 0.994666 0.000853254 0 0.994666 0.000853254 0 0.996105
0.00129958 0 0.996105 0.00129958 0 0.993169 0.00193727 0 0.993169 0.00193727
0 0.992558 0.0013278 0 0.992558 0.0013278 0 0.991197 0.000778374 0
0.991197 0.000778374 0 0.98944 0.000766481 0 0.98944 0.000766481 0 0.989803
0.000804054 0 0.989803 0.000804054 0 0.987649 0.00070078 0 0.987649 0.00070078
0 0.98829 0.000494222 0 0.98829 0.000494222 0 0.985228 0.000278657 0
0.985228 0.000278657 0 0.985738 0.000123126 0 0.985738 0.000123126 0 0.98175
-1.6548e-05 0 0.98175 -1.6548e-05 0 0.981387 -8.40615e-05 0 0.981387 -8.40615e-05
0 0.976236 0.00013184 0 0.976236 0.00013184 0 0.97471 0.00044109 0
0.97471 0.00044109 0 0.968509 0.00209918 0 0.968509 0.00209918 0 1.00108
0.00168623 0 1.00108 0.00168623 0 
