/*--------------------------------*- C++ -*----------------------------------*\
| =========                 |                                                 |
| \\      /  F ield         | OpenFOAM: The Open Source CFD Toolbox           |
|  \\    /   O peration     | Version:  1.4.1-dev                             |
|   \\  /    A nd           | Web:      http://www.openfoam.org               |
|    \\/     M anipulation  |                                                 |
\*---------------------------------------------------------------------------*/

FoamFile
{
    version 2.0;
    format ascii;

    root "/home/mjaworsk/OpenFOAM/mjaworsk-1.4.1-dev/run/FlatPlate-Blasius";
    case "icoHeatFoam-flatPlate2";
    instance "0.7";
    local "";

    class volScalarField;
    object p;
}

// * * * * * * * * * * * * * * * * * * * * * * * * * * * * * * * * * * * * * //

dimensions      [0 2 -2 0 0 0 0];

internalField   nonuniform List<scalar> 
2475
(
0.00438136
0.00183547
0.000206343
-0.000204874
-0.000166698
-9.34757e-05
-5.63549e-05
-3.85696e-05
-2.71103e-05
-1.8336e-05
-1.14356e-05
-6.04958e-06
-1.89483e-06
1.17624e-06
3.35477e-06
4.66855e-06
5.318e-06
5.23921e-06
4.7072e-06
3.57851e-06
2.24517e-06
4.3863e-07
-1.38015e-06
-3.66953e-06
-5.89248e-06
-8.44292e-06
-1.06204e-05
-1.26901e-05
-1.44781e-05
-1.57127e-05
-1.72479e-05
-1.64373e-05
-1.73834e-05
-1.07415e-05
-1.21957e-05
0.00382364
0.00183214
0.000303412
-0.000143967
-0.000130878
-7.16331e-05
-4.27797e-05
-2.91811e-05
-1.99326e-05
-1.26075e-05
-6.77373e-06
-2.19258e-06
1.33987e-06
3.92087e-06
5.7033e-06
6.69612e-06
7.07778e-06
6.77883e-06
6.05719e-06
4.77213e-06
3.29907e-06
1.37919e-06
-5.4568e-07
-2.91744e-06
-5.224e-06
-7.83456e-06
-1.00811e-05
-1.21923e-05
-1.4039e-05
-1.52983e-05
-1.68874e-05
-1.60863e-05
-1.70864e-05
-1.04373e-05
-1.19347e-05
0.00331792
0.00184713
0.000450261
-6.0959e-05
-8.87393e-05
-4.38443e-05
-2.40693e-05
-1.68068e-05
-1.11632e-05
-5.92018e-06
-1.4795e-06
2.09431e-06
4.8751e-06
6.88218e-06
8.21244e-06
8.84489e-06
8.93098e-06
8.39097e-06
7.46476e-06
6.01123e-06
4.39007e-06
2.34956e-06
3.13915e-07
-2.14509e-06
-4.53853e-06
-7.21301e-06
-9.53072e-06
-1.16854e-05
-1.35921e-05
-1.48778e-05
-1.65226e-05
-1.57327e-05
-1.67888e-05
-1.01359e-05
-1.16836e-05
0.00292902
0.00186098
0.000622838
4.95668e-05
-3.40502e-05
-7.42899e-06
2.23066e-06
8.20725e-07
8.386e-07
2.88224e-06
5.29536e-06
7.43341e-06
9.16263e-06
1.03893e-05
1.11243e-05
1.12949e-05
1.10126e-05
1.01781e-05
9.00835e-06
7.35663e-06
5.56562e-06
3.38707e-06
1.22804e-06
-1.32909e-06
-3.81733e-06
-6.56331e-06
-8.9571e-06
-1.11604e-05
-1.31298e-05
-1.44462e-05
-1.61486e-05
-1.53749e-05
-1.64867e-05
-9.84195e-06
-1.14376e-05
0.00261486
0.00184121
0.000782555
0.000175362
3.13816e-05
3.64466e-05
3.68752e-05
2.57856e-05
1.80428e-05
1.53144e-05
1.47692e-05
1.48414e-05
1.504e-05
1.51214e-05
1.49862e-05
1.44866e-05
1.36779e-05
1.24276e-05
1.09222e-05
9.00042e-06
6.9843e-06
4.62334e-06
2.30667e-06
-3.76808e-07
-2.98177e-06
-5.8183e-06
-8.30315e-06
-1.05684e-05
-1.26104e-05
-1.39674e-05
-1.57341e-05
-1.49863e-05
-1.61561e-05
-9.54114e-06
-1.11743e-05
0.00235108
0.00178241
0.000909319
0.000303433
0.000102789
8.25727e-05
7.57204e-05
5.67098e-05
4.05566e-05
3.18282e-05
2.74483e-05
2.48464e-05
2.30214e-05
2.15507e-05
2.02172e-05
1.87854e-05
1.72398e-05
1.54043e-05
1.34281e-05
1.11272e-05
8.79933e-06
6.18455e-06
3.65398e-06
7.97481e-07
-1.96031e-06
-4.91906e-06
-7.52021e-06
-9.87028e-06
-1.20021e-05
-1.3416e-05
-1.52577e-05
-1.45509e-05
-1.57822e-05
-9.23167e-06
-1.08788e-05
0.0021297
0.0016986
0.000999098
0.000426401
0.000179206
0.000129001
0.000114825
9.06289e-05
6.69511e-05
5.17224e-05
4.29492e-05
3.73094e-05
3.31473e-05
2.98196e-05
2.70048e-05
2.43961e-05
2.19036e-05
1.93059e-05
1.67093e-05
1.39037e-05
1.11586e-05
8.2002e-06
5.38147e-06
2.28925e-06
-6.71332e-07
-3.79651e-06
-6.55073e-06
-9.01971e-06
-1.12671e-05
-1.27622e-05
-1.46947e-05
-1.40509e-05
-1.53482e-05
-8.91417e-06
-1.05319e-05
0.00194429
0.00160545
0.00105441
0.000538037
0.000260064
0.000176652
0.00015257
0.000125198
9.57399e-05
7.4104e-05
6.05563e-05
5.16586e-05
4.50326e-05
3.97107e-05
3.52498e-05
3.13014e-05
2.77043e-05
2.42034e-05
2.08563e-05
1.74324e-05
1.41668e-05
1.07749e-05
7.58734e-06
4.19121e-06
9.69007e-07
-2.37369e-06
-5.32801e-06
-7.95869e-06
-1.03579e-05
-1.19659e-05
-1.40115e-05
-1.346e-05
-1.48292e-05
-8.58423e-06
-1.01055e-05
0.00178758
0.00151304
0.00108046
0.000632521
0.00034255
0.000226846
0.000188965
0.000158911
0.000125703
9.83495e-05
7.97915e-05
6.73917e-05
5.82141e-05
5.0853e-05
4.46731e-05
3.93011e-05
3.45058e-05
3.00169e-05
2.58299e-05
2.171e-05
1.78422e-05
1.39472e-05
1.03182e-05
6.55972e-06
3.01696e-06
-5.90018e-07
-3.79628e-06
-6.63178e-06
-9.22764e-06
-1.09832e-05
-1.3172e-05
-1.27467e-05
-1.41953e-05
-8.23081e-06
-9.56716e-06
0.00165304
0.00142621
0.00108417
0.000706304
0.000422126
0.000280007
0.000225005
0.000191067
0.000155773
0.000123943
0.000100444
8.42736e-05
7.24001e-05
6.29582e-05
5.502e-05
4.81739e-05
4.21184e-05
3.65896e-05
3.15054e-05
2.66446e-05
2.21191e-05
1.7679e-05
1.35533e-05
9.39435e-06
5.47972e-06
1.57618e-06
-1.93205e-06
-5.0051e-06
-7.84614e-06
-9.77945e-06
-1.21485e-05
-1.18829e-05
-1.34196e-05
-7.83774e-06
-8.89205e-06
0.00153578
0.00134656
0.00107269
0.000759109
0.000494208
0.000335195
0.000261968
0.000221803
0.000185115
0.000150293
0.000122368
0.00010226
8.74863e-05
7.58796e-05
6.61454e-05
5.77811e-05
5.04104e-05
4.37931e-05
3.77633e-05
3.21274e-05
2.69026e-05
2.18919e-05
1.72287e-05
1.26486e-05
8.32087e-06
4.10411e-06
2.50359e-07
-3.07752e-06
-6.20947e-06
-8.34062e-06
-1.09296e-05
-1.08538e-05
-1.24879e-05
-7.3881e-06
-8.07777e-06
0.00143236
0.00127392
0.00105188
0.000793298
0.000555472
0.000390165
0.000300586
0.000251868
0.000213303
0.000176739
0.000145305
0.00012135
0.000103482
8.95743e-05
7.79905e-05
6.80638e-05
5.93267e-05
5.15654e-05
4.45395e-05
3.8088e-05
3.21249e-05
2.65175e-05
2.12827e-05
1.62647e-05
1.14901e-05
6.94961e-06
2.71465e-06
-8.75769e-07
-4.33576e-06
-6.67669e-06
-9.52088e-06
-9.66323e-06
-1.14031e-05
-6.87048e-06
-7.153e-06
0.00134036
0.00120754
0.00102577
0.000812519
0.000604365
0.000442072
0.000340577
0.000282133
0.000240396
0.000202698
0.000168836
0.000141462
0.000120427
0.000104059
9.05443e-05
7.90063e-05
6.88586e-05
5.98951e-05
5.18206e-05
4.45031e-05
3.77605e-05
3.15214e-05
2.56829e-05
2.02031e-05
1.49524e-05
1.00719e-05
5.42767e-06
1.56401e-06
-2.24951e-06
-4.81409e-06
-7.9366e-06
-8.33006e-06
-1.01816e-05
-6.28289e-06
-6.17139e-06
0.001258
0.00114667
0.000996918
0.000820495
0.000641069
0.000488403
0.000380676
0.000313071
0.000266815
0.000227844
0.000192464
0.000162372
0.000138315
0.000119369
0.00010382
9.06102e-05
7.90124e-05
6.87938e-05
5.96195e-05
5.13804e-05
4.38145e-05
3.69001e-05
3.04257e-05
2.44501e-05
1.86968e-05
1.34485e-05
8.37391e-06
4.21421e-06
3.31084e-08
-2.78117e-06
-6.18986e-06
-6.87822e-06
-8.84328e-06
-5.63076e-06
-5.19216e-06
0.00118391
0.00109078
0.000966908
0.000820385
0.000666922
0.000527547
0.000419083
0.000344493
0.000293036
0.000252168
0.000215758
0.000183731
0.000157038
0.000135519
0.000117837
0.000102882
8.9793e-05
7.82752e-05
6.79551e-05
5.87399e-05
5.03058e-05
4.26678e-05
3.55238e-05
2.9012e-05
2.27302e-05
1.70756e-05
1.15544e-05
7.06272e-06
2.50857e-06
-5.96785e-07
-4.28763e-06
-5.32594e-06
-7.40454e-06
-4.92002e-06
-4.26116e-06
0.00111705
0.0010395
0.000936814
0.000814643
0.00068375
0.000558946
0.000454084
0.000375589
0.000319266
0.000275872
0.000238467
0.000205152
0.000176369
0.000152456
0.0001326
0.000115826
0.000101198
8.83444e-05
7.68402e-05
6.66008e-05
5.72548e-05
4.88447e-05
4.0996e-05
3.3904e-05
2.70685e-05
2.09613e-05
1.49791e-05
1.01105e-05
5.18227e-06
1.73288e-06
-2.23165e-06
-3.6804e-06
-5.87786e-06
-4.15169e-06
-3.40372e-06
0.00105666
0.000992658
0.000907457
0.000805151
0.000693418
0.000582894
0.000484432
0.000405203
0.000345292
0.00029916
0.000260542
0.000226312
0.000196007
0.000170036
0.000148073
0.000129435
0.000113218
9.8995e-05
8.62765e-05
7.49738e-05
6.46769e-05
5.54489e-05
4.68613e-05
3.91424e-05
3.17292e-05
2.51192e-05
1.86607e-05
1.33657e-05
8.06328e-06
4.21201e-06
-2.16997e-08
-1.93811e-06
-4.27403e-06
-3.32155e-06
-2.628e-06
0.00100221
0.000950225
0.000879555
0.000793402
0.000697623
0.000600184
0.000509502
0.000432199
0.000370529
0.000322051
0.000282042
0.000247019
0.000215646
0.000188039
0.000164158
0.000143674
0.000125833
0.000110209
9.62542e-05
8.38585e-05
7.258e-05
6.2492e-05
5.3136e-05
4.47418e-05
3.67272e-05
2.95643e-05
2.26123e-05
1.68391e-05
1.11599e-05
6.85135e-06
2.3418e-06
-8.87845e-08
-2.60307e-06
-2.42329e-06
-1.93101e-06
0.000953428
0.000912348
0.0008538
0.000780642
0.000697852
0.000611827
0.00052923
0.000455703
0.000394196
0.000344297
0.000303002
0.000267196
0.000235041
0.000206208
0.000180692
0.000158465
0.000139004
0.000121957
0.000106752
9.32426e-05
8.09632e-05
6.99777e-05
5.98303e-05
5.07148e-05
4.20723e-05
3.43089e-05
2.68456e-05
2.05428e-05
1.44762e-05
9.66458e-06
4.85736e-06
1.87982e-06
-8.7318e-07
-1.45203e-06
-1.30288e-06
0.000910138
0.000879257
0.000830841
0.000767939
0.0006954
0.000618899
0.00054396
0.000475233
0.00041554
0.000365446
0.000323323
0.000286816
0.000254036
0.000224299
0.000197471
0.000173684
0.000152662
0.000134194
0.000117736
0.000103102
8.98149e-05
7.7903e-05
6.69455e-05
5.70712e-05
4.77716e-05
3.93605e-05
3.13687e-05
2.44918e-05
1.80122e-05
1.26638e-05
7.52349e-06
3.97843e-06
9.10255e-07
-4.06626e-07
-7.29679e-07
0.0008721
0.000851065
0.00081117
0.000756141
0.000691357
0.000622432
0.00055427
0.000490684
0.00043399
0.000384951
0.000342753
0.000305812
0.000272536
0.000242121
0.000214279
0.000189164
0.000166705
0.000146852
0.000129157
0.000113399
9.91105e-05
8.62583e-05
7.4474e-05
6.38129e-05
5.38305e-05
4.47245e-05
3.61802e-05
2.87023e-05
2.17687e-05
1.58558e-05
1.03386e-05
6.21492e-06
2.74578e-06
7.09594e-07
-1.95962e-07
0.000838763
0.000827526
0.000794925
0.000745777
0.000686548
0.000623326
0.000560825
0.000502228
0.000449223
0.000402299
0.000360912
0.000324014
0.000290448
0.000259523
0.000230909
0.000204714
0.000180992
0.000159839
0.000140945
0.000124084
0.00010881
9.50226e-05
8.24026e-05
7.0932e-05
6.02461e-05
5.04089e-05
4.12712e-05
3.3182e-05
2.57526e-05
1.9245e-05
1.32989e-05
8.59271e-06
4.63698e-06
1.8905e-06
3.12726e-07
0.000809271
0.000807947
0.000781801
0.000736996
0.000681498
0.000622303
0.000564283
0.000510209
0.000461152
0.000417098
0.000377373
0.000341141
0.000307618
0.000276369
0.000247176
0.00022013
0.000195348
0.000173026
0.000153007
0.000135084
0.000118855
0.000104156
9.07062e-05
7.8413e-05
6.69998e-05
5.64178e-05
4.66354e-05
3.79204e-05
2.9968e-05
2.28391e-05
1.63996e-05
1.11066e-05
6.59118e-06
3.13056e-06
8.08286e-07
0.00078269
0.000791339
0.000771111
0.000729589
0.000676455
0.000619911
0.000565267
0.000515087
0.000469914
0.000429156
0.000391774
0.00035686
0.000323829
0.00029251
0.000262917
0.000235218
0.000209583
0.000186257
0.000165222
0.000146308
0.000129166
0.000113598
9.93416e-05
8.62331e-05
7.40628e-05
6.27365e-05
5.22759e-05
4.29003e-05
3.43994e-05
2.66459e-05
1.96432e-05
1.37409e-05
8.61258e-06
4.42785e-06
1.301e-06
0.000758166
0.000776618
0.000761952
0.000723069
0.000671397
0.000616487
0.000564285
0.000517338
0.000475779
0.000438458
0.000403874
0.000370854
0.000338819
0.000307767
0.000277981
0.000249805
0.00022351
0.000199368
0.000177456
0.000157655
0.00013966
0.000123272
0.000108246
9.43545e-05
8.14074e-05
6.93281e-05
5.81858e-05
4.81189e-05
3.9016e-05
3.06526e-05
2.3044e-05
1.64805e-05
1.06934e-05
5.78004e-06
1.80189e-06
0.000734966
0.000762795
0.000753393
0.000716793
0.000666055
0.000612097
0.000561622
0.000517305
0.000478999
0.000445061
0.000413518
0.000382832
0.000352276
0.000321892
0.000292178
0.000263716
0.000236938
0.000212175
0.000189553
0.000169002
0.000150243
0.000133091
0.000117338
0.000102716
8.90036e-05
7.61551e-05
6.43288e-05
5.35767e-05
4.38024e-05
3.48146e-05
2.66048e-05
1.93286e-05
1.28223e-05
7.17528e-06
2.31535e-06
0.000712805
0.00074937
0.00074488
0.000710306
0.000660171
0.000606703
0.000557404
0.000515196
0.000479757
0.000449036
0.000420604
0.00039254
0.000363869
0.000334567
0.000305246
0.000276726
0.000249654
0.000224464
0.000201327
0.000180191
0.000160799
0.000142958
0.000126516
0.000111225
9.68001e-05
8.31912e-05
7.06579e-05
5.92444e-05
4.87715e-05
3.90927e-05
3.02853e-05
2.22924e-05
1.50069e-05
8.59958e-06
2.83103e-06
0.000692002
0.000736516
0.000736483
0.000703644
0.000653819
0.000600454
0.000551863
0.000511284
0.00047831
0.000450554
0.000425169
0.000399853
0.000373349
0.000345484
0.0003169
0.000288586
0.000261431
0.000236007
0.000212559
0.000191032
0.000171167
0.000152753
0.000135666
0.000119755
0.000104702
9.0393e-05
7.71355e-05
6.50562e-05
5.39175e-05
4.34982e-05
3.40298e-05
2.53439e-05
1.72746e-05
1.00579e-05
3.34573e-06
0.000672522
0.000724395
0.000728421
0.000697036
0.000647246
0.000593647
0.000545345
0.000505942
0.000475021
0.000449919
0.000427409
0.000404821
0.000380615
0.000354435
0.000326891
0.000299069
0.000272062
0.000246611
0.000223049
0.000201334
0.000181175
0.000162331
0.000144682
0.00012818
0.000112581
9.76817e-05
8.37242e-05
7.09479e-05
5.9172e-05
4.80439e-05
3.78237e-05
2.84123e-05
1.96221e-05
1.15781e-05
3.87342e-06
0.000652754
0.000712016
0.000720065
0.000690074
0.000640224
0.000586216
0.000537937
0.000499372
0.000470142
0.000447374
0.000427501
0.000407511
0.000385595
0.000361226
0.000334949
0.000307895
0.000281292
0.00025604
0.000232572
0.000210869
0.000190609
0.000171495
0.000153407
0.000136378
0.000120285
0.000104927
9.03541e-05
7.68747e-05
6.44574e-05
5.26845e-05
4.16938e-05
3.14657e-05
2.19907e-05
1.31723e-05
4.46844e-06
0.000601702
0.000677131
0.000694686
0.000668714
0.000619657
0.000565456
0.000517621
0.000481009
0.000455428
0.000437623
0.000423362
0.000408968
0.000392113
0.000371955
0.000348901
0.000324123
0.000299037
0.000274797
0.000252043
0.000230806
0.000210724
0.000191366
0.000172581
0.000154589
0.000137507
0.000121279
0.000105547
9.0549e-05
7.6662e-05
6.34588e-05
5.07826e-05
3.85895e-05
2.74249e-05
1.68849e-05
5.82012e-06
0.000529596
0.000593891
0.000608367
0.000586098
0.000545126
0.000501017
0.000463505
0.00043633
0.000418709
0.000407271
0.000398031
0.000387759
0.000374644
0.000358274
0.000339296
0.000318849
0.000298101
0.000277881
0.000258564
0.000240072
0.00022204
0.000204127
0.000186216
0.000168632
0.000151661
0.000135391
0.000119507
0.00010387
8.89167e-05
7.44352e-05
6.02799e-05
4.62944e-05
3.29513e-05
2.02555e-05
6.89028e-06
0.000447299
0.000483184
0.000487836
0.000470771
0.000443946
0.000417028
0.00039547
0.000380673
0.000371223
0.000364418
0.000357626
0.000349071
0.000338086
0.0003249
0.000310248
0.00029493
0.000279539
0.000264353
0.000249371
0.000234431
0.000219295
0.000203824
0.000188021
0.000172141
0.000156473
0.00014111
0.000125968
0.000110792
9.5798e-05
8.09436e-05
6.61637e-05
5.13799e-05
3.66879e-05
2.23791e-05
7.67527e-06
0.000368791
0.000377675
0.000374705
0.000364584
0.000352296
0.00034131
0.000333055
0.000327257
0.000322704
0.000318019
0.000312204
0.000304837
0.000296023
0.000286162
0.000275717
0.000265012
0.00025417
0.000243144
0.000231794
0.000219992
0.00020766
0.000194798
0.000181479
0.000167825
0.000154017
0.000140117
0.000126168
0.000112019
9.76914e-05
8.3207e-05
6.85336e-05
5.36885e-05
3.85791e-05
2.34235e-05
8.02089e-06
0.000304158
0.00029639
0.000290795
0.000287379
0.000285536
0.000284394
0.000283127
0.000281118
0.000278039
0.000273814
0.000268569
0.000262536
0.000255968
0.000249062
0.000241916
0.00023451
0.000226751
0.00021852
0.00020973
0.000200347
0.000190391
0.000179894
0.000168912
0.000157469
0.000145644
0.00013347
0.000120997
0.000108178
9.49719e-05
8.14146e-05
6.74793e-05
5.3191e-05
3.84492e-05
2.3323e-05
7.9002e-06
0.000257332
0.000243641
0.000237885
0.000237788
0.000240298
0.000242823
0.000243814
0.000242763
0.000239912
0.000235849
0.000231178
0.000226312
0.000221428
0.000216498
0.000211393
0.000205953
0.000200053
0.000193615
0.000186618
0.000179072
0.000171012
0.000162455
0.000153421
0.000143898
0.000133903
0.000123435
0.000112515
0.000101128
8.92553e-05
7.69162e-05
6.40884e-05
5.07663e-05
3.68894e-05
2.24651e-05
7.60118e-06
0.000223496
0.000208276
0.000202575
0.000203389
0.000206993
0.000210395
0.000211942
0.000211211
0.00020861
0.000204876
0.000200706
0.000196539
0.000192529
0.000188598
0.000184569
0.000180249
0.000175509
0.00017028
0.000164558
0.000158356
0.000151706
0.000144616
0.000137087
0.000129097
0.000120629
0.000111659
0.000102181
9.21942e-05
8.16963e-05
7.06799e-05
5.91226e-05
4.69926e-05
3.42794e-05
2.09788e-05
7.10768e-06
0.000196122
0.000180828
0.000175092
0.000175936
0.000179635
0.000183184
0.000184912
0.000184395
0.000182048
0.000178619
0.000174815
0.000171079
0.000167566
0.000164203
0.000160812
0.000157204
0.000153246
0.000148872
0.000144077
0.000138874
0.000133287
0.000127318
0.00012096
0.000114182
0.00010696
9.92685e-05
9.10953e-05
8.24289e-05
7.32532e-05
6.35445e-05
5.32867e-05
4.24632e-05
3.10763e-05
1.9085e-05
6.46825e-06
0.000170752
0.000156954
0.000151778
0.000152536
0.000155866
0.000159061
0.000160618
0.000160161
0.000158069
0.000155021
0.000151655
0.000148369
0.000145306
0.000142401
0.000139498
0.000136425
0.000133065
0.000129355
0.000125289
0.000120875
0.000116132
0.000111056
0.00010564
9.98574e-05
9.36877e-05
8.71006e-05
8.00747e-05
7.2584e-05
6.46124e-05
5.61432e-05
4.71669e-05
3.76633e-05
2.76108e-05
1.69773e-05
5.75649e-06
0.000147223
0.000135661
0.000131301
0.000131889
0.000134618
0.000137228
0.000138468
0.000138026
0.000136222
0.000133622
0.000130756
0.000127956
0.000125339
0.00012285
0.000120361
0.000117729
0.000114857
0.000111691
0.000108225
0.000104465
0.000100425
9.6103e-05
9.14899e-05
8.65601e-05
8.12896e-05
7.56479e-05
6.96144e-05
6.31673e-05
5.6294e-05
4.89753e-05
4.11943e-05
3.29268e-05
2.4158e-05
1.48705e-05
5.04765e-06
0.000126059
0.000116694
0.000113133
0.000113556
0.000115698
0.000117737
0.000118666
0.000118238
0.00011671
0.000114539
0.000112148
0.000109802
0.000107595
0.000105481
0.000103356
0.000101108
9.86572e-05
9.59613e-05
9.30139e-05
8.98187e-05
8.63854e-05
8.27097e-05
7.87823e-05
7.45803e-05
7.00828e-05
6.52634e-05
6.01035e-05
5.45815e-05
4.86822e-05
4.23858e-05
3.56775e-05
2.85391e-05
2.09579e-05
1.29128e-05
4.38482e-06
0.000107819
0.000100289
9.74042e-05
9.77036e-05
9.93717e-05
0.000100951
0.000101637
0.000101233
9.99472e-05
9.81428e-05
9.61583e-05
9.42031e-05
9.23494e-05
9.05609e-05
8.8754e-05
8.6838e-05
8.47503e-05
8.24558e-05
7.99485e-05
7.723e-05
7.43066e-05
7.11733e-05
6.78219e-05
6.42327e-05
6.03879e-05
5.62641e-05
5.18441e-05
4.71079e-05
4.20411e-05
3.66262e-05
3.08496e-05
2.46933e-05
1.81442e-05
1.11841e-05
3.79906e-06
9.31324e-05
8.69852e-05
8.46138e-05
8.48289e-05
8.61526e-05
8.7399e-05
8.79153e-05
8.75425e-05
8.64502e-05
8.49331e-05
8.32656e-05
8.16164e-05
8.00432e-05
7.85153e-05
7.69646e-05
7.5317e-05
7.35212e-05
7.15482e-05
6.93924e-05
6.7054e-05
6.45372e-05
6.1837e-05
5.89456e-05
5.58459e-05
5.25222e-05
4.89542e-05
4.51267e-05
4.10218e-05
3.66265e-05
3.19244e-05
2.69023e-05
2.15441e-05
1.5838e-05
9.76801e-06
3.32016e-06
8.26114e-05
7.73973e-05
7.53736e-05
7.55341e-05
7.66286e-05
7.76549e-05
7.80616e-05
7.77148e-05
7.67583e-05
7.54407e-05
7.3993e-05
7.2557e-05
7.11805e-05
6.98372e-05
6.84692e-05
6.70135e-05
6.54266e-05
6.36835e-05
6.1779e-05
5.97124e-05
5.74866e-05
5.50964e-05
5.25346e-05
4.97857e-05
4.68359e-05
4.36668e-05
4.02647e-05
3.66133e-05
3.27007e-05
2.85117e-05
2.40344e-05
1.92538e-05
1.41591e-05
8.73533e-06
2.96945e-06
7.69022e-05
7.22246e-05
7.03989e-05
7.05243e-05
7.14826e-05
7.23773e-05
7.27155e-05
7.23779e-05
7.14932e-05
7.02836e-05
6.89556e-05
6.76354e-05
6.63654e-05
6.51215e-05
6.38516e-05
6.24991e-05
6.10247e-05
5.94056e-05
5.76368e-05
5.57171e-05
5.36488e-05
5.14266e-05
4.90434e-05
4.64849e-05
4.3738e-05
4.07857e-05
3.76149e-05
3.42105e-05
3.05611e-05
2.66523e-05
2.24726e-05
1.80077e-05
1.3247e-05
8.1758e-06
2.78138e-06
0.000536078
0.000846023
0.000737475
0.000863009
0.000787592
0.000919813
0.000882061
0.00101835
0.00101086
0.00116261
0.00118372
0.00136161
0.0014124
0.00163052
0.00172196
0.00200924
0.00218729
0.00263321
0.00303099
0.00385673
0.000536425
0.000845519
0.000738115
0.000862449
0.000788309
0.00091898
0.000882793
0.00101703
0.00101152
0.00116023
0.0011842
0.00135705
0.00141192
0.00162253
0.00172198
0.00199384
0.00218577
0.00259029
0.00297966
0.00353707
0.000537032
0.00084448
0.000739457
0.000861214
0.000789791
0.000917163
0.000884408
0.00101422
0.0010132
0.00115546
0.00118596
0.00134841
0.00141453
0.00160615
0.00172449
0.00196244
0.00217975
0.00250861
0.0028666
0.00317359
0.000537817
0.000843529
0.00074111
0.000859866
0.000791534
0.000915076
0.000886317
0.00101088
0.00101522
0.0011496
0.00118811
0.00133771
0.0014167
0.00158629
0.00172389
0.00192655
0.00215669
0.00241331
0.00271077
0.00286961
0.000538996
0.000842785
0.000743065
0.000858466
0.0007935
0.000912729
0.000888446
0.00100692
0.00101743
0.00114249
0.00119028
0.00132486
0.00141739
0.00156437
0.00171659
0.00188869
0.00211287
0.00231184
0.0025382
0.00262341
0.000540796
0.000842114
0.000745375
0.000856835
0.000795712
0.000909853
0.000890793
0.00100199
0.00101972
0.00113383
0.00119185
0.00131016
0.00141513
0.0015423
0.00170016
0.00184907
0.00205016
0.00220639
0.00236521
0.0024105
0.000543329
0.000841317
0.000748031
0.000854771
0.000798137
0.000906211
0.000893307
0.000995932
0.00102191
0.0011238
0.00119211
0.0012953
0.00140819
0.00152086
0.00167364
0.00180616
0.00197396
0.0020973
0.00219972
0.00221789
0.000546575
0.00084019
0.000751025
0.000852117
0.000800771
0.000901675
0.000895936
0.000988818
0.00102367
0.00111307
0.00119
0.00128113
0.00139546
0.00149922
0.00163816
0.00175766
0.00189026
0.00198534
0.00204525
0.00204274
0.00055043
0.000838556
0.0007544
0.000848773
0.000803664
0.000896218
0.000898585
0.000980877
0.00102441
0.00110254
0.00118455
0.0012676
0.00137705
0.00147526
0.00159613
0.00170221
0.00180329
0.00187264
0.00190285
0.00188519
0.000554781
0.000836285
0.000758251
0.000844701
0.00080686
0.000889914
0.00090102
0.000972517
0.00102342
0.00109258
0.00117531
0.00125367
0.00135407
0.00144698
0.00154943
0.00164002
0.00171521
0.00176188
0.00177219
0.00174477
0.00055957
0.000833262
0.000762685
0.000839908
0.000810319
0.000882937
0.000902844
0.000964241
0.00102008
0.00108304
0.00116254
0.00123783
0.00132764
0.00141341
0.0014989
0.00157271
0.00162714
0.00165522
0.00165241
0.0016198
0.000564816
0.000829354
0.00076776
0.000834461
0.000813874
0.00087556
0.000903445
0.000956403
0.00101404
0.00107319
0.00114697
0.00121893
0.00129813
0.00137445
0.00144479
0.00150227
0.00153997
0.0015539
0.00154261
0.00150813
0.000570613
0.000824385
0.00077344
0.00082851
0.000817211
0.000868165
0.000902292
0.000949085
0.00100542
0.00106205
0.00112914
0.00119632
0.0012654
0.00133078
0.00138742
0.00143024
0.00145455
0.00145831
0.00144189
0.00140778
0.000577098
0.000818156
0.000779548
0.000822339
0.000819892
0.000861172
0.000898995
0.000941889
0.00099476
0.00104883
0.00110909
0.00116984
0.00122915
0.00128318
0.00132734
0.0013577
0.00137159
0.00136842
0.00134943
0.00131716
0.000584425
0.000810496
0.00078574
0.000816371
0.000821449
0.000854866
0.000893484
0.000934039
0.000982483
0.00103309
0.00108656
0.00113963
0.00118929
0.00123232
0.00126528
0.00128542
0.00129156
0.00128403
0.00126439
0.00123501
0.000592727
0.000801327
0.000791486
0.000811113
0.000821483
0.000849293
0.000886167
0.000924809
0.000968601
0.0010146
0.0010612
0.00110591
0.00114596
0.00117875
0.00120196
0.00121401
0.00121469
0.00120484
0.00118603
0.00116029
0.000602082
0.000790745
0.000796096
0.000807029
0.000819787
0.000843985
0.000877604
0.00091381
0.000952879
0.000993319
0.00103275
0.00106884
0.0010995
0.00112297
0.00113792
0.0011438
0.00114096
0.00113041
0.0011136
0.00109216
0.000612456
0.000779127
0.00079876
0.000804797
0.000816772
0.000838308
0.000868025
0.000900819
0.000934985
0.000969195
0.00100111
0.00102861
0.00105032
0.00106544
0.00107356
0.00107489
0.00107009
0.00106017
0.00104637
0.00102989
0.000623745
0.000766927
0.000798609
0.000803288
0.000813327
0.000832082
0.000857459
0.000885797
0.00091461
0.000942154
0.000966326
0.000985421
0.000998771
0.00100648
0.00100902
0.0010071
0.00100157
0.000993407
0.000983584
0.000972891
0.000635802
0.000755294
0.000794843
0.000801783
0.000809897
0.00082535
0.000845916
0.000868843
0.000891629
0.000912185
0.000928566
0.000939565
0.000945203
0.000946371
0.00094427
0.000940036
0.000934714
0.000929259
0.00092443
0.000920639
0.000648259
0.000744767
0.000787647
0.000799077
0.000806424
0.000818227
0.000833487
0.000850178
0.000866213
0.00087947
0.000888124
0.000891403
0.000889932
0.000885263
0.000879181
0.000873264
0.000868827
0.000866903
0.000868121
0.000872555
0.000660534
0.000735943
0.000777772
0.000794059
0.000802063
0.000810611
0.000820217
0.00083009
0.000838772
0.000844446
0.000845477
0.000841422
0.000833359
0.000823366
0.000813753
0.000806576
0.000803509
0.00080578
0.000814005
0.000827976
0.00067203
0.000729315
0.000766983
0.000786092
0.000795386
0.000801657
0.000805941
0.000808731
0.00080979
0.000807759
0.000801311
0.000790266
0.000776035
0.000761128
0.000748349
0.000740237
0.000738889
0.000745827
0.000761752
0.000786253
0.000682299
0.000724932
0.000756359
0.000775179
0.000785399
0.000790033
0.000789839
0.000786015
0.000779553
0.000769993
0.000756329
0.00073867
0.000718679
0.000699292
0.00068373
0.000674994
0.000675625
0.000687489
0.000711441
0.000746937
0.00069112
0.000722153
0.000746427
0.00076249
0.000771761
0.000774703
0.000770844
0.00076141
0.000748121
0.00073143
0.000711012
0.000687244
0.000662117
0.000638814
0.000620927
0.000611891
0.000614676
0.000631501
0.000663412
0.000709789
0.000698345
0.000720217
0.000737374
0.000749003
0.000755184
0.000755316
0.000748247
0.000734292
0.000715275
0.000692331
0.00066583
0.000636691
0.000607155
0.000580607
0.000560928
0.000551926
0.000556957
0.000578573
0.000618015
0.000674634
0.000703809
0.000718519
0.000728859
0.00073485
0.00073641
0.000732665
0.000722111
0.000704422
0.00068074
0.000652671
0.000621114
0.000587463
0.000554275
0.000525178
0.000504296
0.000495704
0.000503056
0.000529189
0.000575552
0.000641512
0.000707402
0.00071646
0.000720471
0.00072001
0.000716001
0.000707692
0.000693295
0.000672011
0.000644593
0.000612396
0.000576809
0.00053954
0.000503412
0.00047233
0.000450724
0.000442944
0.000452857
0.00048346
0.000536314
0.000610785
0.000709148
0.000713526
0.000711335
0.000704381
0.000694385
0.000681057
0.000662614
0.000637913
0.000607249
0.000571723
0.000532995
0.00049294
0.000454502
0.000421763
0.000399463
0.000392401
0.000404856
0.000440018
0.000499339
0.000581956
0.000708951
0.000709713
0.000701384
0.000687933
0.000671902
0.000653419
0.000630878
0.000602906
0.000569414
0.000531343
0.000490149
0.000448073
0.000408048
0.000374152
0.000351241
0.000344473
0.00035853
0.000397037
0.000461956
0.000552675
0.000702099
0.000696094
0.000675458
0.000647782
0.000618167
0.000588102
0.000556454
0.000521445
0.00048228
0.000439405
0.000394241
0.000349048
0.000306936
0.000271813
0.000248367
0.000241866
0.00025783
0.000301337
0.00037591
0.000482103
0.000647109
0.000637612
0.000614816
0.000584234
0.000549917
0.000514056
0.000477009
0.000438413
0.000398187
0.000356918
0.000315846
0.000276806
0.000242255
0.000215349
0.000199894
0.000200127
0.000220268
0.000263834
0.000332741
0.000426313
0.000570365
0.000561759
0.000543912
0.000519712
0.000491017
0.000459151
0.000424924
0.000389187
0.000353005
0.000317705
0.000284826
0.000256079
0.000233329
0.000218579
0.000213873
0.000221098
0.000241696
0.000276356
0.000324629
0.000384601
0.000487117
0.000480027
0.000466788
0.000449245
0.000428494
0.000405251
0.000380413
0.000354996
0.000330079
0.000306836
0.000286514
0.000270381
0.000259588
0.000255023
0.000257145
0.000265986
0.000281008
0.000300904
0.000323736
0.000347399
0.000406633
0.00040106
0.000391651
0.00037968
0.000366073
0.000351695
0.000337405
0.000323928
0.000311938
0.000302131
0.000295163
0.000291531
0.000291422
0.000294566
0.00030018
0.00030688
0.000312871
0.00031641
0.000316226
0.00031179
0.000335495
0.000331522
0.000325397
0.000318109
0.000310536
0.00030346
0.000297557
0.000293372
0.000291296
0.000291499
0.000293914
0.000298179
0.000303578
0.00030907
0.000313357
0.000315045
0.00031285
0.000305843
0.000293669
0.000276707
0.000277358
0.000274949
0.00027147
0.000267618
0.000264077
0.000261475
0.000260346
0.000261083
0.000263876
0.000268664
0.000275089
0.000282481
0.000289864
0.000296016
0.000299574
0.000299218
0.000293902
0.000283102
0.00026694
0.000246184
0.000230648
0.000229241
0.000227361
0.000225476
0.000224099
0.000223719
0.00022475
0.000227473
0.000231987
0.000238202
0.000245758
0.000253986
0.000261925
0.000268385
0.000272074
0.000271771
0.000266514
0.000255781
0.000239654
0.000218876
0.000192797
0.000191957
0.000190929
0.00019003
0.000189637
0.000190132
0.000191852
0.000195042
0.0001998
0.000206031
0.000213403
0.000221317
0.000228915
0.00023513
0.000238786
0.000238761
0.00023417
0.000224555
0.000210023
0.000191279
0.000161879
0.000161347
0.000160743
0.000160293
0.00016028
0.000161001
0.000162729
0.000165665
0.000169896
0.000175351
0.000181757
0.000188614
0.0001952
0.000200609
0.000203847
0.000203964
0.000200214
0.000192218
0.000180078
0.000164401
0.000136549
0.000136173
0.000135758
0.000135475
0.000135541
0.00013619
0.00013764
0.000140057
0.000143518
0.000147977
0.000153221
0.000158853
0.000164288
0.000168788
0.000171533
0.000171741
0.000168796
0.000162388
0.000152603
0.000139944
0.000116053
0.000115753
0.000115416
0.000115177
0.00011521
0.000115705
0.000116837
0.000118744
0.000121496
0.000125061
0.000129275
0.000133822
0.00013823
0.000141901
0.000144168
0.000144391
0.000142071
0.000136955
0.000129115
0.000118961
0.000100132
9.98723e-05
9.95671e-05
9.93311e-05
9.93093e-05
9.96586e-05
0.000100525
0.000102026
0.000104221
0.00010709
0.000110502
0.000114202
0.000117804
0.000120817
0.000122691
0.000122899
0.000121028
0.000116871
0.000110487
0.000102215
8.89197e-05
8.86801e-05
8.83865e-05
8.81412e-05
8.80705e-05
8.83106e-05
8.89887e-05
9.02067e-05
9.20189e-05
9.4411e-05
9.72749e-05