/*--------------------------------*- C++ -*----------------------------------*\
| =========                 |                                                 |
| \\      /  F ield         | OpenFOAM: The Open Source CFD Toolbox           |
|  \\    /   O peration     | Version:  1.4.1-dev                             |
|   \\  /    A nd           | Web:      http://www.openfoam.org               |
|    \\/     M anipulation  |                                                 |
\*---------------------------------------------------------------------------*/

FoamFile
{
    version 2.0;
    format ascii;

    root "/home/mjaworsk/OpenFOAM/mjaworsk-1.4.1-dev/run/FlatPlate-Blasius";
    case "icoHeatFoam-flatPlate2";
    instance "0.7";
    local "";

    class surfaceScalarField;
    object phi;
}

// * * * * * * * * * * * * * * * * * * * * * * * * * * * * * * * * * * * * * //

dimensions      [0 3 -1 0 0 0 0];

internalField   nonuniform List<scalar> 
4850
(
9.46194e-09
5.44579e-09
-1.49077e-08
5.66378e-09
3.79816e-09
3.85225e-09
1.81153e-09
2.99238e-09
8.59867e-10
2.52991e-09
4.6247e-10
2.24114e-09
2.88775e-10
2.03264e-09
2.08497e-10
1.86775e-09
1.64887e-10
1.73171e-09
1.36047e-10
1.61679e-09
1.14916e-10
1.51795e-09
9.88366e-11
1.43159e-09
8.63619e-11
1.35518e-09
7.64089e-11
1.28679e-09
6.83907e-11
1.22509e-09
6.17028e-11
1.16889e-09
5.62004e-11
1.11747e-09
5.1418e-11
1.06999e-09
4.74788e-11
1.02612e-09
4.38775e-11
9.85147e-10
4.09677e-11
9.47042e-10
3.81055e-11
9.11124e-10
3.59181e-11
8.77584e-10
3.35397e-11
8.45647e-10
3.19369e-11
8.15758e-10
2.98896e-11
7.8699e-10
2.87673e-11
7.60133e-10
2.68574e-11
7.33972e-10
2.61612e-11
7.09634e-10
2.43375e-11
6.85471e-10
2.41638e-11
6.63114e-10
2.23564e-11
6.40426e-10
2.26882e-11
6.1957e-10
2.08558e-11
5.98022e-10
2.1548e-11
2.17036e-11
1.62874e-08
6.12777e-09
-1.69694e-08
1.38761e-08
6.20947e-09
1.16157e-08
4.07193e-09
9.84696e-09
2.62858e-09
8.50616e-09
1.80328e-09
7.52889e-09
1.26604e-09
6.80855e-09
9.28836e-10
6.24787e-09
7.25565e-10
5.78953e-09
5.94386e-10
5.40337e-09
5.01083e-10
5.07152e-09
4.30687e-10
4.78175e-09
3.76128e-10
4.52551e-09
3.32647e-10
4.2963e-09
2.97598e-10
4.08958e-09
2.6843e-10
3.90141e-09
2.44366e-10
3.72928e-09
2.23546e-10
3.57048e-09
2.06279e-10
3.42372e-09
1.90635e-10
3.28686e-09
1.77834e-10
3.1595e-09
1.65459e-10
3.03961e-09
1.55812e-10
2.92755e-09
1.45597e-10
2.82101e-09
1.38475e-10
2.72125e-09
1.29658e-10
2.62542e-09
1.24593e-10
2.53591e-09
1.16371e-10
2.44877e-09
1.133e-10
2.36774e-09
1.0536e-10
2.28721e-09
1.04696e-10
2.21315e-09
9.64194e-11
2.13746e-09
9.83784e-11
2.06922e-09
8.90907e-11
1.9968e-09
9.39698e-11
8.98079e-11
1.91852e-08
5.39232e-09
-1.84498e-08
1.86306e-08
6.76404e-09
1.74054e-08
5.2972e-09
1.60654e-08
3.96856e-09
1.47031e-08
3.16554e-09
1.34384e-08
2.53079e-09
1.23503e-08
2.01694e-09
1.14334e-08
1.64245e-09
1.06535e-08
1.37426e-09
9.98074e-09
1.17385e-09
9.39328e-09
1.01815e-09
8.87442e-09
8.94981e-10
8.41174e-09
7.95327e-10
7.99525e-09
7.14094e-10
7.61775e-09
6.45933e-10
7.27283e-09
5.89285e-10
6.95631e-09
5.40062e-10
6.66362e-09
4.98974e-10
6.39254e-09
4.61714e-10
6.13937e-09
4.31006e-10
5.9034e-09
4.01421e-10
5.68107e-09
3.78151e-10
5.47297e-09
3.53694e-10
5.27505e-09
3.36394e-10
5.08954e-09
3.15166e-10
4.91139e-09
3.02747e-10
4.74484e-09
2.82914e-10
4.58268e-09
2.75464e-10
4.43187e-09
2.56171e-10
4.2819e-09
2.54663e-10
4.14428e-09
2.34044e-10
4.00336e-09
2.39295e-10
3.87723e-09
2.15221e-10
3.74238e-09
2.28815e-10
2.12936e-10
2.09463e-08
4.60706e-09
-2.0161e-08
2.12942e-08
6.41613e-09
2.09641e-08
5.62728e-09
2.03855e-08
4.54719e-09
1.96068e-08
3.94421e-09
1.86724e-08
3.46517e-09
1.76956e-08
2.99373e-09
1.67489e-08
2.58922e-09
1.58574e-08
2.26573e-09
1.50291e-08
2.00218e-09
1.42659e-08
1.7813e-09
1.35653e-08
1.59564e-09
1.29224e-08
1.43817e-09
1.23311e-08
1.30541e-09
1.17861e-08
1.19091e-09
1.12815e-08
1.09388e-09
1.08135e-08
1.00804e-09
1.0377e-08
9.3552e-10
9.96981e-09
8.68896e-10
9.58723e-09
8.13586e-10
9.22888e-09
7.59778e-10
8.88975e-09
7.17282e-10
8.57119e-09
6.72251e-10
8.26727e-09
6.40312e-10
7.98169e-09
6.00743e-10
7.70685e-09
5.77595e-10
7.44943e-09
5.4033e-10
7.19836e-09
5.26536e-10
6.96455e-09
4.89978e-10
6.73181e-09
4.874e-10
6.51816e-09
4.47703e-10
6.29934e-09
4.58107e-10
6.10367e-09
4.10895e-10
5.89467e-09
4.37813e-10
4.0146e-10
2.26276e-08
4.03622e-09
-2.20568e-08
2.3225e-08
5.8187e-09
2.33156e-08
5.53676e-09
2.32069e-08
4.65584e-09
2.29647e-08
4.1864e-09
2.25346e-08
3.89525e-09
2.19583e-08
3.57011e-09
2.13007e-08
3.24682e-09
2.05983e-08
2.96808e-09
1.98723e-08
2.72821e-09
1.91412e-08
2.51237e-09
1.84195e-08
2.3173e-09
1.7718e-08
2.13968e-09
1.70421e-08
1.98134e-09
1.63958e-08
1.8372e-09
1.57792e-08
1.71049e-09
1.51935e-08
1.59376e-09
1.4636e-08
1.49299e-09
1.41075e-08
1.39737e-09
1.3604e-08
1.31717e-09
1.31269e-08
1.23686e-09
1.26708e-08
1.17341e-09
1.22388e-08
1.10419e-09
1.18236e-08
1.05555e-09
1.14311e-08
9.93204e-10
1.10512e-08
9.57481e-10
1.06939e-08
8.97637e-10
1.0344e-08
8.7652e-10
1.0017e-08
8.16944e-10
9.69057e-09
8.13817e-10
9.39011e-09
7.48163e-10
9.08212e-09
7.66097e-10
8.80597e-09
6.87045e-10
8.5118e-09
7.31981e-10
6.65525e-10
2.44709e-08
3.64278e-09
-2.40774e-08
2.50856e-08
5.20394e-09
2.53255e-08
5.29692e-09
2.53829e-08
4.59844e-09
2.54042e-08
4.16511e-09
2.53173e-08
3.98216e-09
2.50981e-08
3.7893e-09
2.47801e-08
3.56476e-09
2.43876e-08
3.36065e-09
2.39292e-08
3.18655e-09
2.34153e-08
3.02626e-09
2.28578e-08
2.8748e-09
2.22703e-08
2.72716e-09
2.16633e-08
2.58843e-09
2.10475e-08
2.45294e-09
2.04294e-08
2.32862e-09
1.98169e-08
2.20621e-09
1.92123e-08
2.09762e-09
1.86217e-08
1.98794e-09
1.80439e-08
1.89504e-09
1.74846e-08
1.79615e-09
1.69393e-08
1.71872e-09
1.64149e-08
1.6286e-09
1.59032e-08
1.5672e-09
1.54141e-08
1.4823e-09
1.49353e-08
1.43633e-09
1.44811e-08
1.35177e-09
1.40325e-08
1.32514e-09
1.36108e-08
1.23868e-09
1.31871e-08
1.23744e-09
1.2795e-08
1.14034e-09
1.23917e-08
1.16938e-09
1.20279e-08
1.05088e-09
1.16411e-08
1.11871e-09
1.01298e-09
2.64898e-08
3.36334e-09
-2.62104e-08
2.7057e-08
4.6368e-09
2.73643e-08
4.9896e-09
2.74635e-08
4.49918e-09
2.75576e-08
4.07106e-09
2.76196e-08
3.92012e-09
2.7597e-08
3.8119e-09
2.74997e-08
3.6621e-09
2.73468e-08
3.51354e-09
2.71391e-08
3.39426e-09
2.68745e-08
3.29089e-09
2.65529e-08
3.19638e-09
2.61798e-08
3.10023e-09
2.57593e-08
3.00894e-09
2.52996e-08
2.91265e-09
2.48052e-08
2.82303e-09
2.42856e-08
2.72577e-09
2.37441e-08
2.63914e-09
2.31906e-08
2.54139e-09
2.26257e-08
2.45991e-09
2.206e-08
2.36188e-09
2.14901e-08
2.28859e-09
2.09279e-08
2.19081e-09
2.03653e-08
2.12979e-09
1.98172e-08
2.03048e-09
1.92697e-08
1.98381e-09
1.8743e-08
1.87848e-09
1.82148e-08
1.85332e-09
1.77129e-08
1.74057e-09
1.72031e-08
1.74723e-09
1.67265e-08
1.61699e-09
1.62328e-08
1.663e-09
1.57827e-08
1.50105e-09
1.53044e-08
1.59701e-09
1.44583e-09
2.86831e-08
3.14723e-09
-2.8467e-08
2.91745e-08
4.1454e-09
2.95247e-08
4.63941e-09
2.96515e-08
4.37239e-09
2.97492e-08
3.97335e-09
2.98542e-08
3.81508e-09
2.99133e-08
3.75286e-09
2.99174e-08
3.65798e-09
2.98871e-08
3.54382e-09
2.98272e-08
3.45411e-09
2.97336e-08
3.38457e-09
2.95991e-08
3.33089e-09
2.94229e-08
3.27643e-09
2.92015e-08
3.23033e-09
2.89373e-08
3.17685e-09
2.86279e-08
3.13242e-09
2.8279e-08
3.07471e-09
2.78888e-08
3.02932e-09
2.74663e-08
2.96388e-09
2.70093e-08
2.91695e-09
2.65297e-08
2.84144e-09
2.60231e-08
2.79521e-09
2.55046e-08
2.7093e-09
2.49653e-08
2.66907e-09
2.44245e-08
2.57127e-09
2.38672e-08
2.5411e-09
2.3319e-08
2.42671e-09
2.27557e-08
2.41662e-09
2.22112e-08
2.28503e-09
2.16481e-08
2.31034e-09
2.11133e-08
2.15182e-09
2.05524e-08
2.22385e-09
2.0032e-08
2.02149e-09
1.94778e-08
2.1512e-09
1.95526e-09
3.10605e-08
2.96083e-09
-3.08741e-08
3.14668e-08
3.73911e-09
3.18337e-08
4.27252e-09
3.19981e-08
4.20793e-09
3.20906e-08
3.88085e-09
3.21995e-08
3.70619e-09
3.22903e-08
3.66212e-09
3.23366e-08
3.61169e-09
3.23548e-08
3.52561e-09
3.23574e-08
3.45147e-09
3.23461e-08
3.3959e-09
3.23135e-08
3.36348e-09
3.22583e-08
3.33158e-09
3.21745e-08
3.31419e-09
3.20624e-08
3.2889e-09
3.1915e-08
3.27985e-09
3.17346e-08
3.25511e-09
3.15137e-08
3.25024e-09
3.1258e-08
3.21955e-09
3.09596e-08
3.21534e-09
3.06286e-08
3.1724e-09
3.02559e-08
3.16797e-09
2.98564e-08
3.10874e-09
2.9418e-08
3.10752e-09
2.89613e-08
3.02794e-09
2.84689e-08
3.03349e-09
2.79692e-08
2.92645e-09
2.74368e-08
2.94899e-09
2.69093e-08
2.81256e-09
2.63489e-08
2.87073e-09
2.58042e-08
2.69657e-09
2.52219e-08
2.80607e-09
2.46668e-08
2.57662e-09
2.40725e-08
2.74552e-09
2.51649e-09
3.36396e-08
2.78879e-09
-3.34676e-08
3.3969e-08
3.40973e-09
3.43242e-08
3.91731e-09
3.45267e-08
4.00543e-09
3.46234e-08
3.78414e-09
3.47241e-08
3.60556e-09
3.48265e-08
3.55965e-09
3.48952e-08
3.54306e-09
3.4934e-08
3.48673e-09
3.49585e-08
3.42702e-09
3.49777e-08
3.37669e-09
3.49868e-08
3.3544e-09
3.49865e-08
3.3318e-09
3.49713e-08
3.32948e-09
3.49434e-08
3.31671e-09
3.48951e-08
3.32817e-09
3.48292e-08
3.32103e-09
3.47353e-08
3.34411e-09
3.46183e-08
3.33659e-09
3.44659e-08
3.36777e-09
3.42862e-08
3.35204e-09
3.40653e-08
3.3889e-09
3.38161e-08
3.35795e-09
3.35218e-08
3.40178e-09
3.32014e-08
3.34839e-09
3.28339e-08
3.40099e-09
3.24459e-08
3.31449e-09
3.20114e-08
3.38344e-09
3.1566e-08
3.258e-09
3.10756e-08
3.36113e-09
3.05828e-08
3.1893e-09
3.0043e-08
3.34587e-09
2.95067e-08
3.11295e-09
2.89277e-08
3.3245e-09
3.08674e-09
3.64439e-08
2.62813e-09
-3.62832e-08
3.67134e-08
3.14017e-09
3.70366e-08
3.59416e-09
3.72645e-08
3.77752e-09
3.73773e-08
3.67134e-09
3.74687e-08
3.51412e-09
3.75714e-08
3.457e-09
3.76541e-08
3.46034e-09
3.7707e-08
3.43385e-09
3.77406e-08
3.39336e-09
3.77699e-08
3.3474e-09
3.77931e-08
3.33119e-09
3.78129e-08
3.31201e-09
3.7824e-08
3.31843e-09
3.78313e-08
3.30942e-09
3.78279e-08
3.33154e-09
3.7819e-08
3.32989e-09
3.77947e-08
3.36845e-09
3.77609e-08
3.37041e-09
3.77046e-08
3.42399e-09
3.7634e-08
3.42274e-09
3.75331e-08
3.48978e-09
3.74131e-08
3.47792e-09
3.72554e-08
3.55949e-09
3.70751e-08
3.52871e-09
3.68501e-08
3.62595e-09
3.66008e-08
3.56381e-09
3.63031e-08
3.68112e-09
3.59834e-08
3.57773e-09
3.56162e-08
3.7283e-09
3.52295e-08
3.57599e-09
3.4795e-08
3.7804e-09
3.43356e-08
3.5723e-09
3.38352e-08
3.82494e-09
3.61133e-09
3.94983e-08
2.48002e-09
-3.93502e-08
3.97247e-08
2.91375e-09
4.00079e-08
3.31104e-09
4.02439e-08
3.54152e-09
4.03788e-08
3.53641e-09
4.04669e-08
3.42598e-09
4.0563e-08
3.36095e-09
4.06526e-08
3.37072e-09
4.07176e-08
3.36888e-09
4.07586e-08
3.35235e-09
4.0792e-08
3.31395e-09
4.08199e-08
3.30334e-09
4.08463e-08
3.28557e-09
4.08661e-08
3.29868e-09
4.08849e-08
3.29062e-09
4.08971e-08
3.31927e-09
4.09094e-08
3.31763e-09
4.09135e-08
3.36433e-09
4.09165e-08
3.36745e-09
4.09075e-08
3.43297e-09
4.08945e-08
3.43574e-09
4.0864e-08
3.52025e-09
4.08255e-08
3.51649e-09
4.07628e-08
3.62217e-09
4.06867e-08
3.60475e-09
4.05791e-08
3.73355e-09
4.04514e-08
3.69156e-09
4.02864e-08
3.84608e-09
4.0096e-08
3.76821e-09
3.98685e-08
3.95577e-09
3.96105e-08
3.83395e-09
3.93171e-08
4.07379e-09
3.89759e-08
3.91349e-09
3.86025e-08
4.19839e-09
4.03965e-09
4.28252e-08
2.34507e-09
-4.26903e-08
4.30204e-08
2.71856e-09
4.32653e-08
3.06616e-09
4.34949e-08
3.31194e-09
4.365e-08
3.38133e-09
4.37436e-08
3.33229e-09
4.38324e-08
3.27221e-09
4.39226e-08
3.28049e-09
4.39971e-08
3.29442e-09
4.40466e-08
3.30287e-09
4.40837e-08
3.27684e-09
4.41137e-08
3.27326e-09
4.41426e-08
3.25675e-09
4.41656e-08
3.2756e-09
4.41877e-08
3.2686e-09
4.42045e-08
3.30242e-09
4.42221e-08
3.3e-09
4.4235e-08
3.35144e-09
4.42492e-08
3.35327e-09
4.42576e-08
3.42462e-09
4.42664e-08
3.42696e-09
4.4267e-08
3.51965e-09
4.42658e-08
3.51767e-09
4.42531e-08
3.63481e-09
4.42344e-08
3.62352e-09
4.42e-08
3.76795e-09
4.41513e-08
3.74021e-09
4.40834e-08
3.91401e-09
4.39914e-08
3.86017e-09
4.38813e-08
4.0659e-09
4.37371e-08
3.97809e-09
4.35793e-08
4.2316e-09
4.33641e-08
4.12873e-09
4.31312e-08
4.43125e-09
4.34443e-09
4.64432e-08
2.22255e-09
-4.63207e-08
4.66145e-08
2.54726e-09
4.68272e-08
2.85345e-09
4.7042e-08
3.09715e-09
4.72094e-08
3.21398e-09
4.7316e-08
3.22571e-09
4.74018e-08
3.18638e-09
4.74891e-08
3.19315e-09
4.75694e-08
3.2141e-09
4.76284e-08
3.24392e-09
4.76709e-08
3.23435e-09
4.77038e-08
3.24038e-09
4.7734e-08
3.22647e-09
4.77596e-08
3.25008e-09
4.77829e-08
3.24529e-09
4.78018e-08
3.28353e-09
4.78199e-08
3.28182e-09
4.78351e-08
3.33624e-09
4.78507e-08
3.33776e-09
4.78637e-08
3.41157e-09
4.7877e-08
3.41364e-09
4.78878e-08
3.50889e-09
4.78978e-08
3.50769e-09
4.7905e-08
3.62758e-09
4.79083e-08
3.62021e-09
4.79088e-08
3.7675e-09
4.78979e-08
3.75102e-09
4.78844e-08
3.92756e-09
4.78494e-08
3.89522e-09
4.78144e-08
4.1008e-09
4.7747e-08
4.04553e-09
4.7687e-08
4.29157e-09
4.75739e-08
4.24189e-09
4.74586e-08
4.54654e-09
4.53106e-09
5.03701e-08
2.11126e-09
-5.02588e-08
5.0522e-08
2.39539e-09
5.07088e-08
2.66664e-09
5.09059e-08
2.90001e-09
5.10769e-08
3.04305e-09
5.11982e-08
3.10432e-09
5.12876e-08
3.09707e-09
5.13722e-08
3.10852e-09
5.14549e-08
3.13142e-09
5.15227e-08
3.17608e-09
5.15727e-08
3.18432e-09
5.16104e-08
3.20272e-09
5.16428e-08
3.19408e-09
5.16713e-08
3.2216e-09
5.16962e-08
3.22036e-09
5.17175e-08
3.26221e-09
5.17359e-08
3.2634e-09
5.17526e-08
3.31962e-09
5.17673e-08
3.32302e-09
5.17816e-08
3.39725e-09
5.17942e-08
3.4011e-09
5.18073e-08
3.49571e-09
5.1818e-08
3.49705e-09
5.18309e-08
3.61464e-09
5.18387e-08
3.61241e-09
5.18514e-08
3.7548e-09
5.1853e-08
3.74947e-09
5.18622e-08
3.9183e-09
5.1852e-08
3.90549e-09
5.18533e-08
4.09944e-09
5.18257e-08
4.07316e-09
5.1818e-08
4.2993e-09
5.17688e-08
4.2911e-09
5.17292e-08
4.5861e-09
4.62939e-09
5.46264e-08
2.01011e-09
-5.45252e-08
5.47618e-08
2.25992e-09
5.49275e-08
2.50096e-09
5.51073e-08
2.7202e-09
5.52753e-08
2.87513e-09
5.54082e-08
2.9714e-09
5.5506e-08
2.99923e-09
5.55908e-08
3.0237e-09
5.56738e-08
3.0485e-09
5.57484e-08
3.10148e-09
5.58069e-08
3.12572e-09
5.58517e-08
3.15801e-09
5.58877e-08
3.15805e-09
5.59199e-08
3.18938e-09
5.59474e-08
3.19286e-09
5.59722e-08
3.23745e-09
5.59921e-08
3.24348e-09
5.60109e-08
3.3008e-09
5.60258e-08
3.30817e-09
5.60413e-08
3.3817e-09
5.6053e-08
3.38939e-09
5.6067e-08
3.4817e-09
5.60764e-08
3.48771e-09
5.60905e-08
3.60053e-09
5.60975e-08
3.60539e-09
5.61129e-08
3.73938e-09
5.61165e-08
3.74586e-09
5.61321e-08
3.90272e-09
5.61299e-08
3.90771e-09
5.61433e-08
4.08602e-09
5.61317e-08
4.08476e-09
5.61427e-08
4.28826e-09
5.61238e-08
4.31003e-09
5.61212e-08
4.5887e-09
4.67533e-09
5.92365e-08
1.91828e-09
-5.91447e-08
5.93579e-08
2.13853e-09
5.95059e-08
2.35292e-09
5.96699e-08
2.55625e-09
5.98309e-08
2.7141e-09
5.99699e-08
2.83241e-09
6.0078e-08
2.8912e-09
6.01667e-08
2.93498e-09
6.02497e-08
2.96547e-09
6.03285e-08
3.02264e-09
6.0395e-08
3.05929e-09
6.04481e-08
3.10484e-09
6.04896e-08
3.11656e-09
6.05265e-08
3.15255e-09
6.05575e-08
3.16183e-09
6.05864e-08
3.20855e-09
6.06092e-08
3.22065e-09
6.06312e-08
3.27885e-09
6.06477e-08
3.29168e-09
6.06653e-08
3.36411e-09
6.06775e-08
3.3771e-09
6.06928e-08
3.46641e-09
6.07019e-08
3.47866e-09
6.07167e-08
3.58573e-09
6.0723e-08
3.59906e-09
6.07387e-08
3.72375e-09
6.07423e-08
3.74221e-09
6.07583e-08
3.88668e-09
6.07584e-08
3.90766e-09
6.07736e-08
4.07083e-09
6.07673e-08
4.09108e-09
6.07808e-08
4.27468e-09
6.07718e-08
4.31906e-09
6.07819e-08
4.57866e-09
4.69618e-09
6.42288e-08
1.83499e-09
-6.41456e-08
6.43381e-08
2.02924e-09
6.44713e-08
2.21976e-09
6.4621e-08
2.40651e-09
6.47733e-08
2.56179e-09
6.49135e-08
2.69221e-09
6.503e-08
2.77478e-09
6.51253e-08
2.83958e-09
6.521e-08
2.88082e-09
6.52913e-08
2.9413e-09
6.53638e-08
2.98679e-09
6.54255e-08
3.04319e-09
6.5474e-08
3.06806e-09
6.55163e-08
3.11019e-09
6.55517e-08
3.12649e-09
6.55851e-08
3.17513e-09
6.56119e-08
3.19388e-09
6.56377e-08
3.25302e-09
6.56571e-08
3.2723e-09
6.56775e-08
3.34365e-09
6.56917e-08
3.36294e-09
6.57091e-08
3.44901e-09
6.57192e-08
3.46853e-09
6.57354e-08
3.56958e-09
6.57423e-08
3.59211e-09
6.57583e-08
3.70775e-09
6.57627e-08
3.73788e-09
6.57783e-08
3.871e-09
6.57797e-08
3.90631e-09
6.57941e-08
4.05639e-09
6.57899e-08
4.09527e-09
6.58016e-08
4.26303e-09
6.57942e-08
4.32643e-09
6.58061e-08
4.56683e-09
4.70674e-09
6.96346e-08
1.75914e-09
-6.95588e-08
6.97337e-08
1.93014e-09
6.98543e-08
2.09918e-09
6.99914e-08
2.26935e-09
7.01345e-08
2.41876e-09
7.02725e-08
2.55423e-09
7.03939e-08
2.65333e-09
7.04967e-08
2.73679e-09
7.05851e-08
2.79241e-09
7.06686e-08
2.85777e-09
7.07454e-08
2.91002e-09
7.08144e-08
2.9742e-09
7.08706e-08
3.01183e-09
7.09195e-08
3.06135e-09
7.09599e-08
3.08607e-09
7.09981e-08
3.1369e-09
7.10294e-08
3.16262e-09
7.10596e-08
3.22277e-09
7.10827e-08
3.24919e-09
7.11067e-08
3.31964e-09
7.11236e-08
3.34604e-09
7.11439e-08
3.42877e-09
7.11561e-08
3.45633e-09
7.11743e-08
3.55137e-09
7.1183e-08
3.58344e-09
7.12e-08
3.69067e-09
7.1206e-08
3.73197e-09
7.12218e-08
3.85512e-09
7.12249e-08
3.90327e-09
7.12388e-08
4.0425e-09
7.12365e-08
4.09755e-09
7.12463e-08
4.25318e-09
7.12393e-08
4.33348e-09
7.12496e-08
4.55648e-09
4.71291e-09
7.54875e-08
1.68904e-09
-7.54174e-08
7.55784e-08
1.83929e-09
7.56884e-08
1.98913e-09
7.58146e-08
2.14316e-09
7.59485e-08
2.28486e-09
7.60822e-08
2.42053e-09
7.62055e-08
2.53005e-09
7.63145e-08
2.62782e-09
7.64082e-08
2.69865e-09
7.64948e-08
2.77126e-09
7.65748e-08
2.82997e-09
7.66496e-08
2.89941e-09
7.67133e-08
2.94814e-09
7.67693e-08
3.0053e-09
7.68157e-08
3.03973e-09
7.68591e-08
3.09347e-09
7.68952e-08
3.12649e-09
7.69303e-08
3.18772e-09
7.69577e-08
3.22177e-09
7.69858e-08
3.29153e-09
7.70062e-08
3.32572e-09
7.70297e-08
3.40523e-09
7.70447e-08
3.44129e-09
7.70655e-08
3.53065e-09
7.70767e-08
3.57224e-09
7.70953e-08
3.67198e-09
7.71036e-08
3.7237e-09
7.71202e-08
3.8385e-09
7.71256e-08
3.89796e-09
7.71394e-08
4.02866e-09
7.71395e-08
4.09742e-09
7.71484e-08
4.24427e-09
7.71427e-08
4.3392e-09
7.71513e-08
4.54793e-09
4.71645e-09
8.1824e-08
1.62233e-09
-8.17573e-08
8.19086e-08
1.75469e-09
8.201e-08
1.88772e-09
8.21267e-08
2.02647e-09
8.2252e-08
2.15955e-09
8.23803e-08
2.29216e-09
8.25031e-08
2.40733e-09
8.26161e-08
2.51479e-09
8.27155e-08
2.59922e-09
8.28062e-08
2.68053e-09
8.28896e-08
2.74666e-09
8.29689e-08
2.82003e-09
8.30392e-08
2.87788e-09
8.31026e-08
2.9419e-09
8.31556e-08
2.98669e-09
8.32048e-08
3.04431e-09
8.32462e-08
3.08507e-09
8.32863e-08
3.1476e-09
8.33186e-08
3.18949e-09
8.33512e-08
3.25893e-09
8.33757e-08
3.30126e-09
8.34028e-08
3.37809e-09
8.34214e-08
3.42265e-09
8.34449e-08
3.50716e-09
8.34594e-08
3.55779e-09
8.34799e-08
3.65144e-09
8.34912e-08
3.71239e-09
8.35089e-08
3.82084e-09
8.3517e-08
3.88982e-09
8.35312e-08
4.01452e-09
8.35343e-08
4.09435e-09
8.35428e-08
4.23568e-09
8.35396e-08
4.34249e-09
8.35469e-08
4.54063e-09
4.71775e-09
8.86828e-08
1.55647e-09
-8.86169e-08
8.87631e-08
1.67432e-09
8.88578e-08
1.79309e-09
8.89662e-08
1.91804e-09
8.90837e-08
2.04203e-09
8.92064e-08
2.16954e-09
8.9327e-08
2.28673e-09
8.9442e-08
2.39975e-09
8.95463e-08
2.49493e-09
8.9642e-08
2.58482e-09
8.97293e-08
2.65938e-09
8.98126e-08
2.73665e-09
8.98885e-08
2.80198e-09
8.99588e-08
2.87167e-09
9.0019e-08
2.92644e-09
9.00745e-08
2.98887e-09
9.01217e-08
3.03779e-09
9.01671e-08
3.1022e-09
9.02048e-08
3.15182e-09
9.02422e-08
3.22157e-09
9.02715e-08
3.2719e-09
9.03026e-08
3.34705e-09
9.03255e-08
3.39967e-09
9.0352e-08
3.48067e-09
9.03705e-08
3.53935e-09
9.0393e-08
3.62886e-09
9.0408e-08
3.69742e-09
9.0427e-08
3.80184e-09
9.04384e-08
3.87842e-09
9.04531e-08
3.9998e-09
9.04595e-08
4.08797e-09
9.04683e-08
4.2269e-09
9.0468e-08
4.34274e-09
9.04749e-08
4.53376e-09
4.71681e-09
9.61059e-08
1.48957e-09
-9.6039e-08
9.6184e-08
1.5962e-09
9.62736e-08
1.70347e-09
9.63751e-08
1.81652e-09
9.64857e-08
1.93149e-09
9.66026e-08
2.05265e-09
9.67202e-08
2.16912e-09
9.68355e-08
2.2844e-09
9.69434e-08
2.38707e-09
9.7044e-08
2.48425e-09
9.7136e-08
2.56739e-09
9.72234e-08
2.64921e-09
9.73043e-08
2.72107e-09
9.73806e-08
2.7954e-09
9.7448e-08
2.85898e-09
9.75102e-08
2.92676e-09
9.7564e-08
2.984e-09
9.76149e-08
3.05123e-09
9.76585e-08
3.10823e-09
9.77009e-08
3.17921e-09
9.77358e-08
3.23694e-09
9.77711e-08
3.31176e-09
9.77992e-08
3.37162e-09
9.78289e-08
3.45089e-09
9.7852e-08
3.51627e-09
9.7877e-08
3.60388e-09
9.7896e-08
3.6784e-09
9.79169e-08
3.78101e-09
9.79318e-08
3.86343e-09
9.79476e-08
3.98405e-09
9.79575e-08
4.07812e-09
9.79671e-08
4.21722e-09
9.79701e-08
4.3398e-09
9.79774e-08
4.52639e-09
4.71348e-09
1.04139e-07
1.42064e-09
-1.0407e-07
1.04216e-07
1.51893e-09
1.04303e-07
1.61728e-09
1.04399e-07
1.72049e-09
1.04503e-07
1.82703e-09
1.04615e-07
1.94117e-09
1.04729e-07
2.05493e-09
1.04843e-07
2.16992e-09
1.04953e-07
2.277e-09
1.05058e-07
2.37956e-09
1.05155e-07
2.47038e-09
1.05247e-07
2.55736e-09
1.05333e-07
2.63533e-09
1.05414e-07
2.71378e-09
1.05488e-07
2.78471e-09
1.05557e-07
2.8579e-09
1.05618e-07
2.92317e-09
1.05675e-07
2.99434e-09
1.05725e-07
3.05824e-09
1.05773e-07
3.13154e-09
1.05814e-07
3.19581e-09
1.05854e-07
3.27177e-09
1.05888e-07
3.33789e-09
1.05921e-07
3.41736e-09
1.05949e-07
3.48812e-09
1.05977e-07
3.57582e-09
1.06001e-07
3.65508e-09
1.06024e-07
3.75776e-09
1.06043e-07
3.84455e-09
1.0606e-07
3.96659e-09
1.06073e-07
4.06481e-09
1.06085e-07
4.20581e-09
1.06091e-07
4.33361e-09
1.061e-07
4.51757e-09
4.70744e-09
1.12832e-07
1.34959e-09
-1.12761e-07
1.12909e-07
1.44187e-09
1.12994e-07
1.53324e-09
1.13086e-07
1.62848e-09
1.13185e-07
1.7276e-09
1.13292e-07
1.83461e-09
1.13402e-07
1.94426e-09
1.13515e-07
2.05712e-09
1.13626e-07
2.16596e-09
1.13734e-07
2.27185e-09
1.13835e-07
2.36871e-09
1.13932e-07
2.46082e-09
1.14023e-07
2.54464e-09
1.14109e-07
2.62723e-09
1.1419e-07
2.70417e-09
1.14265e-07
2.78254e-09
1.14333e-07
2.85506e-09
1.14396e-07
2.93111e-09
1.14453e-07
3.00144e-09
1.14507e-07
3.07817e-09
1.14554e-07
3.14819e-09
1.14599e-07
3.22649e-09
1.14639e-07
3.29804e-09
1.14677e-07
3.37939e-09
1.14711e-07
3.4547e-09
1.14743e-07
3.54389e-09
1.14771e-07
3.62714e-09
1.14797e-07
3.73146e-09
1.1482e-07
3.82163e-09
1.1484e-07
3.9465e-09
1.14857e-07
4.0481e-09
1.14871e-07
4.19184e-09
1.1488e-07
4.324e-09
1.14891e-07
4.50645e-09
4.69822e-09
1.2224e-07
1.27725e-09
-1.22168e-07
1.22317e-07
1.36476e-09
1.224e-07
1.45041e-09
1.2249e-07
1.53918e-09
1.22585e-07
1.63194e-09
1.22688e-07
1.73228e-09
1.22795e-07
1.83704e-09
1.22905e-07
1.94651e-09
1.23016e-07
2.05498e-09
1.23126e-07
2.16229e-09
1.23231e-07
2.2632e-09
1.23332e-07
2.3598e-09
1.23428e-07
2.44892e-09
1.2352e-07
2.53585e-09
1.23606e-07
2.61786e-09
1.23687e-07
2.70108e-09
1.23763e-07
2.77986e-09
1.23832e-07
2.86124e-09
1.23896e-07
2.93761e-09
1.23956e-07
3.01857e-09
1.2401e-07
3.09389e-09
1.24061e-07
3.17538e-09
1.24108e-07
3.25177e-09
1.24151e-07
3.33622e-09
1.2419e-07
3.41582e-09
1.24226e-07
3.50745e-09
1.24259e-07
3.59422e-09
1.24289e-07
3.7014e-09
1.24316e-07
3.79467e-09
1.2434e-07
3.92278e-09
1.2436e-07
4.02781e-09
1.24377e-07
4.17471e-09
1.2439e-07
4.3106e-09
1.24405e-07
4.49227e-09
4.68524e-09
1.32421e-07
1.20517e-09
-1.32349e-07
1.32499e-07
1.28715e-09
1.32581e-07
1.368e-09
1.32669e-07
1.45141e-09
1.32762e-07
1.53869e-09
1.32861e-07
1.63316e-09
1.32965e-07
1.73292e-09
1.33074e-07
1.83834e-09
1.33184e-07
1.94487e-09
1.33294e-07
2.05197e-09
1.33402e-07
2.15496e-09
1.33507e-07
2.25487e-09
1.33608e-07
2.34843e-09
1.33704e-07
2.43964e-09
1.33795e-07
2.52624e-09
1.33883e-07
2.61389e-09
1.33964e-07
2.69805e-09
1.34041e-07
2.78465e-09
1.34112e-07
2.8667e-09
1.34178e-07
2.95236e-09
1.34239e-07
3.03268e-09
1.34297e-07
3.11809e-09
1.3435e-07
3.19886e-09
1.34399e-07
3.28723e-09
1.34443e-07
3.37117e-09
1.34485e-07
3.466e-09
1.34523e-07
3.55598e-09
1.34558e-07
3.66672e-09
1.34589e-07
3.76359e-09
1.34617e-07
3.89482e-09
1.34641e-07
4.00333e-09
1.34662e-07
4.15402e-09
1.34679e-07
4.293e-09
1.34698e-07
4.47417e-09
4.668e-09
1.43437e-07
1.1345e-09
-1.43366e-07
1.43515e-07
1.20901e-09
1.43598e-07
1.2851e-09
1.43685e-07
1.3638e-09
1.43778e-07
1.44641e-09
1.43875e-07
1.53594e-09
1.43977e-07
1.63108e-09
1.44083e-07
1.73233e-09
1.44192e-07
1.83603e-09
1.44302e-07
1.94164e-09
1.44412e-07
2.04507e-09
1.4452e-07
2.14685e-09
1.44625e-07
2.24377e-09
1.44725e-07
2.33879e-09
1.44822e-07
2.4296e-09
1.44915e-07
2.52138e-09
1.45002e-07
2.61012e-09
1.45085e-07
2.70162e-09
1.45163e-07
2.78872e-09
1.45236e-07
2.87941e-09
1.45305e-07
2.96437e-09
1.45369e-07
3.05431e-09
1.45428e-07
3.1392e-09
1.45483e-07
3.23194e-09
1.45534e-07
3.32036e-09
1.45581e-07
3.41907e-09
1.45625e-07
3.51222e-09
1.45665e-07
3.62675e-09
1.45701e-07
3.72786e-09
1.45733e-07
3.86237e-09
1.45762e-07
3.97399e-09
1.45787e-07
4.12912e-09
1.45809e-07
4.27088e-09
1.45832e-07
4.45133e-09
4.64594e-09
1.55356e-07
1.06478e-09
-1.55287e-07
1.55434e-07
1.13128e-09
1.55518e-07
1.20142e-09
1.55606e-07
1.27541e-09
1.55699e-07
1.35396e-09
1.55795e-07
1.43926e-09
1.55896e-07
1.53038e-09
1.56001e-07
1.62773e-09
1.56108e-07
1.72835e-09
1.56218e-07
1.83163e-09
1.56329e-07
1.93431e-09
1.56439e-07
2.03661e-09
1.56548e-07
2.1357e-09
1.56653e-07
2.23375e-09
1.56754e-07
2.32824e-09
1.56851e-07
2.42384e-09
1.56945e-07
2.51651e-09
1.57034e-07
2.61248e-09
1.57119e-07
2.70399e-09
1.57199e-07
2.79965e-09
1.57274e-07
2.88901e-09
1.57345e-07
2.98373e-09
1.57411e-07
3.07279e-09
1.57473e-07
3.17007e-09
1.5753e-07
3.26301e-09
1.57583e-07
3.36613e-09
1.57633e-07
3.46274e-09
1.57678e-07
3.58104e-09
1.57719e-07
3.68688e-09
1.57757e-07
3.82494e-09
1.57791e-07
3.93968e-09
1.57821e-07
4.09903e-09
1.57848e-07
4.24378e-09
1.57876e-07
4.42338e-09
4.61804e-09
1.68259e-07
9.9314e-10
-1.68187e-07
1.68334e-07
1.05605e-09
1.68417e-07
1.11884e-09
1.68505e-07
1.18685e-09
1.68599e-07
1.2607e-09
1.68696e-07
1.34175e-09
1.68797e-07
1.42927e-09
1.68902e-07
1.52318e-09
1.69009e-07
1.62136e-09
1.69118e-07
1.72219e-09
1.69229e-07
1.8235e-09
1.6934e-07
1.92522e-09
1.69451e-07
2.02533e-09
1.69559e-07
2.12525e-09
1.69665e-07
2.22263e-09
1.69767e-07
2.32145e-09
1.69866e-07
2.4176e-09
1.69961e-07
2.51749e-09
1.70052e-07
2.61297e-09
1.70139e-07
2.7132e-09
1.70221e-07
2.80676e-09
1.70298e-07
2.90625e-09
1.70372e-07
2.9995e-09
1.7044e-07
3.10145e-09
1.70504e-07
3.1989e-09
1.70564e-07
3.30655e-09
1.70619e-07
3.40736e-09
1.70671e-07
3.52908e-09
1.70718e-07
3.64027e-09
1.70761e-07
3.78152e-09
1.70801e-07
3.90032e-09
1.70837e-07
4.06285e-09
1.7087e-07
4.21062e-09
1.70902e-07
4.39093e-09
4.5825e-09
6.55335e-07
7.15986e-10
-6.55058e-07
6.55607e-07
7.84112e-10
6.55874e-07
8.51813e-10
6.56142e-07
9.19244e-10
6.56415e-07
9.87954e-10
6.56699e-07
1.05757e-09
6.56999e-07
1.12946e-09
6.57318e-07
1.20344e-09
6.57657e-07
1.28267e-09
6.58012e-07
1.36714e-09
6.58377e-07
1.45809e-09
6.5875e-07
1.55303e-09
6.59123e-07
1.65196e-09
6.59495e-07
1.75344e-09
6.59861e-07
1.85599e-09
6.60222e-07
1.96091e-09
6.60576e-07
2.06392e-09
6.60922e-07
2.17144e-09
6.6126e-07
2.27439e-09
6.61588e-07
2.38517e-09
6.61907e-07
2.48851e-09
6.62211e-07
2.60235e-09
6.62502e-07
2.70777e-09
6.62778e-07
2.82532e-09
6.6304e-07
2.93719e-09
6.63287e-07
3.05932e-09
6.63516e-07
3.17871e-09
6.63735e-07
3.30961e-09
6.63935e-07
3.44027e-09
6.64127e-07
3.58973e-09
6.64301e-07
3.72694e-09
6.64469e-07
3.89445e-09
6.6463e-07
4.04986e-09
6.64789e-07
4.2321e-09
4.40559e-09
7.09083e-07
5.19845e-10
-7.08887e-07
7.0929e-07
5.76683e-10
7.09508e-07
6.34295e-10
7.09733e-07
6.93919e-10
7.09966e-07
7.55381e-10
7.10207e-07
8.16317e-10
7.10458e-07
8.78883e-10
7.10719e-07
9.42333e-10
7.1099e-07
1.0111e-09
7.11273e-07
1.08408e-09
7.11567e-07
1.16431e-09
7.11871e-07
1.24908e-09
7.12183e-07
1.33989e-09
7.12502e-07
1.43483e-09
7.12825e-07
1.5329e-09
7.1315e-07
1.63548e-09
7.13477e-07
1.73739e-09
7.13802e-07
1.84637e-09
7.14125e-07
1.95086e-09
7.14444e-07
2.06651e-09
7.14759e-07
2.1739e-09
7.15066e-07
2.29538e-09
7.15366e-07
2.40706e-09
7.15659e-07
2.53296e-09
7.15942e-07
2.65355e-09
7.16217e-07
2.78458e-09
7.16478e-07
2.91763e-09
7.16731e-07
3.05661e-09
7.16972e-07
3.19955e-09
7.17206e-07
3.3556e-09
7.1743e-07
3.5033e-09
7.17649e-07
3.67482e-09
7.17869e-07
3.82962e-09
7.18091e-07
4.01063e-09
4.18749e-09
7.67299e-07
3.96518e-10
-7.67175e-07
7.67437e-07
4.38352e-10
7.67587e-07
4.84045e-10
7.67749e-07
5.32035e-10
7.67922e-07
5.82607e-10
7.68105e-07
6.33701e-10
7.68295e-07
6.88308e-10
7.68493e-07
7.44971e-10
7.68697e-07
8.06845e-10
7.6891e-07
8.71025e-10
7.69133e-07
9.41204e-10
7.69367e-07
1.01496e-09
7.69612e-07
1.09472e-09
7.69868e-07
1.17911e-09
7.70133e-07
1.26781e-09
7.70406e-07
1.36268e-09
7.70685e-07
1.45834e-09
7.70968e-07
1.56281e-09
7.71256e-07
1.66366e-09
7.71545e-07
1.7771e-09
7.71836e-07
1.88294e-09
7.72127e-07
2.00415e-09
7.72418e-07
2.11642e-09
7.72708e-07
2.24334e-09
7.72995e-07
2.36617e-09
7.7328e-07
2.49943e-09
7.73561e-07
2.63717e-09
7.73837e-07
2.78029e-09
7.74108e-07
2.92829e-09
7.74377e-07
3.08706e-09
7.74642e-07
3.23782e-09
7.74908e-07
3.40893e-09
7.75176e-07
3.56199e-09
7.75449e-07
3.73776e-09
3.90734e-09
8.3022e-07
3.31907e-10
-8.30155e-07
8.30299e-07
3.59476e-10
8.30389e-07
3.9423e-10
8.30489e-07
4.31969e-10
8.30598e-07
4.73379e-10
8.30716e-07
5.16106e-10
8.30841e-07
5.62733e-10
8.30975e-07
6.11032e-10
8.31118e-07
6.64192e-10
8.3127e-07
7.18901e-10
8.31433e-07
7.78529e-10
8.31607e-07
8.40817e-10
8.31792e-07
9.09004e-10
8.3199e-07
9.81992e-10
8.32197e-07
1.06012e-09
8.32415e-07
1.14456e-09
8.32643e-07
1.23063e-09
8.3288e-07
1.3256e-09
8.33126e-07
1.41812e-09
8.3338e-07
1.52333e-09
8.3364e-07
1.6224e-09
8.33907e-07
1.73707e-09
8.34179e-07
1.84427e-09
8.34456e-07
1.96642e-09
8.34737e-07
2.08526e-09
8.35022e-07
2.21493e-09
8.35309e-07
2.34963e-09
8.35599e-07
2.49053e-09
8.3589e-07
2.63725e-09
8.36184e-07
2.79267e-09
8.3648e-07
2.94191e-09
8.36782e-07
3.10691e-09
8.37088e-07
3.25687e-09
8.37403e-07
3.42196e-09
3.57596e-09
8.98065e-07
2.98844e-10
-8.98032e-07
8.98105e-07
3.19488e-10
8.98152e-07
3.46877e-10
8.98207e-07
3.76865e-10
8.9827e-07
4.10368e-10
8.98341e-07
4.45103e-10
8.98421e-07
4.83309e-10
8.98509e-07
5.22481e-10
8.98608e-07
5.65732e-10
8.98716e-07
6.10384e-10
8.98835e-07
6.60144e-10
8.98963e-07
7.12468e-10
8.99102e-07
7.70384e-10
8.99251e-07
8.32295e-10
8.99412e-07
8.99031e-10
8.99585e-07
9.71701e-10
8.9977e-07
1.04621e-09
8.99966e-07
1.12908e-09
9.00174e-07
1.21039e-09
9.00393e-07
1.30407e-09
9.00623e-07
1.39279e-09
9.00863e-07
1.49696e-09
9.01112e-07
1.59472e-09
9.01371e-07
1.7078e-09
9.01638e-07
1.81793e-09
9.01914e-07
1.93955e-09
9.02198e-07
2.06587e-09
9.02489e-07
2.19892e-09
9.02788e-07
2.33864e-09
9.03095e-07
2.48539e-09