/*--------------------------------*- C++ -*----------------------------------*\
| =========                 |                                                 |
| \\      /  F ield         | OpenFOAM: The Open Source CFD Toolbox           |
|  \\    /   O peration     | Version:  5.x                                   |
|   \\  /    A nd           | Web:      www.OpenFOAM.org                      |
|    \\/     M anipulation  |                                                 |
\*---------------------------------------------------------------------------*/
FoamFile
{
    version     2.0;
    format      ascii;
    class       volScalarField;
    location    "0.1";
    object      p;
}
// * * * * * * * * * * * * * * * * * * * * * * * * * * * * * * * * * * * * * //

dimensions      [0 2 -2 0 0 0 0];

internalField   nonuniform List<scalar> 
21600
(
0.016557141
0.014169253
0.010877542
0.0081253926
0.0059343508
0.0039985078
0.0021807667
0.00055632714
-0.00070705832
-0.0014945485
-0.001825443
-0.0018207894
-0.0016271281
-0.0013618225
-0.0010989542
-0.00087664929
-0.00070761244
-0.00058909969
-0.00051119576
-0.00046248507
-0.00043290659
-0.00041474738
-0.00040270341
-0.00039352081
-0.00038548153
-0.0003778867
-0.00037062052
-0.00036382571
-0.00035768592
-0.00035230944
-0.00034769904
-0.0003437802
-0.00034045546
-0.00033765479
-0.00033536055
-0.00033360127
-0.00033242565
-0.00033187373
-0.00033195877
-0.00033266539
-0.0003339609
-0.00033581076
-0.00033818852
-0.00034107534
-0.00034445033
-0.0003482789
-0.00035250725
-0.0003570671
-0.00036188844
-0.00036691303
-0.00037210205
-0.00037743525
-0.00038290444
-0.0003885064
-0.00039423893
-0.0004001003
-0.00040608904
-0.00041220085
-0.00041842161
-0.00042471947
-0.00043103999
-0.00043730707
-0.00044342815
-0.00044930076
-0.00045481826
-0.00045987449
-0.00046436689
-0.00046819748
-0.00047127184
-0.0004734964
-0.00047477464
-0.00047500241
-0.00047406457
-0.00047183462
-0.00046817802
-0.00046295812
-0.00045604392
-0.00044731797
-0.00043668369
-0.00042407103
-0.00040944118
-0.00039279115
-0.00037416016
-0.00035363892
-0.00033138112
-0.00030761384
-0.00028264214
-0.00025684356
-0.0002306493
-0.0002045116
-0.00017886232
-0.0001540717
-0.00013040956
-0.00010802375
-8.6939461e-05
-6.7078529e-05
-4.8293379e-05
-3.0402032e-05
-1.3243426e-05
3.3246088e-06
1.9394484e-05
3.5020281e-05
5.0206034e-05
6.4949739e-05
7.923415e-05
9.3045376e-05
0.00010635811
0.00011916914
0.00013147772
0.00014329261
0.00015460455
0.00016543003
0.00017577399
0.00018564348
0.00019504858
0.0002039891
0.00021247466
0.00022051021
0.0002281021
0.00023525768
0.00024198069
0.00024827756
0.00025415402
0.00025961632
0.00026466822
0.00026931711
0.00027356869
0.00027742934
0.00028090557
0.00028400437
0.00028673277
0.00028909796
0.00029110812
0.00029277252
0.00029410206
0.00029510943
0.00029580857
0.00029621441
0.00029634191
0.00029620574
0.0002958197
0.00029519655
0.00029434761
0.00029328296
0.00029201048
0.00029053808
0.00028887192
0.00028701798
0.00028498127
0.00028276694
0.00028037913
0.00027782232
0.00027509988
0.00027221565
0.0002691727
0.00026597469
0.00026262444
0.00025912534
0.00025547996
0.00025169132
0.00024776164
0.00024369363
0.00023948927
0.00023515103
0.00023068083
0.00022608101
0.00022135323
0.00021649981
0.00021152251
0.00020642316
0.00020120344
0.00019586496
0.00019040939
0.00018483824
0.00017915321
0.00017335565
0.00016744728
0.00016142922
0.00015530325
0.00014907022
0.00014273207
0.00013628934
0.00012974425
0.00012309699
0.00011635014
0.00010950352
0.00010256017
9.5519528e-05
8.8385084e-05
8.1155869e-05
7.3835922e-05
6.6423816e-05
5.8924257e-05
5.1335281e-05
4.3662234e-05
3.5902696e-05
2.8062593e-05
2.0139165e-05
1.2138785e-05
4.0583728e-06
0.014091817
0.012800709
0.010390431
0.0079385153
0.005823483
0.0039733907
0.0022761325
0.00076444879
-0.00043111553
-0.0012129101
-0.0015785537
-0.00162009
-0.0014696379
-0.0012414354
-0.0010080428
-0.00080794992
-0.00065455589
-0.00054648356
-0.00047544373
-0.00043134524
-0.0004050322
-0.00038936079
-0.00037935536
-0.00037193266
-0.0003654561
-0.00035926511
-0.00035326616
-0.00034761993
-0.00034252524
-0.00033810272
-0.00033436404
-0.00033124068
-0.00032863993
-0.00032649706
-0.00032480128
-0.00032358934
-0.00032291814
-0.00032283467
-0.00032335731
-0.00032447391
-0.00032615373
-0.00032836384
-0.00033107988
-0.0003342856
-0.00033796281
-0.00034207914
-0.00034658205
-0.0003514037
-0.00035647404
-0.00036173501
-0.00036714843
-0.00037269516
-0.00037836819
-0.00038416531
-0.00039008509
-0.00039612644
-0.0004022887
-0.00040856851
-0.00041495281
-0.00042141056
-0.00042788784
-0.00043430866
-0.00044058042
-0.00044660053
-0.00045226229
-0.0004574595
-0.00046208967
-0.00046605499
-0.00046926126
-0.00047161529
-0.0004730209
-0.00047337424
-0.0004725603
-0.00047045249
-0.000466916
-0.00046181378
-0.00045501428
-0.00044639955
-0.0004358725
-0.0004233626
-0.00040883052
-0.00039227259
-0.00037372712
-0.00035328367
-0.00033109473
-0.00030738626
-0.00028246252
-0.00025670069
-0.00023053237
-0.00020441192
-0.00017877465
-0.00015399236
-0.00013033667
-0.00010795706
-8.6879894e-05
-6.7027384e-05
-4.8251494e-05
-3.0375436e-05
-1.3226062e-05
3.3330163e-06
1.9395844e-05
3.5013978e-05
5.0192997e-05
6.4932372e-05
7.9213012e-05
9.3021745e-05
0.00010633247
0.00011914197
0.00013144926
0.00014326424
0.0001545757
0.00016540128
0.00017574553
0.00018561538
0.00019502139
0.00020396264
0.00021244921
0.00022048583
0.00022807883
0.00023523574
0.00024196002
0.0002482582
0.00025413594
0.00025959959
0.00026465273
0.00026930285
0.00027355561
0.00027741739
0.00028089469
0.00028399452
0.00028672388
0.00028908997
0.00029110095
0.0002927661
0.0002940963
0.00029510424
0.00029580387
0.00029621012
0.00029633798
0.00029620213
0.00029581635
0.00029519346
0.00029434474
0.0002932803
0.00029200801
0.00029053579
0.0002888698
0.00028701602
0.00028497945
0.00028276526
0.00028037758
0.00027782088
0.00027509855
0.00027221442
0.00026917156
0.00026597364
0.00026262347
0.00025912444
0.00025547914
0.00025169055
0.00024776094
0.00024369298
0.00023948867
0.00023515048
0.00023068032
0.00022608054
0.0002213528
0.00021649941
0.00021152215
0.00020642283
0.00020120314
0.00019586469
0.00019040915
0.00018483801
0.00017915301
0.00017335547
0.00016744713
0.00016142908
0.00015530313
0.00014907011
0.00014273199
0.00013628927
0.0001297442
0.00012309695
0.00011635012
0.00010950351
0.00010256018
9.5519543e-05
8.8385118e-05
8.1155909e-05
7.3835981e-05
6.6423882e-05
5.8924344e-05
5.1335376e-05
4.3662348e-05
3.5902822e-05
2.8062735e-05
2.0139323e-05
1.2138956e-05
4.0585735e-06
0.012444845
0.011683319
0.0099366468
0.00782001
0.0058153063
0.004048923
0.0024851812
0.0011201648
1.6026921e-05
-0.00075925209
-0.0011868166
-0.0013174409
-0.0012491568
-0.0010844216
-0.0008992979
-0.00073319199
-0.00060125518
-0.0005053166
-0.00044059911
-0.00039974418
-0.0003752929
-0.00036101544
-0.00035236889
-0.00034642429
-0.00034155105
-0.00033703078
-0.00033269698
-0.0003286493
-0.00032504483
-0.00032198383
-0.00031947454
-0.0003174548
-0.00031584209
-0.00031458264
-0.00031367663
-0.00031317186
-0.00031313635
-0.00031362769
-0.00031467373
-0.00031627012
-0.00031839192
-0.00032101045
-0.00032410465
-0.00032766128
-0.0003316651
-0.00033608651
-0.00034087516
-0.00034596471
-0.00035128618
-0.0003567825
-0.00036241674
-0.00036817126
-0.00037404063
-0.00038002397
-0.00038612095
-0.00039233149
-0.00039865598
-0.00040509235
-0.00041162877
-0.00041823522
-0.00042485832
-0.00043142216
-0.00043783394
-0.00044399083
-0.00044978594
-0.00045511301
-0.00045986965
-0.00046395829
-0.0004672852
-0.00046975773
-0.00047128026
-0.00047174939
-0.00047105023
-0.00046905607
-0.00046563165
-0.00046063931
-0.00045394682
-0.00044543559
-0.000435008
-0.00042259311
-0.00040815115
-0.00039167789
-0.00037321079
-0.00035283843
-0.00033071223
-0.00030705733
-0.00028217761
-0.00025645053
-0.00023030861
-0.00020420764
-0.00017858512
-0.00015381544
-0.00013017231
-0.00010780645
-8.6744524e-05
-6.690832e-05
-4.8148847e-05
-3.0288589e-05
-1.3154198e-05
3.3921137e-06
1.944483e-05
3.5050884e-05
5.022703e-05
6.4960884e-05
7.9236862e-05
9.3040751e-05
0.00010634576
0.00011915117
0.00013145452
0.00014326728
0.00015457554
0.00016539939
0.00017574221
0.00018561061
0.00019501647
0.00020395721
0.0002124437
0.0002204804
0.00022807347
0.0002352309
0.0002419556
0.00024825428
0.00025413253
0.00025959689
0.00026465055
0.0002693013
0.00027355464
0.00027741696
0.00028089478
0.00028399509
0.0002867249
0.00028909137
0.00029110265
0.00029276802
0.00029409834
0.00029510633
0.00029580595
0.00029621214
0.00029633991
0.00029620395
0.00029581807
0.00029519508
0.00029434628
0.0002932818
0.00029200944
0.00029053718
0.00028887115
0.00028701733
0.00028498073
0.00028276651
0.0002803788
0.00027782207
0.00027509972
0.00027221556
0.00026917267
0.00026597471
0.00026262451
0.00025912545
0.00025548012
0.0002516915
0.00024776186
0.00024369387
0.00023948954
0.00023515131
0.00023068112
0.00022608132
0.00022135355
0.00021650013
0.00021152284
0.0002064235
0.00020120378
0.0001958653
0.00019040974
0.00018483858
0.00017915355
0.00017335598
0.00016744762
0.00016142955
0.00015530359
0.00014907054
0.0001427324
0.00013628966
0.00012974458
0.0001230973
0.00011635046
0.00010950383
0.00010256049
9.5519828e-05
8.8385398e-05
8.1156165e-05
7.3836232e-05
6.6424116e-05
5.8924569e-05
5.1335577e-05
4.3662545e-05
3.5903001e-05
2.806291e-05
2.0139487e-05
1.2139107e-05
4.0587219e-06
0.011298348
0.010740207
0.0094292134
0.0076489579
0.0058167451
0.0041580792
0.0027144656
0.0014781678
0.00046640066
-0.00028287219
-0.00074869747
-0.00095532503
-0.00097004333
-0.00087642729
-0.00074464108
-0.00061669229
-0.00051132884
-0.00043338529
-0.00038061204
-0.00034770704
-0.00032873878
-0.00031852665
-0.0003132013
-0.0003102186
-0.00030812231
-0.0003062427
-0.00030440124
-0.00030265862
-0.00030114515
-0.00029995729
-0.00029911954
-0.0002985961
-0.00029833029
-0.00029828743
-0.00029847974
-0.00029896349
-0.00029981544
-0.00030110427
-0.00030287109
-0.00030512525
-0.00030785392
-0.00031103737
-0.00031466009
-0.00031871159
-0.00032317804
-0.00032803103
-0.00033322169
-0.0003386851
-0.00034435362
-0.00035017145
-0.00035610323
-0.00036213331
-0.00036825858
-0.00037448069
-0.00038080182
-0.0003872242
-0.00039375027
-0.00040037961
-0.00040710175
-0.00041388772
-0.00042068483
-0.00042741753
-0.00043399313
-0.00044030887
-0.00044625795
-0.00045173436
-0.00045663611
-0.00046086625
-0.00046433181
-0.00046694105
-0.00046859927
-0.00046920378
-0.00046864011
-0.00046678158
-0.00046349268
-0.00045863527
-0.00045207652
-0.00044369732
-0.00043339971
-0.00042111253
-0.00040679579
-0.00039044484
-0.00037209646
-0.00035183814
-0.00032981998
-0.00030626578
-0.00028147818
-0.00025583382
-0.00022976489
-0.0002037274
-0.00017815956
-0.00015343688
-0.00012983439
-0.00010750412
-8.6473878e-05
-6.66663e-05
-4.7933052e-05
-3.0096443e-05
-1.2983764e-05
3.5430825e-06
1.9578482e-05
3.516811e-05
5.0328595e-05
6.5050046e-05
7.9317705e-05
9.3106068e-05
0.00010640467
0.00011920313
0.00013150017
0.00014330807
0.00015460795
0.00016542607
0.00017576434
0.00018562812
0.00019503104
0.00020396871
0.00021245309
0.000220488
0.00022807932
0.00023523611
0.00024196021
0.00024825849
0.00025413651
0.0002596011
0.00026465479
0.00026930583
0.00027355949
0.00027742212
0.00028090029
0.00028400096
0.00028673108
0.0002890978
0.00029110925
0.00029277468
0.00029410496
0.0002951128
0.00029581221
0.00029621813
0.0002963456
0.00029620934
0.00029582317
0.00029519991
0.00029435086
0.0002932862
0.00029201362
0.0002905412
0.00028887501
0.00028702105
0.00028498431
0.00028276996
0.00028038212
0.00027782528
0.00027510281
0.00027221853
0.00026917553
0.00026597746
0.00026262716
0.00025912799
0.00025548256
0.00025169385
0.00024776411
0.00024369603
0.00023949161
0.00023515329
0.00023068302
0.00022608314
0.00022135528
0.00021650179
0.00021152443
0.00020642501
0.00020120523
0.00019586667
0.00019041105
0.00018483982
0.00017915474
0.0001733571
0.00016744869
0.00016143056
0.00015530455
0.00014907144
0.00014273326
0.00013629046
0.00012974534
0.000123098
0.00011635113
0.00010950444
0.00010256107
9.5520358e-05
8.8385894e-05
8.1156612e-05
7.3836648e-05
6.6424485e-05
5.8924909e-05
5.1335875e-05
4.3662812e-05
3.5903231e-05
2.8063108e-05
2.0139658e-05
1.2139232e-05
4.0588255e-06
0.010385282
0.0099067332
0.0088700262
0.0073977518
0.0057799662
0.0042566229
0.0029241547
0.0017933829
0.00086361395
0.00014965913
-0.00033315012
-0.00059468688
-0.00067907134
-0.00065031669
-0.00056936733
-0.00047863448
-0.00040023855
-0.00034183654
-0.00030308455
-0.00028014093
-0.00026831332
-0.00026343131
-0.00026237161
-0.0002630769
-0.00026435813
-0.00026565489
-0.00026680683
-0.00026785788
-0.00026891719
-0.00027007297
-0.00027135946
-0.00027276442
-0.00027425845
-0.00027582835
-0.00027749841
-0.0002793304
-0.00028140515
-0.00028379809
-0.00028656128
-0.00028971845
-0.00029327214
-0.0002972161
-0.00030154455
-0.00030625275
-0.00031133016
-0.00031675142
-0.00032247154
-0.00032842962
-0.00033456076
-0.0003408104
-0.00034714335
-0.00035354398
-0.00036000987
-0.00036654458
-0.00037315347
-0.00037984276
-0.00038661881
-0.0003934844
-0.0004004314
-0.0004074326
-0.00041443664
-0.00042136875
-0.00042813654
-0.00043463723
-0.00044076423
-0.00044641201
-0.0004514795
-0.000455871
-0.00045949514
-0.00046226185
-0.00046407801
-0.0004648422
-0.00046444084
-0.00046274782
-0.00045962788
-0.00045494297
-0.00044856027
-0.00044036079
-0.00043024682
-0.00041814755
-0.00040402327
-0.00038786938
-0.00036972216
-0.00034966796
-0.00032785494
-0.00030450421
-0.00027991505
-0.00025446025
-0.00022856798
-0.00020269059
-0.00017726335
-0.00015266028
-0.00012915657
-0.00010690601
-8.5939428e-05
-6.6183177e-05
-4.7492746e-05
-2.96933e-05
-1.2614842e-05
3.879491e-06
1.9883048e-05
3.544255e-05
5.057395e-05
6.5268515e-05
7.9512057e-05
9.3275922e-05
0.00010655097
0.00011932943
0.00013161186
0.00014339079
0.00015468902
0.00016549733
0.00017582645
0.00018568248
0.00019507807
0.00020400691
0.00021248476
0.00022051438
0.00022810053
0.00023525365
0.00024197484
0.00024827074
0.00025414673
0.00025961031
0.00026466296
0.00026931349
0.0002735669
0.00027742948
0.00028090779
0.00028400879
0.00028673925
0.0002891063
0.00029111803
0.00029278365
0.00029411399
0.00029512177
0.00029582101
0.00029622669
0.00029635385
0.00029621727
0.00029583078
0.00029520721
0.00029435785
0.00029329298
0.00029202011
0.00029054747
0.00028888106
0.00028702689
0.00028498995
0.00028277541
0.00028038738
0.00027783034
0.0002751077
0.00027222324
0.00026918006
0.00026598182
0.00026263135
0.00025913203
0.00025548644
0.00025169757
0.00024776769
0.00024369945
0.00023949489
0.00023515643
0.00023068603
0.00022608603
0.00022135803
0.00021650441
0.00021152694
0.0002064274
0.00020120751
0.00019586884
0.00019041312
0.00018484177
0.0001791566
0.00017335886
0.00016745036
0.00016143213
0.00015530603
0.00014907283
0.00014273456
0.00013629168
0.00012974649
0.00012309907
0.00011635213
0.00010950536
0.00010256193
9.5521142e-05
8.8386616e-05
8.115726e-05
7.3837236e-05
6.6425004e-05
5.8925367e-05
5.1336269e-05
4.3663143e-05
3.5903507e-05
2.8063316e-05
2.0139827e-05
1.2139314e-05
4.0588685e-06
0.0096084932
0.0091690304
0.0083126066
0.0070963711
0.0057030207
0.0043341033
0.003110068
0.0020668429
0.0012061043
0.00053036719
4.5770657e-05
-0.00025272053
-0.00039277625
-0.00042096645
-0.00038761231
-0.0003328423
-0.00028084239
-0.00024186526
-0.00021740129
-0.00020488724
-0.00020069265
-0.00020155868
-0.00020506949
-0.000209654
-0.00021441892
-0.00021895323
-0.00022314918
-0.00022705452
-0.00023076615
-0.00023436542
-0.00023789408
-0.00024136111
-0.00024476396
-0.00024811112
-0.00025143729
-0.0002548053
-0.00025829383
-0.00026197828
-0.00026591565
-0.00027014008
-0.00027466807
-0.0002795075
-0.00028466386
-0.00029014001
-0.00029593061
-0.00030201529
-0.00030835513
-0.00031489541
-0.00032157554
-0.00032834245
-0.0003351604
-0.00034201234
-0.00034889461
-0.00035581064
-0.00036276753
-0.00036977495
-0.00037684328
-0.0003839789
-0.00039117675
-0.00039841266
-0.00040563846
-0.00041278213
-0.00041975294
-0.00042644888
-0.0004327636
-0.00043859187
-0.00044383318
-0.00044839308
-0.00045218218
-0.000455113
-0.00045709514
-0.00045802967
-0.00045780517
-0.00045629714
-0.0004533715
-0.00044889109
-0.000442724
-0.00043475226
-0.00042487936
-0.00041303582
-0.00039918321
-0.00038331774
-0.00036547573
-0.00034574235
-0.00032426313
-0.00030125475
-0.00027701023
-0.00025189436
-0.00022632618
-0.00020074868
-0.00017558891
-0.0001512151
-0.00012790019
-0.00010579972
-8.4949638e-05
-6.5283638e-05
-4.6665336e-05
-2.8927046e-05
-1.1904625e-05
4.5354187e-06
2.0484691e-05
3.5990622e-05
5.1069119e-05
6.5712952e-05
7.9907318e-05
9.3627133e-05
0.00010686222
0.00011960461
0.00013185479
0.00014360607
0.00015487426
0.00016565689
0.00017596366
0.00018580353
0.00019517457
0.00020409334
0.00021255857
0.0002205772
0.00022815434
0.00023529841
0.00024201088
0.0002483
0.00025417014
0.00025962952
0.0002646784
0.00026932642
0.00027357793
0.00027743916
0.00028091676
0.00028401756
0.00028674805
0.00028911536
0.00029112745
0.00029279344
0.0002941241
0.00029513208
0.00029583142
0.00029623706
0.00029636411
0.00029622735
0.00029584065
0.00029521683
0.00029436719
0.00029330212
0.00029202894
0.00029055606
0.0002888894
0.00028703499
0.0002849978
0.00028278302
0.00028039475
0.00027783748
0.00027511461
0.00027222988
0.00026918647
0.00026598799
0.0002626373
0.00025913774
0.00025549194
0.00025170285
0.00024777276
0.00024370432
0.00023949956
0.0002351609
0.00023069029
0.0002260899
0.00022136191
0.00021650813
0.0002115305
0.0002064308
0.00020121076
0.00019587192
0.00019041606
0.00018484456
0.00017915925
0.00017336136
0.00016745273
0.00016143436
0.00015530814
0.00014907481
0.00014273643
0.00013629342
0.00012974813
0.00012310059
0.00011635354
0.00010950666
0.00010256313
9.5522233e-05
8.8387611e-05
8.1158152e-05
7.383803e-05
6.6425703e-05
5.8925966e-05
5.1336783e-05
4.3663551e-05
3.5903843e-05
2.8063539e-05
2.0139995e-05
1.2139349e-05
4.058839e-06
0.0089303467
0.0085196431
0.0077921593
0.0067800195
0.0055944989
0.0043855273
0.0032710668
0.002306315
0.0015042314
0.00086478228
0.00038713638
6.6007279e-05
-0.00011661467
-0.00019331865
-0.00020369138
-0.00018342435
-0.0001570901
-0.0001370296
-0.0001266113
-0.00012458283
-0.00012828981
-0.00013526435
-0.00014369868
-0.00015244522
-0.00016088597
-0.00016877434
-0.00017608261
-0.00018288306
-0.00018927348
-0.00019533713
-0.00020112835
-0.0002066787
-0.00021201269
-0.00021716153
-0.00022217201
-0.00022710947
-0.00023205125
-0.00023707237
-0.00024223292
-0.00024757455
-0.0002531248
-0.00025890312
-0.00026492429
-0.00027119766
-0.00027772335
-0.00028448752
-0.00029145957
-0.00029859365
-0.0003058363
-0.00031313825
-0.00032046438
-0.00032779613
-0.0003351271
-0.00034245796
-0.00034979444
-0.00035714695
-0.00036452791
-0.00037194601
-0.00037939884
-0.00038686591
-0.00039430391
-0.00040164573
-0.00040880441
-0.00041568032
-0.00042216849
-0.00042816439
-0.00043356792
-0.00043828531
-0.00044222879
-0.00044531346
-0.00044745216
-0.00044854955
-0.00044849795
-0.00044717641
-0.00044445377
-0.00044019528
-0.00043427105
-0.00042656494
-0.00041698241
-0.00040545619
-0.00039195007
-0.00037646199
-0.00035902897
-0.00033973516
-0.0003187227
-0.00029620199
-0.00027245671
-0.00024783945
-0.00022275488
-0.00019763093
-0.00017288087
-0.00014886259
-0.00012584373
-0.0001039806
-8.3315655e-05
-6.3793056e-05
-4.5288632e-05
-2.7646127e-05
-1.0710717e-05
5.6451766e-06
2.1510135e-05
3.6931656e-05
5.1926306e-05
6.6488986e-05
8.0605555e-05
9.4254262e-05
0.00010742369
0.00012010602
0.00013230013
0.00014400189
0.00015522375
0.00016596574
0.00017623568
0.00018604259
0.00019538387
0.00020427223
0.00021271076
0.00022070652
0.00022826635
0.00023539031
0.00024208802
0.00024836382
0.00025422281
0.00025967302
0.00026471266
0.0002693537
0.0002735997
0.00027745647
0.00028093081
0.00028402968
0.00028675893
0.00028912566
0.00029113767
0.00029280391
0.00029413499
0.00029514341
0.00029584316
0.00029624909
0.00029637629
0.0002962396
0.00029585289
0.00029522899
0.00029437921
0.00029331405
0.00029204053
0.00029056738
0.00028890045
0.00028704576
0.00028500827
0.0002827932
0.00028040464
0.00027784705
0.00027512374
0.00027223879
0.00026919511
0.00026599634
0.00026264536
0.00025914551
0.00025549943
0.00025171005
0.00024777969
0.00024371097
0.00023950595
0.00023516702
0.00023069616
0.00022609553
0.00022136728
0.00021651326
0.00021153541
0.00020643547
0.00020121522
0.00019587616
0.0001904201
0.00018484839
0.00017916289
0.0001733648
0.00016745599
0.00016143742
0.00015531104
0.00014907752
0.00014273899
0.0001362958
0.00012975036
0.00012310266
0.00011635547
0.00010950844
0.00010256476
9.5523719e-05
8.8388957e-05
8.115936e-05
7.3839097e-05
6.6426643e-05
5.892676e-05
5.1337465e-05
4.3664078e-05
3.5904274e-05
2.8063805e-05
2.0140187e-05
1.2139356e-05
4.0587493e-06
0.0083328261
0.0079491044
0.0073203301
0.0064689123
0.0054628607
0.0044073847
0.0034032609
0.0025139691
0.0017644129
0.0011582515
0.00069200596
0.00035887391
0.00014553563
2.921154e-05
-1.9999459e-05
-3.21096e-05
-3.0449978e-05
-2.8645554e-05
-3.1852013e-05
-4.0201185e-05
-5.1981408e-05
-6.5399116e-05
-7.913925e-05
-9.2396196e-05
-0.00010478337
-0.0001162124
-0.0001267553
-0.00013653365
-0.00014566379
-0.00015424066
-0.00016233566
-0.00017000322
-0.00017729281
-0.00018425773
-0.0001909593
-0.00019746967
-0.00020386917
-0.00021023541
-0.00021663219
-0.00022310717
-0.00022969636
-0.00023642823
-0.00024332464
-0.00025039964
-0.0002576579
-0.00026509239
-0.00027268182
-0.0002803905
-0.00028817389
-0.00029598904
-0.00030380401
-0.00031160069
-0.00031937091
-0.00032711234
-0.00033482793
-0.00034252647
-0.00035021973
-0.00035791606
-0.00036561346
-0.00037329392
-0.00038091911
-0.00038842811
-0.00039573984
-0.00040275948
-0.0004093857
-0.00041551627
-0.00042105204
-0.00042589958
-0.00042997186
-0.0004331857
-0.00043545666
-0.00043669319
-0.00043679249
-0.00043563898
-0.00043310666
-0.0004290653
-0.00042338881
-0.0004159642
-0.00040669971
-0.00039553094
-0.00038242448
-0.00036738069
-0.00035043791
-0.00033167961
-0.00031124415
-0.00028933423
-0.0002662216
-0.00024224288
-0.00021778379
-0.00019325215
-0.00016904244
-0.00014549791
-0.00012287816
-0.00010133926
-8.09308e-05
-6.1609494e-05
-4.3266355e-05
-2.5759901e-05
-8.9475475e-06
7.2901085e-06
2.3037377e-05
3.834123e-05
5.3219223e-05
6.7668473e-05
8.1676101e-05
9.5223239e-05
0.00010829826
0.00012089358
0.00013300748
0.00014463759
0.00015579276
0.00016647417
0.00017668847
0.00018644259
0.0001957365
0.00020458148
0.00021298118
0.00022094187
0.00022847054
0.00023556561
0.0002422354
0.00024848705
0.0002543262
0.00025975384
0.00026478195
0.00026940978
0.00027364474
0.00027749289
0.00028095958
0.00028405246
0.00028677749
0.00028914143
0.00029115177
0.00029281723
0.00029414814
0.00029515681
0.00029585703
0.00029626347
0.00029639118
0.00029625477
0.00029586821
0.00029524438
0.00029439463
0.00029332851
0.00029205555
0.00029058219
0.00028891498
0.00028705998
0.00028502215
0.00028280672
0.00028041779
0.00027785982
0.00027513613
0.00027225076
0.00026920667
0.0002660075
0.00026265613
0.0002591559
0.00025550943
0.00025171967
0.00024778895
0.00024371985
0.00023951447
0.00023517518
0.00023070399
0.00022610303
0.00022137446
0.00021652011
0.00021154197
0.00020644172
0.00020122118
0.00019588183
0.00019042549
0.0001848535
0.00017916775
0.00017336939
0.00016746034
0.00016144152
0.00015531491
0.00014908115
0.0001427424
0.00013629899
0.00012975334
0.00012310543
0.00011635805
0.00010951081
0.00010256694
9.5525709e-05
8.8390754e-05
8.116098e-05
7.3840523e-05
6.6427907e-05
5.8927822e-05
5.1338383e-05
4.3664784e-05
3.5904856e-05
2.8064165e-05
2.0140443e-05
1.2139378e-05
4.0586326e-06
0.0078039707
0.0074468817
0.006897441
0.0061724277
0.0053157048
0.0043995475
0.0035035295
0.0026894238
0.0019901293
0.001415385
0.00096287023
0.00062521416
0.0003911364
0.00024395052
0.00016156481
0.0001199243
9.8197134e-05
8.2442064e-05
6.6041109e-05
4.7486629e-05
2.7562085e-05
7.4697275e-06
-1.1877601e-05
-2.9949194e-05
-4.6541855e-05
-6.1700654e-05
-7.5603604e-05
-8.8446904e-05
-0.00010038698
-0.00011153873
-0.00012199172
-0.000131823
-0.00014110603
-0.0001499155
-0.00015832912
-0.00016642949
-0.00017430309
-0.00018203192
-0.00018968401
-0.00019731217
-0.00020495928
-0.00021266167
-0.00022044768
-0.0002283356
-0.00023633382
-0.00024444153
-0.00025264659
-0.00026092321
-0.00026923558
-0.00027754768
-0.00028583268
-0.00029407515
-0.00030226711
-0.0003104045
-0.00031848794
-0.00032652404
-0.00033452254
-0.0003424896
-0.00035042157
-0.00035830109
-0.00036609356
-0.00037374395
-0.00038117765
-0.00038830617
-0.00039503394
-0.00040126315
-0.00040689723
-0.00041184388
-0.00041601671
-0.00041933349
-0.00042171145
-0.00042306202
-0.00042328712
-0.0004222774
-0.00041991368
-0.00041607243
-0.00041063351
-0.00040348878
-0.00039455039
-0.00038375725
-0.00037107892
-0.00035651826
-0.00034011514
-0.00032195257
-0.00030216508
-0.00028094699
-0.00025855657
-0.00023531209
-0.0002115773
-0.00018773656
-0.0001641623
-0.00014118032
-0.00011904012
-9.7896333e-05
-7.7805427e-05
-5.8737417e-05
-4.0599936e-05
-2.3268147e-05
-6.6135367e-06
9.473576e-06
2.5072184e-05
4.0227975e-05
5.4959322e-05
6.9265468e-05
8.3135403e-05
9.6553102e-05
0.00010950742
0.00012199112
0.00013400173
0.00014553746
0.00015660453
0.00016720485
0.00017734419
0.00018702862
0.00019625995
0.00020504693
0.00021339332
0.0002213049
0.0002287871
0.00023584052
0.00024247325
0.00024869149
0.00025450075
0.00025990222
0.00026490493
0.00026951093
0.00027372732
0.00027755974
0.0002810141
0.00028409576
0.00028681217
0.00028916972
0.00029117555
0.00029283811
0.00029416729
0.0002951752
0.00029587527
0.00029628203
0.00029641011
0.0002962742
0.00029588795
0.00029526435
0.00029441469
0.00029334861
0.00029207534
0.00029060168
0.00028893411
0.00028707869
0.0002850404
0.00028282448
0.00028043506
0.00027787655
0.00027515234
0.00027226643
0.00026922182
0.00026602212
0.00026267024
0.00025916948
0.00025552252
0.00025173225
0.00024780104
0.00024373144
0.0002395256
0.00023518584
0.0002307142
0.0002261128
0.00022138381
0.00021652904
0.00021155051
0.00020644985
0.00020122894
0.0001958892
0.00019043252
0.00018486016
0.00017917407
0.00017337536
0.000167466
0.00016144685
0.00015531994
0.00014908587
0.00014274685
0.00013630314
0.00012975723
0.00012310904
0.0001163614
0.00010951391
0.00010256979
9.5528314e-05
8.8393107e-05
8.1163109e-05
7.3842397e-05
6.6429575e-05
5.8929231e-05
5.1339606e-05
4.3665737e-05
3.5905645e-05
2.8064677e-05
2.0140807e-05
1.2139461e-05
4.0585295e-06
0.0073339589
0.0070026868
0.006518511
0.005894179
0.0051599367
0.0043657774
0.003572066
0.0028329829
0.0021841058
0.0016405959
0.0012033959
0.000866193
0.00061902701
0.00044882592
0.00033916165
0.00027141877
0.00022794903
0.00019541181
0.00016624899
0.00013772181
0.00010971082
8.2866634e-05
5.7750331e-05
3.4660235e-05
1.365836e-05
-5.3954294e-06
-2.2771985e-05
-3.8758274e-05
-5.3573046e-05
-6.7359927e-05
-8.0225519e-05
-9.2269239e-05
-0.00010359002
-0.00011428419
-0.00012444574
-0.00013416876
-0.00014354676
-0.00015266657
-0.00016160108
-0.00017040877
-0.00017913909
-0.00018783568
-0.00019653348
-0.00020525527
-0.00021401299
-0.00022281114
-0.00023164595
-0.0002405011
-0.00024934879
-0.00025815952
-0.00026691215
-0.00027559549
-0.00028420313
-0.00029273026
-0.00030117586
-0.00030954487
-0.00031784503
-0.00032607984
-0.00033424325
-0.00034231748
-0.00035027046
-0.00035805201
-0.00036559341
-0.00037281265
-0.0003796208
-0.00038592589
-0.00039163544
-0.00039665955
-0.00040091324
-0.00040431532
-0.00040678409
-0.00040823318
-0.00040856851
-0.00040768671
-0.00040547595
-0.00040182057
-0.00039660803
-0.00038973669
-0.00038112386
-0.0003707124
-0.00035847489
-0.00034441639
-0.00032857799
-0.0003110421
-0.00029193935
-0.00027145556
-0.00024983501
-0.00022737676
-0.00020442135
-0.00018132823
-0.00015844631
-0.00013608256
-0.00011447507
-9.3775985e-05
-7.4047906e-05
-5.5273831e-05
-3.7378126e-05
-2.0253122e-05
-3.7851417e-06
1.2124913e-05
2.7549941e-05
4.2533657e-05
5.7095012e-05
7.1235249e-05
8.4945463e-05
9.8212168e-05
0.0001110249
0.00012337662
0.00013526436
0.00014668671
0.00015764817
0.00016815092
0.00017819998
0.00018780032
0.00019695434
0.00020566906
0.00021394847
0.00022179811
0.00022922292
0.00023622488
0.00024281049
0.00024898528
0.00025475426
0.00026011975
0.00026508973
0.00026966717
0.00027385834
0.00027766904
0.000281104
0.00028416883
0.00028687146
0.00028921798
0.00029121529
0.00029287166
0.0002941969
0.00029520254
0.00029590139
0.0002963077
0.00029643582
0.00029630004
0.00029591396
0.0002952905
0.00029444082
0.00029337466
0.00029210104
0.00029062699
0.00028895892
0.00028710292
0.00028506402
0.00028284743
0.00028045732
0.00027789811
0.0002751732
0.00027228657
0.00026924126
0.00026604085
0.0002626883
0.00025918685
0.00025553923
0.00025174829
0.00024781645
0.00024374621
0.00023953977
0.00023519939
0.00023072718
0.00022612522
0.00022139568
0.00021654037
0.00021156133
0.00020646016
0.00020123878
0.00019589854
0.0001904414
0.00018486858
0.00017918207
0.00017338292
0.00016747316
0.00016145359
0.00015532631
0.00014909185
0.00014275247
0.0001363084
0.00012976215
0.00012311362
0.00011636565
0.00010951784
0.0001025734
9.5531627e-05
8.8396103e-05
8.1165826e-05
7.3844797e-05
6.6431719e-05
5.8931051e-05
5.1341194e-05
4.3666992e-05
3.590669e-05
2.8065387e-05
2.0141318e-05
1.2139645e-05
4.0584743e-06
0.0069142468
0.0066074068
0.0061777415
0.0056351013
0.0050013855
0.0043120534
0.0036122102
0.0029464357
0.002348673
0.001837275
0.0014168557
0.0010834535
0.00082875925
0.00064209765
0.00051087676
0.00042088675
0.0003577565
0.00030942927
0.00026801526
0.0002298255
0.00019390531
0.00016037092
0.00012945478
0.00010124848
7.5703633e-05
5.2623956e-05
3.1674653e-05
1.2478586e-05
-5.2634722e-06
-2.1736816e-05
-3.7065512e-05
-5.1369203e-05
-6.4773406e-05
-7.7396827e-05
-8.9348336e-05
-0.00010073231
-0.00011164947
-0.00012219202
-0.00013243889
-0.00014245565
-0.00015229877
-0.00016201841
-0.0001716554
-0.00018123728
-0.00019077994