/*--------------------------------*- C++ -*----------------------------------*\
| =========                 |                                                 |
| \\      /  F ield         | OpenFOAM: The Open Source CFD Toolbox           |
|  \\    /   O peration     | Version:  5.x                                   |
|   \\  /    A nd           | Web:      www.OpenFOAM.org                      |
|    \\/     M anipulation  |                                                 |
\*---------------------------------------------------------------------------*/
FoamFile
{
    version     2.0;
    format      ascii;
    class       surfaceScalarField;
    location    "0.1";
    object      phi;
}
// * * * * * * * * * * * * * * * * * * * * * * * * * * * * * * * * * * * * * //

dimensions      [0 3 -1 0 0 0 0];

internalField   nonuniform List<scalar> 
42870
(
3.6460887e-08
3.0375148e-09
-3.9498402e-08
3.2638613e-08
3.8222742e-09
2.8834085e-08
3.8045272e-09
2.5226281e-08
3.6078043e-09
2.1816328e-08
3.4099529e-09
1.8672757e-08
3.1435708e-09
1.5919576e-08
2.7531809e-09
1.3648049e-08
2.2715278e-09
1.1873495e-08
1.7745534e-09
1.0560076e-08
1.3134189e-09
9.6204708e-09
9.3960549e-10
8.9554748e-09
6.6499601e-10
8.4787908e-09
4.7668402e-10
8.1246849e-09
3.5410585e-10
7.8467878e-09
2.7789714e-10
7.6126441e-09
2.3414365e-10
7.4018606e-09
2.107835e-10
7.2036116e-09
1.9824903e-10
7.0133284e-09
1.9028316e-10
6.8298871e-09
1.8344134e-10
6.6537029e-09
1.7618413e-10
6.485595e-09
1.6810797e-10
6.3262059e-09
1.5938908e-10
6.1757906e-09
1.504153e-10
6.0342154e-09
1.4157517e-10
5.9010548e-09
1.331606e-10
5.7757127e-09
1.2534212e-10
5.6575261e-09
1.1818663e-10
5.5458453e-09
1.116808e-10
5.4400817e-09
1.0576354e-10
5.3397237e-09
1.0035799e-10
5.2443294e-09
9.5394364e-11
5.1535089e-09
9.0820441e-11
5.0669081e-09
8.6600831e-11
4.9841988e-09
8.2709255e-11
4.905079e-09
7.9119786e-11
4.8292771e-09
7.5801986e-11
4.7565555e-09
7.2721538e-11
4.686711e-09
6.9844497e-11
4.619569e-09
6.714206e-11
4.5549756e-09
6.459337e-11
4.4927904e-09
6.2185214e-11
4.4328814e-09
5.9908952e-11
4.375125e-09
5.7756378e-11
4.3194083e-09
5.5716787e-11
4.2656316e-09
5.3776651e-11
4.2137098e-09
5.1921775e-11
4.1635696e-09
5.0140268e-11
4.1151452e-09
4.8424398e-11
4.0683749e-09
4.6770246e-11
4.0231992e-09
4.5175764e-11
3.9795606e-09
4.3638593e-11
3.9374056e-09
4.2155018e-11
3.8966852e-09
4.0720308e-11
3.8573554e-09
3.9329827e-11
3.8193755e-09
3.7979936e-11
3.7827075e-09
3.6667982e-11
3.7473162e-09
3.5391278e-11
3.7131703e-09
3.4145925e-11
3.6802438e-09
3.2926488e-11
3.648517e-09
3.1726826e-11
3.6179756e-09
3.0541386e-11
3.5886096e-09
2.9365952e-11
3.5604121e-09
2.8197549e-11
3.5333779e-09
2.7034187e-11
3.5075032e-09
2.5874739e-11
3.4827844e-09
2.4718755e-11
3.4592183e-09
2.3566114e-11
3.4368016e-09
2.2416718e-11
3.4155313e-09
2.1270281e-11
3.3954052e-09
2.0126114e-11
3.3764223e-09
1.8982915e-11
3.3585833e-09
1.7838942e-11
3.3418908e-09
1.6692527e-11
3.3263482e-09
1.5542631e-11
3.311959e-09
1.4389216e-11
3.2987255e-09
1.3233486e-11
3.2866476e-09
1.2077912e-11
3.2757215e-09
1.0926085e-11
3.265939e-09
9.7824743e-12
3.2572867e-09
8.652339e-12
3.2497447e-09
7.5419953e-12
3.2432852e-09
6.4594285e-12
3.23787e-09
5.4152152e-12
3.2334468e-09
4.4231937e-12
3.2299464e-09
3.5004605e-12
3.2272802e-09
2.6662238e-12
3.2253406e-09
1.939534e-12
3.2240048e-09
1.3358389e-12
3.2231416e-09
8.6320304e-13
3.2226214e-09
5.2023328e-13
3.2223267e-09
2.9461596e-13
3.2221628e-09
1.6394235e-13
3.2220633e-09
9.9495748e-14
3.2219922e-09
7.114414e-14
3.2219398e-09
5.2388378e-14
3.2219162e-09
2.3609277e-14
3.2219402e-09
-2.4035747e-14
3.2220325e-09
-9.2289003e-14
3.222209e-09
-1.765471e-13
3.2224782e-09
-2.6916955e-13
3.2228389e-09
-3.6070229e-13
3.2232838e-09
-4.4488377e-13
3.223802e-09
-5.1824129e-13
3.2243824e-09
-5.8038533e-13
3.2250078e-09
-6.2534143e-13
3.2256688e-09
-6.6105695e-13
3.2263555e-09
-6.8666973e-13
3.2270602e-09
-7.0475679e-13
3.2277754e-09
-7.1520942e-13
3.228495e-09
-7.1954835e-13
3.2292144e-09
-7.1938808e-13
3.229929e-09
-7.1461033e-13
3.2306356e-09
-7.0656511e-13
3.2313295e-09
-6.939096e-13
3.2320082e-09
-6.7877381e-13
3.2326693e-09
-6.6107645e-13
3.2333104e-09
-6.4104529e-13
3.23393e-09
-6.1959469e-13
3.2345257e-09
-5.9569915e-13
3.2350971e-09
-5.7145725e-13
3.2356435e-09
-5.4642312e-13
3.2361645e-09
-5.2098255e-13
3.2366597e-09
-4.9520906e-13
3.2371293e-09
-4.6956639e-13
3.2375736e-09
-4.4425981e-13
3.2379929e-09
-4.1935242e-13
3.238388e-09
-3.9509872e-13
3.2387593e-09
-3.7124913e-13
3.2391075e-09
-3.482879e-13
3.2394336e-09
-3.2601156e-13
3.239738e-09
-3.0441601e-13
3.2400215e-09
-2.8353167e-13
3.240285e-09
-2.6344828e-13
3.2405293e-09
-2.4429949e-13
3.2407555e-09
-2.26278e-13
3.240965e-09
-2.0948781e-13
3.2411591e-09
-1.9408918e-13
3.2413392e-09
-1.8004568e-13
3.2415065e-09
-1.6735648e-13
3.2416625e-09
-1.5594771e-13
3.2418082e-09
-1.4573768e-13
3.2419447e-09
-1.3649461e-13
3.2420729e-09
-1.2817121e-13
3.2421934e-09
-1.2051076e-13
3.2423069e-09
-1.135751e-13
3.242414e-09
-1.0705555e-13
3.2425151e-09
-1.0111883e-13
3.2426106e-09
-9.544467e-14
3.2427009e-09
-9.0296126e-14
3.2427862e-09
-8.5296735e-14
3.242867e-09
-8.0787451e-14
3.2429433e-09
-7.6340585e-14
3.2430157e-09
-7.2362444e-14
3.2430841e-09
-6.8413605e-14
3.243149e-09
-6.4885312e-14
3.2432103e-09
-6.1359932e-14
3.2432685e-09
-5.8212735e-14
3.2433236e-09
-5.5053459e-14
3.2433758e-09
-5.2237019e-14
3.2434252e-09
-4.9398549e-14
3.2434721e-09
-4.6877984e-14
3.2435164e-09
-4.4317088e-14
3.2435585e-09
-4.205637e-14
3.2435982e-09
-3.9734254e-14
3.2436359e-09
-3.7697217e-14
3.2436715e-09
-3.5577138e-14
3.2437052e-09
-3.3732763e-14
3.243737e-09
-3.1803012e-14
3.2437671e-09
-3.012755e-14
3.2437955e-09
-2.8356957e-14
3.2438223e-09
-2.6828433e-14
3.2438475e-09
-2.5194226e-14
3.2438713e-09
-2.3787451e-14
3.2438936e-09
-2.2277337e-14
3.2439145e-09
-2.0967294e-14
3.2439341e-09
-1.95722e-14
3.2439525e-09
-1.8338419e-14
3.2439695e-09
-1.7044772e-14
3.2439854e-09
-1.5871507e-14
3.244e-09
-1.4664042e-14
3.2440136e-09
-1.3530999e-14
3.244026e-09
-1.2405374e-14
3.2440373e-09
-1.1286817e-14
3.2440475e-09
-1.0239951e-14
3.2440566e-09
-9.1101014e-15
3.2440647e-09
-8.1395481e-15
3.2440717e-09
-6.9728471e-15
3.2440778e-09
-6.0764125e-15
3.2440826e-09
-4.8450321e-15
3.2440867e-09
-4.0243309e-15
3.2440894e-09
-2.6943181e-15
3.2440913e-09
-1.956326e-15
3.2440918e-09
-4.934917e-16
3.2440917e-09
1.5865693e-16
3.2440899e-09
1.7907046e-15
3.2440875e-09
2.3373588e-15
3.2440833e-09
4.1886773e-15
3.2440788e-09
4.5431918e-15
7.0129816e-15
4.2092851e-08
2.7872806e-09
-4.1842617e-08
4.1916101e-08
3.9990241e-09
4.1219908e-08
4.500721e-09
4.0246063e-08
4.5816495e-09
3.9094908e-08
4.5611078e-09
3.7765074e-08
4.4734046e-09
3.6275442e-08
4.2428129e-09
3.4686771e-08
3.8601991e-09
3.3085224e-08
3.3760998e-09
3.1539403e-08
2.85924e-09
3.0094783e-08
2.3842257e-09
2.8768294e-08
1.9914851e-09
2.7558757e-08
1.6862207e-09
2.6458212e-08
1.4546504e-09
2.5462312e-08
1.2737978e-09
2.4560001e-08
1.1364548e-09
2.3739288e-08
1.0314963e-09
2.2989041e-08
9.4849569e-10
2.2299648e-08
8.7967654e-10
2.1663131e-08
8.1995808e-10
2.1073024e-08
7.6629129e-10
2.0524111e-08
7.1702079e-10
2.0012104e-08
6.7139603e-10
1.9533349e-08
6.291701e-10
1.9084628e-08
5.9029673e-10
1.8663054e-08
5.5473412e-10
1.8266038e-08
5.2235831e-10
1.7891264e-08
4.9296066e-10
1.7536693e-08
4.6625179e-10
1.720055e-08
4.4190641e-10
1.6881295e-08
4.1961326e-10
1.6577579e-08
3.9911035e-10
1.6288203e-08
3.8019667e-10
1.6012082e-08
3.6272184e-10
1.5748228e-08
3.4656318e-10
1.5495744e-08
3.3160338e-10
1.5253827e-08
3.1771945e-10
1.5021763e-08
3.0478505e-10
1.4798927e-08
2.9268096e-10
1.4584763e-08
2.8130622e-10
1.4378772e-08
2.7058399e-10
1.4180498e-08
2.6045938e-10
1.3989516e-08
2.5089059e-10
1.3805435e-08
2.41838e-10
1.3627894e-08
2.3325722e-10
1.3456572e-08
2.2509886e-10
1.329118e-08
2.1731405e-10
1.3131459e-08
2.0986111e-10
1.2977174e-08
2.0270903e-10
1.2828109e-08
1.9583576e-10
1.2684061e-08
1.8922342e-10
1.2544846e-08
1.8285358e-10
1.2410296e-08
1.7670536e-10
1.2280259e-08
1.7075663e-10
1.2154602e-08
1.6498677e-10
1.2033204e-08
1.5937847e-10
1.1915955e-08
1.539173e-10
1.1802757e-08
1.48589e-10
1.1693526e-08
1.433768e-10
1.1588191e-08
1.3826116e-10
1.1486696e-08
1.3322188e-10
1.1388997e-08
1.2824099e-10
1.1295058e-08
1.2330419e-10
1.1204855e-08
1.1840047e-10
1.1118368e-08
1.1352145e-10
1.1035582e-08
1.0866105e-10
1.0956486e-08
1.0381499e-10
1.0881072e-08
9.8980079e-11
1.0809335e-08
9.4153609e-11
1.0741272e-08
8.9332937e-11
1.0676883e-08
8.4515181e-11
1.0616169e-08
7.9696957e-11
1.0559133e-08
7.4875083e-11
1.0505778e-08
7.0047913e-11
1.0456103e-08
6.5216688e-11
1.0410106e-08
6.0386508e-11
1.0367773e-08
5.5566928e-11
1.0329079e-08
5.0772048e-11
1.0293984e-08
4.6020405e-11
1.0262432e-08
4.1334632e-11
1.0234343e-08
3.6741504e-11
1.0209612e-08
3.2272708e-11
1.0188106e-08
2.7966091e-11
1.0169654e-08
2.3867015e-11
1.0154049e-08
2.0028391e-11
1.0141041e-08
1.6508432e-11
1.0130342e-08
1.3365311e-11
1.0121632e-08
1.0649232e-11
1.0114575e-08
8.3926473e-12
1.0108837e-08
6.6011856e-12
1.0104109e-08
5.2484544e-12
1.0100127e-08
4.2763567e-12
1.009669e-08
3.601551e-12
1.0093661e-08
3.1283136e-12
1.0090968e-08
2.7634837e-12
1.0088591e-08
2.4302104e-12
1.0086537e-08
2.0767492e-12
1.0084833e-08
1.6801801e-12
1.00835e-08
1.2411607e-12
1.0082547e-08
7.7647516e-13
1.0081969e-08
3.0900273e-13
1.0081741e-08
-1.3333491e-13
1.0081834e-08
-5.3732542e-13
1.0082207e-08
-8.9189605e-13
1.0082824e-08
-1.1971863e-12
1.0083641e-08
-1.4423095e-12
1.0084627e-08
-1.6469648e-12
1.0085751e-08
-1.8109367e-12
1.0086988e-08
-1.9416802e-12
1.0088313e-08
-2.0404403e-12
1.0089706e-08
-2.1123775e-12
1.0091149e-08
-2.1617755e-12
1.0092624e-08
-2.1895391e-12
1.0094116e-08
-2.1993982e-12
1.0095612e-08
-2.1893576e-12
1.0097098e-08
-2.1652786e-12
1.0098565e-08
-2.12762e-12
1.0100002e-08
-2.0778132e-12
1.0101401e-08
-2.0186459e-12
1.0102754e-08
-1.9488962e-12
1.0104056e-08
-1.8739958e-12
1.0105304e-08
-1.7937024e-12
1.0106492e-08
-1.7096524e-12
1.010762e-08
-1.6227629e-12
1.0108685e-08
-1.534825e-12
1.0109688e-08
-1.4468589e-12
1.0110628e-08
-1.3595662e-12
1.0111507e-08
-1.2740319e-12
1.0112326e-08
-1.1901948e-12
1.0113087e-08
-1.1094114e-12
1.0113792e-08
-1.0315268e-12
1.0114445e-08
-9.5678384e-13
1.0115047e-08
-8.8543099e-13
1.0115601e-08
-8.1779212e-13
1.0116111e-08
-7.5425186e-13
1.011658e-08
-6.9522647e-13
1.0117011e-08
-6.408641e-13
1.0117409e-08
-5.9140735e-13
1.0117775e-08
-5.4660111e-13
1.0118114e-08
-5.0627035e-13
1.0118428e-08
-4.7006299e-13
1.011872e-08
-4.3761945e-13
1.0118992e-08
-4.0826264e-13
1.0119246e-08
-3.8175457e-13
1.0119482e-08
-3.5741585e-13
1.0119704e-08
-3.3529373e-13
1.0119912e-08
-3.1462613e-13
1.0120106e-08
-2.957379e-13
1.0120289e-08
-2.7785362e-13
1.012046e-08
-2.6154341e-13
1.0120621e-08
-2.4589433e-13
1.0120771e-08
-2.3168815e-13
1.0120913e-08
-2.1788633e-13
1.0121046e-08
-2.0545067e-13
1.0121171e-08
-1.9328326e-13
1.0121288e-08
-1.8235214e-13
1.0121399e-08
-1.7157101e-13
1.0121502e-08
-1.6191474e-13
1.01216e-08
-1.5232238e-13
1.0121691e-08
-1.4376834e-13
1.0121777e-08
-1.3521124e-13
1.0121858e-08
-1.2763474e-13
1.0121933e-08
-1.1996631e-13
1.0122005e-08
-1.1324424e-13
1.0122071e-08
-1.0633051e-13
1.0122134e-08
-1.0034623e-13
1.0122192e-08
-9.4068163e-14
1.0122247e-08
-8.8724999e-14
1.0122299e-08
-8.3023151e-14
1.0122347e-08
-7.8241992e-14
1.0122391e-08
-7.3016618e-14
1.0122433e-08
-6.8723907e-14
1.0122472e-08
-6.389317e-14
1.0122508e-08
-6.0012228e-14
1.0122541e-08
-5.55228e-14
1.0122572e-08
-5.1981866e-14
1.0122601e-08
-4.7793888e-14
1.0122627e-08
-4.453199e-14
1.012265e-08
-4.0597551e-14
1.0122672e-08
-3.7563263e-14
1.0122691e-08
-3.3830084e-14
1.0122709e-08
-3.0962793e-14
1.0122724e-08
-2.7404448e-14
1.0122737e-08
-2.4630515e-14
1.0122748e-08
-2.1227452e-14
1.0122757e-08
-1.8469166e-14
1.0122764e-08
-1.5207533e-14
1.012277e-08
-1.2383074e-14
1.0122773e-08
-9.2553769e-15
1.0122774e-08
-6.2717957e-15
1.0122774e-08
-3.2864794e-15
1.0122771e-08
-2.579733e-17
1.0122766e-08
2.7815379e-15
1.0122759e-08
6.4625956e-15
1.012275e-08
9.040383e-15
1.0122739e-08
1.3318217e-14
1.0122726e-08
1.5541784e-14
1.0122709e-08
2.0680728e-14
1.0122692e-08
2.2162891e-14
2.941203e-14
4.4014974e-08
2.642674e-09
-4.3870367e-08
4.4385978e-08
3.6280201e-09
4.4578332e-08
4.3083669e-09
4.4620914e-08
4.5390672e-09
4.457846e-08
4.6035617e-09
4.4448838e-08
4.6030275e-09
4.4179587e-08
4.5120638e-09
4.3750731e-08
4.2890547e-09
4.3183442e-08
3.9433892e-09
4.2513564e-08
3.5291183e-09
4.1782853e-08
3.1149367e-09
4.1023222e-08
2.7511157e-09
4.0253397e-08
2.4560461e-09
3.9484722e-08
2.2233253e-09
3.8721598e-08
2.0369219e-09
3.7970092e-08
1.8879601e-09
3.7233506e-08
1.7680828e-09
3.6513103e-08
1.6688984e-09
3.5809326e-08
1.5834535e-09
3.5122466e-08
1.5068184e-09
3.4452896e-08
1.4358612e-09
3.3801114e-08
1.3688028e-09
3.3167694e-08
1.3048161e-09
3.2553198e-08
1.2436659e-09
3.1958081e-08
1.185414e-09
3.1382623e-08
1.1301923e-09
3.0826901e-08
1.0780796e-09
3.0290774e-08
1.0290882e-09
2.977391e-08
9.831154e-10
2.9275835e-08
9.3998194e-10
2.8795968e-08
8.9947972e-10
2.8333664e-08
8.6141409e-10
2.7888235e-08
8.2562609e-10
2.7458967e-08
7.9199011e-10
2.7045136e-08
7.6039417e-10
2.6646022e-08
7.3071734e-10
2.6260923e-08
7.0281774e-10
2.5889172e-08
6.7653601e-10
2.5530144e-08
6.5170962e-10
2.518326e-08
6.2819027e-10
2.4847987e-08
6.0585672e-10
2.4523829e-08
5.8461765e-10
2.4210316e-08
5.6440341e-10
2.3907002e-08
5.4515177e-10
2.3613463e-08
5.2679623e-10
2.3329299e-08
5.0926332e-10
2.3054134e-08
4.9247855e-10
2.278762e-08
4.7637535e-10
2.2529429e-08
4.6089976e-10
2.2279257e-08
4.4600819e-10
2.2036819e-08
4.3166102e-10
2.1801857e-08
4.1781626e-10
2.1574135e-08
4.0442734e-10
2.1353446e-08
3.9144526e-10
2.1139609e-08
3.788238e-10
2.0932464e-08
3.6652326e-10
2.0731871e-08
3.5451029e-10
2.0537707e-08
3.4275352e-10
2.0349865e-08
3.3121891e-10
2.0168257e-08
3.1986895e-10
1.9992813e-08
3.0866593e-10
1.9823478e-08
2.9757593e-10
1.9660211e-08
2.8657091e-10
1.9502984e-08
2.7562791e-10
1.9351777e-08
2.6472829e-10
1.9206581e-08
2.5385712e-10
1.9067393e-08
2.4300273e-10
1.8934217e-08
2.3215569e-10
1.8807063e-08
2.2130831e-10
1.8685941e-08
2.1045406e-10
1.8570869e-08
1.9958726e-10
1.8461864e-08
1.8870275e-10
1.8358941e-08
1.7779724e-10
1.8262118e-08
1.6687157e-10
1.8171402e-08
1.5593289e-10
1.8086792e-08
1.4499652e-10
1.8008271e-08
1.3408708e-10
1.7935805e-08
1.2323878e-10
1.786933e-08
1.1249554e-10
1.7808754e-08
1.0191067e-10
1.7753948e-08
9.1546937e-11
1.7704743e-08
8.1477676e-11
1.7660921e-08
7.1788273e-11
1.7622211e-08
6.2577212e-11
1.7588285e-08
5.3954481e-11
1.7558757e-08
4.6035752e-11
1.7533191e-08
3.8931332e-11
1.7511109e-08
3.2731096e-11
1.7492015e-08
2.7487017e-11
1.7475418e-08
2.3198164e-11
1.7460864e-08
1.9802458e-11
1.7447961e-08
1.7179462e-11
1.7436398e-08
1.51643e-11
1.7425955e-08
1.3572064e-11
1.7416492e-08
1.222552e-11
1.7407943e-08
1.0979817e-11
1.7400282e-08
9.7380883e-12
1.7393506e-08
8.455997e-12
1.7387614e-08
7.1332382e-12
1.7382591e-08
5.7992366e-12
1.7378404e-08
4.4954307e-12
1.7375006e-08
3.2652176e-12
1.7372331e-08
2.137122e-12
1.7370311e-08
1.1284837e-12
1.7368877e-08
2.3715493e-13
1.7367954e-08
-5.1964621e-13
1.7367484e-08
-1.1772723e-12
1.736741e-08
-1.7365421e-12
1.736768e-08
-2.2117594e-12
1.7368246e-08
-2.6068554e-12
1.7369067e-08
-2.9326229e-12
1.7370102e-08
-3.1969015e-12
1.7371315e-08
-3.4027669e-12
1.7372673e-08
-3.5575505e-12
1.7374143e-08
-3.6593267e-12
1.7375697e-08
-3.7190794e-12
1.7377308e-08
-3.7385055e-12
1.7378951e-08
-3.721337e-12
1.7380606e-08
-3.6733981e-12
1.7382251e-08
-3.594032e-12
1.7383871e-08
-3.4934817e-12
1.738545e-08
-3.3725866e-12
1.7386976e-08
-3.2355001e-12
1.7388438e-08
-3.0851564e-12
1.7389829e-08
-2.9259591e-12
1.7391143e-08
-2.7609462e-12
1.7392376e-08
-2.5926737e-12
1.7393527e-08
-2.4243023e-12
1.7394593e-08
-2.2570035e-12
1.7395578e-08
-2.0941052e-12
1.7396483e-08
-1.9363349e-12
1.7397311e-08
-1.7849233e-12
1.7398066e-08
-1.6408962e-12
1.7398754e-08
-1.5051835e-12
1.7399378e-08
-1.3786577e-12
1.7399945e-08
-1.2620286e-12
1.740046e-08
-1.1554481e-12
1.7400927e-08
-1.0591297e-12
1.7401353e-08
-9.7241698e-13
1.7401742e-08
-8.9475857e-13
1.7402097e-08
-8.2534001e-13
1.7402423e-08
-7.6331998e-13
1.7402722e-08
-7.0742573e-13
1.7402997e-08
-6.5707114e-13
1.7403251e-08
-6.1106099e-13
1.7403485e-08
-5.6931274e-13
1.7403701e-08
-5.3055763e-13
1.74039e-08
-4.951941e-13
1.7404084e-08
-4.619696e-13
1.7404254e-08
-4.3169615e-13
1.7404411e-08
-4.0290923e-13
1.7404557e-08
-3.7679114e-13
1.740469e-08
-3.516671e-13
1.7404814e-08
-3.2904533e-13
1.7404928e-08
-3.0711822e-13
1.7405033e-08
-2.8746224e-13
1.740513e-08
-2.6822671e-13
1.7405219e-08
-2.5108027e-13
1.74053e-08
-2.3413087e-13
1.7405376e-08
-2.1914561e-13
1.7405445e-08
-2.0416745e-13
1.7405508e-08
-1.9108508e-13
1.7405566e-08
-1.7778195e-13
1.7405619e-08
-1.6635428e-13
1.7405667e-08
-1.5445545e-13
1.7405711e-08
-1.4445338e-13
1.7405751e-08
-1.3372118e-13
1.7405787e-08
-1.249567e-13
1.740582e-08
-1.1525497e-13
1.7405849e-08
-1.0757286e-13
1.7405875e-08
-9.8705657e-14
1.7405898e-08
-9.1962976e-14
1.7405918e-08
-8.3763525e-14
1.7405935e-08
-7.7817025e-14
1.740595e-08
-7.0167357e-14
1.7405963e-08
-6.4886993e-14
1.7405973e-08
-5.7696337e-14
1.7405981e-08
-5.2970533e-14
1.7405987e-08
-4.6140234e-14
1.7405991e-08
-4.1871157e-14
1.7405993e-08
-3.5297312e-14
1.7405993e-08
-3.137259e-14
1.7405991e-08
-2.4993918e-14
1.7405987e-08
-2.1280148e-14
1.7405981e-08
-1.505024e-14
1.7405974e-08
-1.1403067e-14
1.7405964e-08
-5.291996e-15
1.7405953e-08
-1.5521623e-15
1.740594e-08
4.4493138e-15
1.7405925e-08
8.4703477e-15
1.7405907e-08
1.4332575e-14
1.7405888e-08
1.8881165e-14
1.7405867e-08
2.4509961e-14
1.7405843e-08
2.9909045e-14
1.7405817e-08
3.5140506e-14
1.7405789e-08
4.1818793e-14
1.7405758e-08
4.6313643e-14
1.7405724e-08
5.4931109e-14
1.7405688e-08
5.783605e-14
7.0527793e-14
4.5942007e-08
2.5756931e-09
-4.5875026e-08
4.6246243e-08
3.3237846e-09
4.657312e-08
3.9814898e-09
4.6818359e-08
4.2938283e-09
4.7026979e-08
4.394942e-09
4.7224161e-08
4.4058447e-09
4.7377595e-08
4.3586302e-09
4.7447525e-08
4.2191245e-09
4.7415234e-08
3.9756797e-09
4.7284779e-08
3.6595735e-09
4.7076657e-08
3.3230593e-09
4.6814283e-08
3.0134897e-09
4.6515506e-08
2.7548228e-09
4.6190228e-08
2.5486031e-09
4.5842321e-08
2.3848286e-09
4.5476727e-08
2.2535549e-09
4.509751e-08
2.1472996e-09
4.4706869e-08
2.0595393e-09
4.4305769e-08
1.9845533e-09
4.3894762e-08
1.9178249e-09
4.3474433e-08
1.8561902e-09
4.304556e-08
1.7976761e-09
4.2609163e-08
1.7412135e-09
4.2166489e-08
1.6863394e-09
4.1718963e-08
1.6329406e-09
4.1268102e-08
1.5810534e-09
4.0815435e-08
1.5307466e-09
4.0362445e-08
1.482078e-09
3.991051e-08
1.43505e-09
3.9460869e-08
1.389623e-09
3.9014602e-08
1.345747e-09
3.8572624e-08
1.3033922e-09
3.8135687e-08
1.2625624e-09
3.7704391e-08
1.2232865e-09
3.7279193e-08
1.1855921e-09
3.6860434e-08
1.1494769e-09
3.6448359e-08
1.1148922e-09
3.6043151e-08
1.0817443e-09
3.5644951e-08
1.0499091e-09
3.5253888e-08
1.0192536e-09
3.4870087e-08
9.896572e-10
3.4493681e-08
9.6102447e-10
3.4124798e-08
9.3328637e-10
3.3763558e-08
9.0639184e-10
3.3410056e-08
8.8029776e-10
3.3064355e-08
8.5496445e-10
3.2726476e-08
8.3035798e-10
3.2396396e-08
8.0645438e-10
3.2074057e-08
7.832394e-10
3.1759363e-08
7.6070186e-10
3.14522e-08
7.3882436e-10
3.1152441e-08
7.1757553e-10
3.085996e-08
6.9690745e-10
3.0574647e-08
6.7675879e-10
3.0296408e-08
6.5706309e-10
3.0025174e-08
6.3775702e-10
2.97609e-08
6.1878439e-10
2.9503559e-08
6.0009392e-10
2.9253144e-08
5.8163468e-10
2.9009657e-08
5.633551e-10
2.8773117e-08
5.4520646e-10
2.8543546e-08
5.2714681e-10
2.8320975e-08
5.0914222e-10
2.8105438e-08
4.911647e-10
2.7896976e-08
4.7319038e-10
2.7695635e-08
4.5519847e-10
2.7501467e-08
4.371706e-10
2.7314532e-08
4.1909038e-10
2.7134896e-08
4.0094379e-10
2.6962631e-08
3.8271955e-10
2.6797809e-08
3.6440929e-10
2.6640504e-08
3.4600739e-10
2.6490789e-08
3.2751294e-10
2.6348728e-08
3.0893267e-10
2.6214377e-08
2.9028372e-10
2.6087777e-08
2.7159614e-10
2.596895e-08
2.5291448e-10
2.585789e-08
2.3429854e-10
2.5754562e-08
2.1582384e-10
2.5658891e-08
1.975813e-10
2.557076e-08
1.7967761e-10
2.5490002e-08
1.6223629e-10
2.5416391e-08
1.4539913e-10
2.5349641e-08
1.293266e-10
2.5289402e-08
1.1419437e-10
2.5235253e-08
1.0018391e-10
2.5186719e-08
8.7466036e-11
2.5143271e-08
7.6179213e-11
2.5104353e-08
6.6404853e-11
2.5069405e-08
5.8146328e-11
2.503789e-08
5.1316947e-11
2.5009326e-08
4.5743517e-11
2.4983304e-08
4.1185909e-11
2.4959505e-08
3.7371203e-11
2.4937697e-08
3.4033692e-11
2.4917726e-08
3.095113e-11
2.4899495e-08
2.7968846e-11
2.4882943e-08
2.5007824e-11
2.4868022e-08
2.2054934e-11
2.4854678e-08
1.914309e-11
2.4842846e-08
1.6326714e-11
2.4832448e-08
1.366351e-11
2.482339e-08
1.1195597e-11
2.481557e-08
8.948115e-12
2.4808884e-08
6.9227963e-12
2.4803238e-08
5.1271282e-12
2.479853e-08
3.5298392e-12
2.4794675e-08
2.1193001e-12
2.4791589e-08
8.7383415e-13
2.4789195e-08
-2.1241791e-13
2.478742e-08
-1.1585015e-12
2.47862e-08
-1.9765967e-12
2.478547e-08
-2.6726601e-12
2.4785171e-08
-3.2585782e-12
2.4785244e-08
-3.7326117e-12
2.4785638e-08
-4.1126459e-12
2.4786301e-08
-4.4015204e-12
2.4787186e-08
-4.6061189e-12
2.4788249e-08
-4.736264e-12
2.4789447e-08
-4.792075e-12
2.4790743e-08
-4.7900712e-12
2.4792103e-08
-4.7326992e-12
2.4793496e-08
-4.6278638e-12
2.4794892e-08
-4.4816328e-12
2.4796269e-08
-4.3024671e-12
2.4797605e-08
-4.0969074e-12
2.4798883e-08
-3.871053e-12
2.4800091e-08
-3.6320605e-12
2.4801218e-08
-3.3841518e-12
2.4802259e-08
-3.1348007e-12
2.480321e-08
-2.8875132e-12
2.4804071e-08
-2.6463675e-12
2.4804845e-08
-2.4147933e-12
2.4805536e-08
-2.1956525e-12
2.4806148e-08
-1.9913296e-12
2.480669e-08
-1.8035078e-12
2.4807167e-08
-1.6327449e-12
2.4807587e-08
-1.4793928e-12
2.4807957e-08
-1.3423579e-12
2.4808283e-08
-1.2205729e-12
2.480857e-08
-1.1125781e-12
2.4808824e-08
-1.0168121e-12
2.4809048e-08
-9.3121389e-13
2.4809245e-08
-8.546494e-13
2.4809419e-08
-7.8527529e-13
2.4809573e-08
-7.2274098e-13
2.4809707e-08
-6.6518342e-13
2.4809825e-08
-6.1298736e-13
2.4809928e-08
-5.6437134e-13
2.4810016e-08
-5.2034457e-13
2.4810092e-08
-4.7883572e-13
2.4810157e-08
-4.4143563e-13
2.4810211e-08
-4.0574243e-13
2.4810256e-08
-3.7388354e-13
2.4810292e-08
-3.4319407e-13
2.481032e-08
-3.1601105e-13
2.4810342e-08
-2.8948803e-13
2.4810357e-08
-2.6624425e-13
2.4810366e-08
-2.4321644e-13
2.481037e-08
-2.2334021e-13
2.4810369e-08
-2.0328581e-13
2.4810365e-08
-1.8634697e-13
2.4810356e-08
-1.687852e-13
2.4810344e-08
-1.5438214e-13
2.4810328e-08
-1.3887719e-13
2.481031e-08
-1.2664529e-13
2.4810289e-08
-1.1281335e-13
2.4810267e-08
-1.0245375e-13
2.4810242e-08
-9.0060464e-14
2.4810215e-08
-8.1327125e-14
2.4810187e-08
-7.0062108e-14
2.4810157e-08
-6.2732829e-14
2.4810126e-08
-5.2329398e-14
2.4810094e-08
-4.6186482e-14
2.4810061e-08
-3.6446727e-14
2.4810027e-08
-3.1295765e-14
2.4809991e-08
-2.2064863e-14
2.4809956e-08
-1.7737664e-14
2.4809919e-08
-8.8580346e-15
2.4809882e-08
-5.203786e-15
2.4809843e-08
3.4855275e-15
2.4809805e-08
6.6379499e-15
2.4809765e-08
1.523712e-14
2.4809726e-08
1.8088183e-14
2.4809684e-08
2.6672327e-14
2.4809643e-08
2.9444282e-14
2.48096e-08
3.8054715e-14
2.4809557e-08
4.1001783e-14
2.4809512e-08
4.9637418e-14
2.4809468e-08
5.3069224e-14
2.480942e-08
6.1656987e-14
2.4809373e-08
6.598612e-14
2.4809323e-08
7.4336706e-14
2.4809273e-08
8.0123097e-14
2.480922e-08
8.7903205e-14
2.4809166e-08
9.5906072e-14
2.480911e-08
1.024969e-13
2.4809051e-08
1.1384003e-13
2.4808991e-08
1.1798343e-13
1.3532456e-13
4.7960469e-08
2.5208875e-09
-4.7905663e-08
4.8181583e-08
3.1026706e-09
4.8492697e-08
3.670376e-09
4.8770007e-08
4.0165179e-09
4.9009424e-08
4.1555249e-09
4.924114e-08
4.1741291e-09
4.9465021e-08
4.1347494e-09
4.9654092e-08
4.0300534e-09
4.9783375e-08
3.846397e-09
4.9843769e-08
3.5991796e-09
4.9843696e-08
3.3231316e-09
4.9800162e-08
3.0570236e-09
4.9727634e-08
2.8273515e-09
4.9634536e-08
2.6417008e-09
4.9524415e-08
2.4949497e-09
4.9399923e-08
2.3780464e-09
4.9263521e-08
2.2837018e-09
4.91166e-08
2.2064604e-09
4.8959392e-08
2.1417612e-09
4.8791459e-08
2.0857584e-09
4.8612166e-08
2.0354827e-09
4.8420957e-08
1.9888855e-09
4.8217482e-08
1.9446882e-09
4.8001664e-08
1.9021571e-09
4.7773709e-08
1.8608957e-09
4.7534073e-08
1.8206893e-09
4.7283415e-08
1.781405e-09
4.7022553e-08
1.7429401e-09
4.6752408e-08
1.7051949e-09
4.6473955e-08
1.6680761e-09
4.6188181e-08
1.6315206e-09
4.5896055e-08
1.5955188e-09
4.5598493e-08
1.5601236e-09
4.5296342e-08
1.5254375e-09
4.4990355e-08
1.4915799e-09
4.4681182e-08
1.4586495e-09
4.4369377e-08
1.4266976e-09
4.4055404e-08
1.3957173e-09
4.3739665e-08
1.3656479e-09
4.3422529e-08
1.336389e-09
4.3104366e-08
1.3078208e-09
4.2785568e-08
1.2798217e-09
4.2466575e-08
1.2522794e-09
4.2147872e-08
1.2250953e-09
4.1829983e-08
1.1981864e-09
4.1513456e-08
1.1714921e-09
4.1198831e-08
1.1449828e-09
4.0886619e-08
1.1186663e-09
4.0577274e-08
1.0925845e-09
4.0271176e-08
1.0667999e-09
3.9968623e-08
1.0413773e-09
3.9669833e-08
1.0163653e-09
3.9374957e-08
9.9178352e-10
3.9084099e-08
9.6761714e-10
3.8797341e-08
9.4382054e-10
3.8514772e-08
9.2032641e-10
3.8236501e-08
8.9705578e-10
3.796267e-08
8.7392409e-10
3.769346e-08
8.5084511e-10
3.7429078e-08
8.2773741e-10
3.7169751e-08
8.0453337e-10
3.6915712e-08
7.8118528e-10
3.6667189e-08
7.5766537e-10
3.6424394e-08
7.3395973e-10
3.6187523e-08
7.1006172e-10
3.5956755e-08
6.85966e-10
3.5732262e-08
6.6166412e-10
3.551421e-08
6.3714239e-10
3.530277e-08
6.1238344e-10
3.509812e-08
5.873693e-10
3.4900445e-08
5.6208503e-10
3.4709931e-08
5.3652147e-10
3.4526764e-08
5.1067955e-10
3.4351122e-08
4.8457478e-10
3.4183166e-08
4.5823968e-10
3.4023036e-08
4.3172573e-10
3.3870847e-08
4.0510392e-10
3.3726681e-08
3.7846462e-10
3.3590587e-08
3.5191804e-10
3.3462574e-08
3.2559414e-10
3.3342608e-08
2.9964377e-10
3.3230604e-08
2.7424032e-10
3.3126421e-08
2.4958146e-10
3.3029859e-08
2.2588888e-10
3.294065e-08
2.0340302e-10
3.2858464e-08
1.8237055e-10
3.2782906e-08
1.6302333e-10
3.2713534e-08
1.4555181e-10
3.2649864e-08
1.3007501e-10
3.2591395e-08
1.166151e-10
3.253763e-08
1.0508217e-10
3.2488096e-08
9.5277086e-11
3.2442369e-08
8.6913405e-11
3.2400083e-08
7.9656944e-11
3.2360943e-08
7.3173769e-11
3.2324719e-08
6.7175317e-11
3.2291237e-08
6.1450343e-11
3.2260367e-08
5.5878369e-11
3.2232e-08
5.042188e-11
3.2206038e-08
4.5104423e-11
3.2182383e-08
3.998222e-11
3.2160927e-08
3.511972e-11
3.2141554e-08
3.056805e-11
3.2124143e-08
2.6358734e-11
3.2108568e-08
2.2498431e-11
3.2094705e-08
1.8989511e-11
3.2082433e-08
1.5802654e-11
3.2071633e-08
1.2918834e-11
3.2062195e-08
1.0312241e-11
3.2054016e-08
7.9663987e-12
3.2046997e-08
5.8601274e-12
3.2041042e-08
3.9782319e-12
3.203606e-08
2.3093544e-12
3.2031966e-08
8.3587921e-13
3.2028671e-08
-4.3799915e-13
3.2026098e-08
-1.5397739e-12
3.2024169e-08
-2.4724784e-12
3.2022809e-08
-3.2459764e-12
3.2021947e-08
-3.8742233e-12
3.2021512e-08
-4.357227e-12
3.2021441e-08
-4.7189151e-12
3.2021671e-08
-4.9625047e-12
3.2022143e-08
-5.1000859e-12
3.2022803e-08
-5.1410154e-12
3.2023599e-08
-5.098397e-12
3.2024485e-08
-4.9829411e-12
3.2025419e-08
-4.8053528e-12
3.2026365e-08
-4.5783302e-12
3.2027292e-08
-4.3108009e-12
3.2028174e-08
-4.0170386e-12
3.2028993e-08
-3.70602e-12
3.2029734e-08
-3.3878121e-12
3.2030391e-08
-3.0714712e-12
3.203096e-08
-2.7648758e-12
3.2031443e-08
-2.4746842e-12
3.2031846e-08
-2.2057903e-12
3.2032174e-08
-1.9608476e-12
3.2032436e-08
-1.7414797e-12
3.203264e-08
-1.5467433e-12
3.2032795e-08
-1.3752992e-12
3.2032907e-08
-1.2250218e-12
3.2032984e-08
-1.0934149e-12
3.203303e-08
-9.7738722e-13
3.203305e-08
-8.7497643e-13
3.2033049e-08
-7.8345811e-13
3.2033028e-08
-7.020188e-13
3.2032991e-08
-6.2802144e-13
3.2032939e-08
-5.617392e-13
3.2032876e-08
-5.0072292e-13
3.2032802e-08
-4.4618512e-13
3.2032718e-08
-3.9528391e-13
3.2032627e-08
-3.5013185e-13
3.2032528e-08
-3.0736665e-13
3.2032424e-08
-2.6996879e-13
3.2032315e-08
-2.3407748e-13
3.2032203e-08
-2.0315912e-13
3.2032086e-08
-1.7290213e-13
3.2031967e-08
-1.4739636e-13
3.2031846e-08
-1.217913e-13
3.2031723e-08
-1.0085954e-13
3.2031599e-08
-7.9140873e-14
3.2031475e-08
-6.2146608e-14
3.203135e-08
-4.3623769e-14
3.2031225e-08
-2.9990861e-14
3.20311e-08
-1.4045795e-14
3.2030977e-08
-3.2616071e-15
3.2030854e-08
1.0654457e-14
3.2030732e-08
1.9011597e-14
3.2030611e-08
3.1242513e-14
3.2030492e-08
3.7518975e-14
3.2030373e-08
4.8498286e-14
3.2030258e-08
5.2999062e-14
3.2030142e-08
6.3098404e-14
3.203003e-08
6.6115659e-14
3.2029918e-08
7.5619718e-14
3.2029809e-08
7.7412442e-14
3.2029701e-08
8.6544075e-14
3.2029595e-08
8.7339501e-14
3.202949e-08
9.6314591e-14
3.2029389e-08
9.6320933e-14
3.2029287e-08
1.0535101e-13
3.2029189e-08
1.047975e-13
3.202909e-08
1.1402462e-13
3.2028995e-08
1.1318017e-13
3.2028899e-08
1.2270005e-13
3.2028806e-08
1.2187198e-13
3.2028713e-08
1.3172686e-13
3.2028622e-08
1.312747e-13
3.2028531e-08
1.4143891e-13
3.2028442e-08
1.4180659e-13
3.2028351e-08
1.5214362e-13
3.2028264e-08
1.5392876e-13
3.2028174e-08
1.6412962e-13
3.2028086e-08
1.6815175e-13
3.2027996e-08
1.7769482e-13
3.2027907e-08
1.8504467e-13
3.2027816e-08
1.9306506e-13
3.2027725e-08
2.0523718e-13
3.2027632e-08
2.1030764e-13
2.3004585e-13
5.0045949e-08
2.4610854e-09
-4.9986147e-08
5.0217672e-08
2.9309477e-09
5.0486324e-08
3.4017242e-09
5.0758572e-08
3.7442699e-09
5.1000099e-08
3.9139972e-09
5.12216e-08
3.9526283e-09
5.1436387e-08
3.9199626e-09
5.1632997e-08
3.8334432e-09
5.1791452e-08
3.6879421e-09
5.1900162e-08
3.4904693e-09
5.1961073e-08
3.2622206e-09
5.1986079e-08
3.0320181e-09
5.1988479e-08
2.8249512e-09
5.1976917e-08
2.6532628e-09
5.1955775e-08
2.5160919e-09
5.1927227e-08
2.4065947e-09
5.1892969e-08
2.3179595e-09
5.1854198e-08
2.2452318e-09
5.1811271e-08
2.1846874e-09
5.1763804e-08
2.1332257e-09
5.1710991e-08
2.0882958e-09
5.1651897e-08
2.0479791e-09
5.1585634e-08
2.0109512e-09
5.1511453e-08
1.9763384e-09
5.142879e-08
1.9435587e-09
5.1337277e-08
1.9122026e-09
5.1236729e-08
1.8819527e-09
5.112713e-08
1.8525391e-09
5.1008604e-08
1.8237213e-09
5.0881388e-08
1.795292e-09
5.0745811e-08
1.7670977e-09
5.0602269e-08
1.7390608e-09
5.0451201e-08
1.7111917e-09
5.029306e-08
1.6835787e-09