/*--------------------------------*- C++ -*----------------------------------*\
| =========                 |                                                 |
| \\      /  F ield         | OpenFOAM: The Open Source CFD Toolbox           |
|  \\    /   O peration     | Version:  5.x                                   |
|   \\  /    A nd           | Web:      www.OpenFOAM.org                      |
|    \\/     M anipulation  |                                                 |
\*---------------------------------------------------------------------------*/
FoamFile
{
    version     2.0;
    format      ascii;
    class       volVectorField;
    location    "0.1";
    object      U;
}
// * * * * * * * * * * * * * * * * * * * * * * * * * * * * * * * * * * * * * //

dimensions      [0 1 -1 0 0 0 0];

internalField   nonuniform List<vector> 
21600
(
(0.44568526 0.0099548785 0)
(0.40240157 0.013322818 0)
(0.3611983 0.013532113 0)
(0.31944122 0.012412278 0)
(0.27776006 0.011074954 0)
(0.23803816 0.0096167244 0)
(0.20238486 0.0078473315 0)
(0.17257325 0.0057795764 0)
(0.14904918 0.0036185314 0)
(0.13140475 0.0018044994 0)
(0.11856422 0.00060390212 0)
(0.10934024 -3.7499174e-05 0)
(0.10271898 -0.00030889262 0)
(0.097868623 -0.00036241306 0)
(0.094171352 -0.00030584549 0)
(0.091170141 -0.00020233943 0)
(0.08855873 -9.2584064e-05 0)
(0.086156606 -4.6290174e-08 0)
(0.083872992 6.6963892e-05 0)
(0.081674119 0.00010943575 0)
(0.07955646 0.00013234015 0)
(0.07752811 0.00014147543 0)
(0.075598242 0.00014191152 0)
(0.073772427 0.00013744857 0)
(0.072051507 0.00013064854 0)
(0.070432202 0.0001230746 0)
(0.068908499 0.00011557547 0)
(0.067472962 0.00010855125 0)
(0.066117851 0.00010212216 0)
(0.064835877 9.6259509e-05 0)
(0.063620569 9.0880996e-05 0)
(0.062466321 8.5908255e-05 0)
(0.061368241 8.1291702e-05 0)
(0.060321946 7.7009762e-05 0)
(0.059323416 7.3053362e-05 0)
(0.05836894 6.9409002e-05 0)
(0.05745514 6.605021e-05 0)
(0.056579028 6.2939546e-05 0)
(0.055738015 6.003705e-05 0)
(0.054929884 5.7309286e-05 0)
(0.054152705 5.4734678e-05 0)
(0.053404747 5.2303233e-05 0)
(0.052684402 5.0011285e-05 0)
(0.051990164 4.7854142e-05 0)
(0.051320638 4.5821022e-05 0)
(0.050674574 4.3895067e-05 0)
(0.050050886 4.2057863e-05 0)
(0.049448642 4.0294986e-05 0)
(0.048867025 3.8599064e-05 0)
(0.048305282 3.6968919e-05 0)
(0.047762698 3.5406079e-05 0)
(0.047238582 3.3911069e-05 0)
(0.046732282 3.2481761e-05 0)
(0.046243193 3.1114079e-05 0)
(0.045770768 2.9803946e-05 0)
(0.045314507 2.8548744e-05 0)
(0.044873946 2.7347148e-05 0)
(0.044448654 2.6197338e-05 0)
(0.044038238 2.5095165e-05 0)
(0.043642362 2.4033819e-05 0)
(0.043260756 2.3005383e-05 0)
(0.042893223 2.2002957e-05 0)
(0.04253962 2.1021731e-05 0)
(0.042199847 2.0058744e-05 0)
(0.041873836 1.9112453e-05 0)
(0.041561532 1.8182505e-05 0)
(0.041262893 1.7269387e-05 0)
(0.04097788 1.6373817e-05 0)
(0.040706454 1.5496225e-05 0)
(0.04044858 1.4636445e-05 0)
(0.040204227 1.3793337e-05 0)
(0.039973378 1.2964483e-05 0)
(0.039756034 1.2146425e-05 0)
(0.039552217 1.1335431e-05 0)
(0.039361963 1.0528219e-05 0)
(0.039185317 9.722375e-06 0)
(0.039022316 8.9166176e-06 0)
(0.038872976 8.1107186e-06 0)
(0.038737278 7.3050946e-06 0)
(0.038615153 6.5003754e-06 0)
(0.03850648 5.697302e-06 0)
(0.038411064 4.8971485e-06 0)
(0.038328628 4.1027454e-06 0)
(0.038258782 3.3200327e-06 0)
(0.038200989 2.5594096e-06 0)
(0.038154526 1.836393e-06 0)
(0.038118448 1.1711954e-06 0)
(0.038091583 5.8774485e-07 0)
(0.038072551 1.1154312e-07 0)
(0.038059835 -2.3741076e-07 0)
(0.03805188 -4.6098255e-07 0)
(0.038047223 -5.7647319e-07 0)
(0.038044612 -6.0671354e-07 0)
(0.038043103 -5.7818674e-07 0)
(0.038042106 -5.1745194e-07 0)
(0.038041369 -4.4732972e-07 0)
(0.038040907 -3.8377851e-07 0)
(0.038040902 -3.5635167e-07 0)
(0.038041594 -3.6059325e-07 0)
(0.038043199 -3.8435081e-07 0)
(0.038045859 -4.1973899e-07 0)
(0.038049611 -4.4303226e-07 0)
(0.038054405 -4.746325e-07 0)
(0.038060128 -5.0301207e-07 0)
(0.038066648 -5.2488918e-07 0)
(0.038073797 -5.3418772e-07 0)
(0.038081418 -5.4065201e-07 0)
(0.038089397 -5.4134825e-07 0)
(0.038097633 -5.3920673e-07 0)
(0.038106034 -5.3336094e-07 0)
(0.03811452 -5.2398219e-07 0)
(0.03812303 -5.1275924e-07 0)
(0.038131508 -4.9964394e-07 0)
(0.03813991 -4.8568426e-07 0)
(0.038148187 -4.6934082e-07 0)
(0.0381563 -4.5270465e-07 0)
(0.038164217 -4.3545419e-07 0)
(0.03817191 -4.1762774e-07 0)
(0.038179357 -3.9988736e-07 0)
(0.038186535 -3.8106978e-07 0)
(0.038193427 -3.6303353e-07 0)
(0.038200028 -3.4509817e-07 0)
(0.03820633 -3.2746282e-07 0)
(0.038212329 -3.100303e-07 0)
(0.038218023 -2.9307658e-07 0)
(0.038223416 -2.7664504e-07 0)
(0.038228513 -2.6068363e-07 0)
(0.038233318 -2.4531471e-07 0)
(0.03823784 -2.3023041e-07 0)
(0.038242084 -2.1579752e-07 0)
(0.038246062 -2.0177236e-07 0)
(0.03824978 -1.8810816e-07 0)
(0.038253248 -1.7480363e-07 0)
(0.038256473 -1.6191431e-07 0)
(0.038259467 -1.4953504e-07 0)
(0.038262242 -1.3782819e-07 0)
(0.038264811 -1.2688899e-07 0)
(0.03826719 -1.168551e-07 0)
(0.038269396 -1.0771362e-07 0)
(0.038271445 -9.9483675e-08 0)
(0.038273351 -9.2123318e-08 0)
(0.03827513 -8.5581458e-08 0)
(0.038276794 -7.9694384e-08 0)
(0.038278356 -7.4435626e-08 0)
(0.038279822 -6.9618266e-08 0)
(0.038281203 -6.5294721e-08 0)
(0.038282504 -6.1239989e-08 0)
(0.038283733 -5.757977e-08 0)
(0.038284892 -5.408283e-08 0)
(0.038285988 -5.0939522e-08 0)
(0.038287024 -4.7885781e-08 0)
(0.038288004 -4.5158192e-08 0)
(0.03828893 -4.2464938e-08 0)
(0.038289809 -4.0078934e-08 0)
(0.038290638 -3.7709925e-08 0)
(0.038291426 -3.5609948e-08 0)
(0.038292169 -3.3516116e-08 0)
(0.038292876 -3.1656733e-08 0)
(0.038293543 -2.979977e-08 0)
(0.038294178 -2.8148491e-08 0)
(0.038294776 -2.6498203e-08 0)
(0.038295345 -2.5032205e-08 0)
(0.038295882 -2.3561254e-08 0)
(0.038296393 -2.2257127e-08 0)
(0.038296874 -2.0941298e-08 0)
(0.038297332 -1.9775361e-08 0)
(0.038297764 -1.8591692e-08 0)
(0.038298173 -1.7543832e-08 0)
(0.03829856 -1.6485235e-08 0)
(0.038298925 -1.554023e-08 0)
(0.038299271 -1.458817e-08 0)
(0.038299595 -1.3732683e-08 0)
(0.038299905 -1.2874507e-08 0)
(0.03830019 -1.2093527e-08 0)
(0.038300467 -1.1322497e-08 0)
(0.038300715 -1.0600987e-08 0)
(0.038300963 -9.9116887e-09 0)
(0.038301176 -9.2381858e-09 0)
(0.038301397 -8.622622e-09 0)
(0.038301577 -7.9888851e-09 0)
(0.038301774 -7.4381954e-09 0)
(0.038301921 -6.8338125e-09 0)
(0.038302097 -6.345595e-09 0)
(0.038302211 -5.7581305e-09 0)
(0.038302367 -5.330306e-09 0)
(0.038302449 -4.748551e-09 0)
(0.038302587 -4.3784438e-09 0)
(0.038302636 -3.7925789e-09 0)
(0.038302757 -3.4765158e-09 0)
(0.038302773 -2.8770154e-09 0)
(0.038302878 -2.6107278e-09 0)
(0.03830286 -1.9936823e-09 0)
(0.038302951 -1.7695061e-09 0)
(0.038302897 -1.0976493e-09 0)
(0.038302972 -9.5103995e-10 0)
(0.038302883 -2.5905992e-10 0)
(0.03830294 -1.5611775e-10 0)
(0.038302817 5.7397405e-10 0)
(0.038302853 6.2135693e-10 0)
(0.038302698 1.4977505e-09 0)
(0.47651353 0.017011746 0)
(0.47426404 0.023623718 0)
(0.4702738 0.025603399 0)
(0.46293318 0.025327747 0)
(0.45167597 0.024433153 0)
(0.43711014 0.023226561 0)
(0.42030294 0.02145458 0)
(0.40249336 0.018979648 0)
(0.38446095 0.015930534 0)
(0.36686166 0.012730012 0)
(0.35008784 0.0098274524 0)
(0.33434881 0.0074623032 0)
(0.31982406 0.0056626341 0)
(0.30655866 0.0043439411 0)
(0.29456117 0.0034205662 0)
(0.28373947 0.0028031004 0)
(0.27395181 0.0024009409 0)
(0.26505165 0.0021348794 0)
(0.25690779 0.0019470567 0)
(0.24941104 0.0018008216 0)
(0.24247464 0.0016754609 0)
(0.23603081 0.0015608248 0)
(0.23002584 0.0014531283 0)
(0.22441541 0.001351818 0)
(0.2191614 0.0012574882 0)
(0.21422985 0.0011707624 0)
(0.20959025 0.0010918319 0)
(0.20521512 0.0010204215 0)
(0.20108002 0.00095588916 0)
(0.19716351 0.0008974143 0)
(0.19344692 0.00084418513 0)
(0.18991396 0.00079551634 0)
(0.18655024 0.00075088259 0)
(0.18334283 0.00070988809 0)
(0.18028001 0.00067220531 0)
(0.1773511 0.00063751902 0)
(0.17454646 0.00060550172 0)
(0.17185753 0.00057582365 0)
(0.16927672 0.00054818114 0)
(0.16679737 0.00052232285 0)
(0.16441351 0.00049806031 0)
(0.16211974 0.00047525813 0)
(0.15991108 0.00045381019 0)
(0.15778288 0.00043361454 0)
(0.15573089 0.00041455914 0)
(0.15375124 0.0003965232 0)
(0.15184049 0.00037939061 0)
(0.14999552 0.00036306601 0)
(0.14821355 0.0003474823 0)
(0.146492 0.00033259532 0)
(0.14482852 0.00031837086 0)
(0.1432209 0.00030477265 0)
(0.14166714 0.000291758 0)
(0.14016544 0.00027928084 0)
(0.13871419 0.00026729791 0)
(0.13731194 0.00025577319 0)
(0.13595738 0.00024467687 0)
(0.13464934 0.00023397959 0)
(0.13338679 0.00022364667 0)
(0.13216885 0.00021363731 0)
(0.1309948 0.00020390954 0)
(0.12986407 0.0001944268 0)
(0.12877622 0.00018516102 0)
(0.12773092 0.00017609153 0)
(0.1267279 0.00016720346 0)
(0.12576697 0.00015848683 0)
(0.124848 0.00014993533 0)
(0.12397087 0.0001415445 0)
(0.12313551 0.0001333102 0)
(0.12234189 0.0001252277 0)
(0.12158999 0.00011729073 0)
(0.12087981 0.00010949087 0)
(0.12021139 0.00010181873 0)
(0.11958476 9.4266563e-05 0)
(0.11899996 8.6830762e-05 0)
(0.11845696 7.951339e-05 0)
(0.11795568 7.2322956e-05 0)
(0.11749591 6.527419e-05 0)
(0.11707731 5.8387302e-05 0)
(0.11669931 5.1686739e-05 0)
(0.11636117 4.5200848e-05 0)
(0.11606184 3.896304e-05 0)
(0.11579997 3.3014148e-05 0)
(0.11557384 2.7405505e-05 0)
(0.11538129 2.2200071e-05 0)
(0.11521971 1.7470177e-05 0)
(0.11508602 1.3290696e-05 0)
(0.11497672 9.729397e-06 0)
(0.11488804 6.8350958e-06 0)
(0.11481613 4.6216253e-06 0)
(0.11475732 3.0452254e-06 0)
(0.11470832 2.0110024e-06 0)
(0.1146665 1.3924198e-06 0)
(0.11462997 1.0494663e-06 0)
(0.11459757 8.4941474e-07 0)
(0.11456881 6.8553127e-07 0)
(0.11454366 4.8844784e-07 0)
(0.11452235 2.0641403e-07 0)
(0.11450514 -1.5418792e-07 0)
(0.11449223 -5.5949377e-07 0)
(0.11448364 -9.7500983e-07 0)
(0.11447917 -1.398479e-06 0)
(0.11447853 -1.7706923e-06 0)
(0.11448129 -2.0757472e-06 0)
(0.11448702 -2.3270688e-06 0)
(0.11449526 -2.5000925e-06 0)
(0.11450558 -2.6270146e-06 0)
(0.11451764 -2.712432e-06 0)
(0.11453112 -2.7639195e-06 0)
(0.11454573 -2.7809493e-06 0)
(0.11456122 -2.7756376e-06 0)
(0.11457737 -2.7527154e-06 0)
(0.11459398 -2.7118408e-06 0)
(0.11461088 -2.6582757e-06 0)
(0.11462788 -2.5887261e-06 0)
(0.11464484 -2.5104279e-06 0)
(0.11466164 -2.4231013e-06 0)
(0.11467815 -2.3283216e-06 0)
(0.11469427 -2.2292302e-06 0)
(0.11470991 -2.1231425e-06 0)
(0.11472501 -2.0169328e-06 0)
(0.11473949 -1.9094691e-06 0)
(0.11475333 -1.8021845e-06 0)
(0.11476648 -1.6955369e-06 0)
(0.11477893 -1.5911344e-06 0)
(0.11479067 -1.4896077e-06 0)
(0.1148017 -1.3912094e-06 0)
(0.11481202 -1.2967153e-06 0)
(0.11482166 -1.2054526e-06 0)
(0.11483062 -1.1187214e-06 0)
(0.11483894 -1.0359074e-06 0)
(0.11484664 -9.569714e-07 0)
(0.11485375 -8.819478e-07 0)
(0.1148603 -8.1104096e-07 0)
(0.11486634 -7.4455807e-07 0)
(0.11487188 -6.8290306e-07 0)
(0.11487699 -6.2621646e-07 0)
(0.11488168 -5.7475988e-07 0)
(0.11488601 -5.2825362e-07 0)
(0.11489001 -4.8652045e-07 0)
(0.11489371 -4.4918628e-07 0)
(0.11489715 -4.1587542e-07 0)
(0.11490034 -3.8585046e-07 0)
(0.11490332 -3.5887497e-07 0)
(0.1149061 -3.3421047e-07 0)
(0.11490871 -3.1191841e-07 0)
(0.11491114 -2.9117261e-07 0)
(0.11491342 -2.7232555e-07 0)
(0.11491556 -2.5455159e-07 0)
(0.11491757 -2.3843834e-07 0)
(0.11491945 -2.2304271e-07 0)
(0.11492122 -2.0914736e-07 0)
(0.11492287 -1.957069e-07 0)
(0.11492443 -1.8365756e-07 0)
(0.11492589 -1.719356e-07 0)
(0.11492727 -1.6144111e-07 0)
(0.11492856 -1.5117083e-07 0)
(0.11492978 -1.4198722e-07 0)
(0.11493091 -1.3295801e-07 0)
(0.11493199 -1.2489841e-07 0)
(0.11493299 -1.1694339e-07 0)
(0.11493394 -1.0986887e-07 0)
(0.11493482 -1.0283424e-07 0)
(0.11493566 -9.6614107e-08 0)
(0.11493644 -9.0365248e-08 0)
(0.11493717 -8.4877301e-08 0)
(0.11493786 -7.929509e-08 0)
(0.1149385 -7.4436582e-08 0)
(0.11493911 -6.9458077e-08 0)
(0.11493967 -6.5146355e-08 0)
(0.1149402 -6.0676216e-08 0)
(0.11494068 -5.6837788e-08 0)
(0.11494115 -5.2801424e-08 0)
(0.11494156 -4.9361854e-08 0)
(0.11494197 -4.5710396e-08 0)
(0.11494231 -4.2601576e-08 0)
(0.11494268 -3.929671e-08 0)
(0.11494295 -3.6461994e-08 0)
(0.11494328 -3.345966e-08 0)
(0.11494349 -3.0854165e-08 0)
(0.11494377 -2.8109283e-08 0)
(0.11494392 -2.568466e-08 0)
(0.11494417 -2.3177369e-08 0)
(0.11494425 -2.0877262e-08 0)
(0.11494448 -1.8588715e-08 0)
(0.1149445 -1.6358888e-08 0)
(0.1149447 -1.4274433e-08 0)
(0.11494465 -1.206374e-08 0)
(0.11494484 -1.0172735e-08 0)
(0.11494471 -7.9295168e-09 0)
(0.11494488 -6.2330228e-09 0)
(0.11494468 -3.8904681e-09 0)
(0.11494483 -2.3265377e-09 0)
(0.11494456 2.1190482e-10 0)
(0.11494469 1.5196481e-09 0)
(0.11494434 4.2370523e-09 0)
(0.11494445 5.3109373e-09 0)
(0.11494402 8.3347033e-09 0)
(0.11494409 9.0165982e-09 0)
(0.1149436 1.3038921e-08 0)
(0.47974231 0.016026562 0)
(0.4809744 0.021686693 0)
(0.48364597 0.024748296 0)
(0.48619075 0.025749897 0)
(0.48735264 0.025832993 0)
(0.4866965 0.025469725 0)
(0.4842477 0.024563656 0)
(0.48021493 0.022930949 0)
(0.47479809 0.020658816 0)
(0.46821892 0.018062673 0)
(0.46074768 0.015529411 0)
(0.45263708 0.013320972 0)
(0.4441795 0.011525188 0)
(0.43559499 0.010096815 0)
(0.42707757 0.0089706069 0)
(0.41871829 0.0080800738 0)
(0.4105491 0.0073639862 0)
(0.40257646 0.0067705674 0)
(0.3947981 0.0062609499 0)
(0.38721024 0.0058090084 0)
(0.37981127 0.0053985682 0)
(0.37260304 0.0050203851 0)
(0.3655904 0.0046698467 0)
(0.35877958 0.0043451264 0)
(0.35217668 0.004045665 0)
(0.34578628 0.0037710729 0)
(0.33961085 0.0035205835 0)
(0.33365033 0.0032928013 0)
(0.3279023 0.0030857869 0)
(0.32236237 0.0028973201 0)
(0.3170247 0.0027252125 0)
(0.3118825 0.0025675434 0)
(0.30692839 0.0024227477 0)
(0.30215466 0.0022895676 0)
(0.29755342 0.0021669319 0)
(0.29311676 0.0020538388 0)
(0.28883693 0.0019493005 0)
(0.28470642 0.0018523569 0)
(0.28071815 0.0017621282 0)
(0.27686554 0.0016778669 0)
(0.27314252 0.00159898 0)
(0.26954348 0.0015250084 0)
(0.26606316 0.0014555742 0)
(0.26269657 0.0013903201 0)
(0.25943899 0.001328875 0)
(0.25628589 0.0012708585 0)
(0.25323307 0.00121591 0)
(0.25027655 0.0011637201 0)
(0.24741263 0.0011140441 0)
(0.24463786 0.0010666922 0)
(0.24194903 0.0010215039 0)
(0.23934316 0.00097832516 0)
(0.23681756 0.0009369987 0)
(0.23436982 0.0008973694 0)
(0.23199783 0.0008592952 0)
(0.22969972 0.0008226535 0)
(0.22747387 0.00078733714 0)
(0.22531885 0.00075324223 0)
(0.22323339 0.00072025826 0)
(0.22121647 0.00068826843 0)
(0.21926719 0.00065715956 0)
(0.2173849 0.00062683337 0)
(0.21556907 0.00059721088 0)
(0.21381931 0.00056822978 0)
(0.21213538 0.00053984088 0)
(0.21051712 0.00051200595 0)
(0.20896446 0.00048469552 0)
(0.20747742 0.00045788556 0)
(0.20605607 0.0004315554 0)
(0.20470054 0.00040568637 0)
(0.20341097 0.00038026071 0)
(0.20218757 0.00035526094 0)
(0.20103053 0.00033067287 0)
(0.19994003 0.00030649035 0)
(0.19891621 0.00028272001 0)
(0.19795914 0.00025938424 0)
(0.19706871 0.00023652285 0)
(0.19624466 0.00021419243 0)
(0.19548647 0.00019246554 0)
(0.19479331 0.00017142905 0)
(0.19416398 0.00015118372 0)
(0.19359686 0.00013184604 0)
(0.19308985 0.00011355085 0)
(0.19264027 9.6453601e-05 0)
(0.19224484 8.0727257e-05 0)
(0.19189965 6.6550963e-05 0)
(0.19160015 5.4088789e-05 0)
(0.19134129 4.3461189e-05 0)
(0.19111772 3.4713691e-05 0)
(0.19092396 2.7793463e-05 0)
(0.19075483 2.2540144e-05 0)
(0.19060568 1.8693586e-05 0)
(0.19047265 1.5921997e-05 0)
(0.19035288 1.3870093e-05 0)
(0.19024443 1.2210333e-05 0)
(0.19014624 1.0685689e-05 0)
(0.19005784 9.1337208e-06 0)
(0.18997911 7.4913212e-06 0)
(0.18991007 5.7684022e-06 0)
(0.18985062 4.0261043e-06 0)
(0.18980052 2.3402579e-06 0)
(0.1897593 7.3397944e-07 0)
(0.18972635 -6.8364719e-07 0)
(0.18970092 -1.8820963e-06 0)
(0.18968225 -2.8810381e-06 0)
(0.18966957 -3.8107398e-06 0)
(0.18966213 -4.5235065e-06 0)
(0.18965931 -5.0743551e-06 0)
(0.18966052 -5.5031642e-06 0)
(0.18966522 -5.8077325e-06 0)
(0.18967291 -6.0132594e-06 0)
(0.18968315 -6.1460418e-06 0)
(0.18969553 -6.2083399e-06 0)
(0.18970966 -6.2093597e-06 0)
(0.18972519 -6.1465718e-06 0)
(0.18974178 -6.0425936e-06 0)
(0.18975913 -5.8980909e-06 0)
(0.18977697 -5.7182634e-06 0)
(0.18979503 -5.5128906e-06 0)
(0.1898131 -5.2804706e-06 0)
(0.18983097 -5.0351648e-06 0)
(0.18984847 -4.7772181e-06 0)
(0.18986545 -4.5118928e-06 0)
(0.18988179 -4.2421784e-06 0)
(0.18989739 -3.9730578e-06 0)
(0.18991217 -3.7075232e-06 0)
(0.18992609 -3.4477134e-06 0)
(0.1899391 -3.1965324e-06 0)
(0.18995121 -2.9540205e-06 0)
(0.1899624 -2.7234049e-06 0)
(0.18997271 -2.5043203e-06 0)
(0.18998216 -2.297287e-06 0)
(0.18999079 -2.1027031e-06 0)
(0.18999865 -1.9210297e-06 0)
(0.1900058 -1.7528327e-06 0)
(0.19001229 -1.5986215e-06 0)
(0.19001818 -1.4582762e-06 0)
(0.19002353 -1.3318413e-06 0)
(0.1900284 -1.2182943e-06 0)
(0.19003283 -1.1168366e-06 0)
(0.19003689 -1.0263071e-06 0)
(0.1900406 -9.4558493e-07 0)
(0.190044 -8.7298693e-07 0)
(0.19004714 -8.0773345e-07 0)
(0.19005002 -7.482792e-07 0)
(0.19005268 -6.9450794e-07 0)
(0.19005513 -6.4478434e-07 0)
(0.1900574 -5.9956927e-07 0)
(0.19005948 -5.5729647e-07 0)
(0.19006142 -5.1891633e-07 0)
(0.1900632 -4.8263064e-07 0)
(0.19006485 -4.4980729e-07 0)
(0.19006637 -4.1845521e-07 0)
(0.19006778 -3.9026332e-07 0)
(0.19006906 -3.631676e-07 0)
(0.19007026 -3.3887264e-07 0)
(0.19007136 -3.1534703e-07 0)
(0.19007238 -2.9432246e-07 0)
(0.1900733 -2.738257e-07 0)
(0.19007417 -2.5559034e-07 0)
(0.19007495 -2.3769107e-07 0)
(0.19007568 -2.2188161e-07 0)
(0.19007633 -2.0618122e-07 0)
(0.19007694 -1.9245637e-07 0)
(0.19007749 -1.7861048e-07 0)
(0.19007799 -1.6666758e-07 0)
(0.19007845 -1.5438295e-07 0)
(0.19007886 -1.4397945e-07 0)
(0.19007924 -1.3307408e-07 0)
(0.19007957 -1.239982e-07 0)
(0.19007988 -1.1423476e-07 0)
(0.19008013 -1.0630101e-07 0)
(0.19008039 -9.7487093e-08 0)
(0.19008056 -9.0519756e-08 0)
(0.19008078 -8.2517596e-08 0)
(0.19008088 -7.6360915e-08 0)
(0.19008107 -6.906584e-08 0)
(0.19008109 -6.358843e-08 0)
(0.19008125 -5.6890269e-08 0)
(0.19008121 -5.1981183e-08 0)
(0.19008135 -4.576942e-08 0)
(0.19008124 -4.13094e-08 0)
(0.19008137 -3.551972e-08 0)
(0.19008118 -3.1386524e-08 0)
(0.1900813 -2.5969438e-08 0)
(0.19008104 -2.2035435e-08 0)
(0.19008115 -1.695697e-08 0)
(0.19008081 -1.3095644e-08 0)
(0.19008093 -8.3235585e-09 0)
(0.1900805 -4.395077e-09 0)
(0.19008062 4.341456e-11 0)
(0.1900801 4.220196e-09 0)
(0.19008022 8.3520996e-09 0)
(0.19007961 1.2964257e-08 0)
(0.19007973 1.663493e-08 0)
(0.19007902 2.1890107e-08 0)
(0.19007913 2.4940902e-08 0)
(0.19007832 3.1234611e-08 0)
(0.1900784 3.3099105e-08 0)
(0.19007752 4.2071068e-08 0)
(0.48219053 0.015063092 0)
(0.48316291 0.01931883 0)
(0.48566928 0.022387789 0)
(0.48907203 0.023885709 0)
(0.49241078 0.024350472 0)
(0.49511924 0.024252316 0)
(0.49702225 0.023689617 0)
(0.49807954 0.022584539 0)
(0.49826214 0.020964021 0)
(0.497534 0.019018911 0)
(0.49592564 0.017021328 0)
(0.49353692 0.015203973 0)
(0.49054311 0.013680733 0)
(0.48712818 0.012458906 0)
(0.48345039 0.01148245 0)
(0.47960686 0.010690085 0)
(0.4756437 0.010033059 0)
(0.47157805 0.0094740827 0)
(0.467414 0.0089843372 0)
(0.46315129 0.0085422021 0)
(0.45879042 0.008132533 0)
(0.45433519 0.0077456802 0)
(0.44979364 0.0073763292 0)
(0.44517744 0.0070222263 0)
(0.44050104 0.006682942 0)
(0.43578041 0.0063588054 0)
(0.43103221 0.0060502543 0)
(0.42627274 0.0057574353 0)
(0.42151734 0.0054801097 0)
(0.41677992 0.0052177299 0)
(0.41207272 0.0049696033 0)
(0.40740624 0.0047350566 0)
(0.40278918 0.0045135212 0)
(0.39822857 0.0043045113 0)
(0.39372993 0.004107532 0)
(0.38929741 0.003921985 0)
(0.38493403 0.0037471311 0)
(0.38064198 0.0035821232 0)
(0.37642291 0.0034260889 0)
(0.37227816 0.0032782231 0)
(0.36820903 0.0031378573 0)
(0.36421683 0.0030044804 0)
(0.36030298 0.0028777059 0)
(0.35646881 0.0027572047 0)
(0.3527155 0.0026426419 0)
(0.34904391 0.0025336523 0)
(0.34545448 0.0024298565 0)
(0.3419472 0.0023308928 0)
(0.33852161 0.0022364342 0)
(0.33517687 0.0021461844 0)
(0.33191185 0.0020598588 0)
(0.32872525 0.0019771664 0)
(0.32561574 0.0018978058 0)
(0.32258203 0.0018214789 0)
(0.31962304 0.0017479135 0)
(0.31673792 0.0016768794 0)
(0.31392606 0.001608184 0)
(0.31118712 0.0015416517 0)
(0.30852091 0.001477102 0)
(0.30592743 0.0014143449 0)
(0.3034068 0.0013531933 0)
(0.30095923 0.0012934788 0)
(0.298585 0.0012350595 0)
(0.29628447 0.0011778179 0)
(0.29405801 0.0011216577 0)
(0.29190607 0.0010665015 0)
(0.28982918 0.0010122875 0)
(0.28782792 0.00095896584 0)
(0.28590296 0.00090649562 0)
(0.28405503 0.00085484252 0)
(0.28228489 0.00080397733 0)
(0.28059333 0.00075387499 0)
(0.27898112 0.00070451985 0)
(0.277449 0.00065591312 0)
(0.27599761 0.00060808004 0)
(0.27462748 0.00056107514 0)
(0.27333893 0.00051498494 0)
(0.27213208 0.00046992742 0)
(0.27100672 0.00042605052 0)
(0.26996229 0.00038352979 0)
(0.26899779 0.00034256739 0)
(0.26811175 0.00030339372 0)
(0.2673021 0.00026626971 0)
(0.26656616 0.00023148705 0)
(0.26590056 0.00019935943 0)
(0.26530124 0.00017020118 0)
(0.26476344 0.00014429106 0)
(0.26428185 0.00012182641 0)
(0.26385072 0.00010287324 0)
(0.26346413 8.7327501e-05 0)
(0.26311628 7.4898317e-05 0)
(0.26280179 6.5126369e-05 0)
(0.26251597 5.7435058e-05 0)
(0.262255 5.1209263e-05 0)
(0.262016 4.5879881e-05 0)
(0.26179699 4.0994303e-05 0)
(0.26159669 3.6256952e-05 0)
(0.2614143 3.1534182e-05 0)
(0.26124928 2.6822668e-05 0)
(0.26110111 2.2203135e-05 0)
(0.26096918 1.7791742e-05 0)
(0.26085274 1.3709095e-05 0)
(0.26075086 1.0020049e-05 0)
(0.26066252 6.7686675e-06 0)
(0.26058664 3.9505762e-06 0)
(0.26052214 1.4131212e-06 0)
(0.26046803 -7.1353396e-07 0)
(0.26042331 -2.4856446e-06 0)
(0.26038708 -3.9552591e-06 0)
(0.26035851 -5.2490908e-06 0)
(0.26033682 -6.3391799e-06 0)
(0.26032128 -7.1910686e-06 0)
(0.26031121 -7.8494502e-06 0)
(0.26030598 -8.3439407e-06 0)
(0.26030495 -8.6607242e-06 0)
(0.26030754 -8.8412936e-06 0)
(0.26031323 -8.9065197e-06 0)
(0.26032148 -8.865599e-06 0)
(0.26033183 -8.7342913e-06 0)
(0.26034381 -8.5170803e-06 0)
(0.26035701 -8.2433654e-06 0)
(0.26037105 -7.9154926e-06 0)
(0.26038558 -7.5460317e-06 0)
(0.26040029 -7.1446338e-06 0)
(0.26041491 -6.7229843e-06 0)
(0.2604292 -6.2894544e-06 0)
(0.26044297 -5.8516456e-06 0)
(0.26045605 -5.4179247e-06 0)
(0.26046833 -4.9917832e-06 0)
(0.26047973 -4.5812943e-06 0)
(0.26049019 -4.1885313e-06 0)
(0.2604997 -3.8164272e-06 0)
(0.26050828 -3.4672342e-06 0)
(0.26051595 -3.1426376e-06 0)
(0.26052278 -2.8439652e-06 0)
(0.26052882 -2.5720306e-06 0)
(0.26053415 -2.3264204e-06 0)
(0.26053885 -2.1067709e-06 0)
(0.26054298 -1.9109302e-06 0)
(0.26054662 -1.7370637e-06 0)
(0.26054983 -1.5829348e-06 0)
(0.26055266 -1.4462168e-06 0)
(0.26055516 -1.3240517e-06 0)
(0.26055736 -1.2148051e-06 0)
(0.26055931 -1.1158943e-06 0)
(0.26056103 -1.0268141e-06 0)
(0.26056253 -9.4507679e-07 0)
(0.26056386 -8.7106363e-07 0)
(0.260565 -8.0238737e-07 0)
(0.26056601 -7.4029591e-07 0)
(0.26056686 -6.8207944e-07 0)
(0.26056761 -6.2961545e-07 0)
(0.26056822 -5.7995512e-07 0)
(0.26056875 -5.3554503e-07 0)
(0.26056916 -4.9319381e-07 0)
(0.26056951 -4.5549566e-07 0)
(0.26056976 -4.1920982e-07 0)
(0.26056996 -3.8710021e-07 0)
(0.26057008 -3.5588641e-07 0)
(0.26057015 -3.2851601e-07 0)
(0.26057016 -3.0158891e-07 0)
(0.26057013 -2.7830398e-07 0)
(0.26057006 -2.5497812e-07 0)
(0.26056995 -2.3516617e-07 0)
(0.26056981 -2.1482508e-07 0)
(0.26056962 -1.9795504e-07 0)
(0.26056943 -1.8006442e-07 0)
(0.26056918 -1.6570624e-07 0)
(0.26056896 -1.4994759e-07 0)
(0.26056866 -1.3775504e-07 0)
(0.26056841 -1.2372266e-07 0)
(0.26056805 -1.1337476e-07 0)
(0.2605678 -1.0073235e-07 0)
(0.26056739 -9.1937791e-08 0)
(0.26056713 -8.0438822e-08 0)
(0.26056668 -7.2937847e-08 0)
(0.26056643 -6.2393367e-08 0)
(0.26056593 -5.5975175e-08 0)
(0.26056569 -4.6197759e-08 0)
(0.26056515 -4.0680938e-08 0)
(0.26056493 -3.1591213e-08 0)
(0.26056433 -2.6795096e-08 0)
(0.26056414 -1.8122374e-08 0)
(0.26056347 -1.3806596e-08 0)
(0.26056332 -5.5100164e-09 0)
(0.26056259 -1.4755861e-09 0)
(0.26056247 6.4864388e-09 0)
(0.26056166 1.0457933e-08 0)
(0.26056159 1.8115086e-08 0)
(0.2605607 2.2276573e-08 0)
(0.26056067 2.9574964e-08 0)
(0.26055969 3.4235505e-08 0)
(0.2605597 4.1047681e-08 0)
(0.26055862 4.6599758e-08 0)
(0.26055867 5.2713229e-08 0)
(0.26055749 5.96843e-08 0)
(0.26055755 6.465521e-08 0)
(0.26055628 7.3853204e-08 0)
(0.26055634 7.6629651e-08 0)
(0.260555 9.0350924e-08 0)
(0.48415881 0.014500336 0)
(0.4850165 0.017827296 0)
(0.48701008 0.020620485 0)
(0.48990967 0.022290514 0)
(0.49311001 0.022936195 0)
(0.49609476 0.022913963 0)
(0.49864357 0.022432931 0)
(0.50070789 0.021539987 0)
(0.50227086 0.020263051 0)
(0.50328892 0.018712604 0)
(0.50372908 0.017070995 0)
(0.5036117 0.015525394 0)
(0.50302714 0.014194192 0)
(0.50210266 0.013110989 0)
(0.50095875 0.012244131 0)
(0.49967866 0.01154307 0)
(0.49830431 0.010964631 0)
(0.49684803 0.010476928 0)
(0.49530595 0.010055565 0)
(0.49366741 0.0096811175 0)
(0.49192073 0.0093386797 0)
(0.4900563 0.0090177581 0)
(0.48806794 0.0087116785 0)
(0.48595315 0.0084166581 0)
(0.48371279 0.008130837 0)
(0.48135063 0.0078534445 0)
(0.47887281 0.0075841686 0)
(0.47628721 0.0073228208 0)
(0.4736029 0.0070691921 0)
(0.47082965 0.0068230517 0)
(0.46797749 0.0065842228 0)
(0.46505638 0.0063526774 0)
(0.4620759 0.0061285776 0)
(0.45904501 0.0059122205 0)
(0.45597179 0.0057039017 0)
(0.45286339 0.0055037681 0)
(0.44972587 0.0053117273 0)
(0.44656435 0.0051274364 0)
(0.44338314 0.0049503584 0)
(0.44018603 0.004779859 0)
(0.43697665 0.0046153109 0)
(0.43375879 0.0044561722 0)
(0.43053661 0.0043020195 0)
(0.4273148 0.0041525389 0)
(0.4240985 0.004007501 0)
(0.42089319 0.0038667451 0)
(0.41770444 0.0037301824 0)
(0.41453762 0.0035977971 0)
(0.41139763 0.0034696226 0)
(0.40828872 0.0033456918 0)
(0.40521431 0.0032259841 0)
(0.40217699 0.0031103873 0)
(0.3991786 0.0029986869 0)
(0.39622035 0.0028905845 0)
(0.39330311 0.0027857397 0)
(0.3904277 0.002683818 0)
(0.38759507 0.0025845206 0)
(0.38480648 0.0024875863 0)
(0.38206357 0.0023927803 0)
(0.37936833 0.0022998889 0)
(0.37672299 0.0022087263 0)
(0.3741299 0.0021191414 0)
(0.37159141 0.0020310134 0)
(0.36910975 0.0019442397 0)
(0.36668698 0.0018587272 0)
(0.36432499 0.0017743887 0)
(0.36202553 0.0016911439 0)
(0.35979029 0.0016089201 0)
(0.35762096 0.0015276574 0)
(0.35551931 0.0014473111 0)
(0.35348716 0.0013678515 0)
(0.35152641 0.0012892626 0)
(0.34963898 0.0012115463 0)
(0.3478267 0.0011347311 0)
(0.3460913 0.0010588787 0)
(0.34443433 0.00098409159 0)
(0.34285707 0.00091051758 0)
(0.34136053 0.00083835069 0)
(0.33994538 0.00076782905 0)
(0.33861193 0.00069923268 0)
(0.33736005 0.00063288186 0)
(0.33618915 0.00056913782 0)
(0.33509811 0.00050840412 0)
(0.33408519 0.00045112485 0)
(0.33314801 0.00039777061 0)
(0.33228352 0.00034880847 0)
(0.33148804 0.00030465234 0)
(0.33075729 0.00026560234 0)
(0.33008656 0.00023177804 0)
(0.32947086 0.00020306722 0)
(0.32890512 0.0001791015 0)
(0.32838441 0.00015927657 0)
(0.32790421 0.00014281673 0)
(0.32746051 0.0001288758 0)
(0.32704998 0.00011664971 0)
(0.32666997 0.0001054742 0)
(0.32631845 9.4886448e-05 0)
(0.3259939 8.4641406e-05 0)
(0.32569514 7.4680104e-05 0)
(0.32542114 6.5071175e-05 0)
(0.32517092 5.5941939e-05 0)
(0.32494345 4.7425e-05 0)
(0.32473761 3.9609569e-05 0)
(0.3245522 3.2540092e-05 0)
(0.32438595 2.621916e-05 0)
(0.32423762 2.0650898e-05 0)
(0.32410597 1.5736819e-05 0)
(0.32398976 1.1426565e-05 0)
(0.32388786 7.6708122e-06 0)
(0.32379916 4.315281e-06 0)
(0.32372269 1.3710785e-06 0)
(0.32365743 -1.1252725e-06 0)
(0.32360245 -3.2234144e-06 0)
(0.32355685 -4.9633472e-06 0)
(0.32351975 -6.4769102e-06 0)
(0.32349034 -7.692648e-06 0)
(0.32346781 -8.6176773e-06 0)
(0.3234514 -9.2973333e-06 0)
(0.32344037 -9.7591813e-06 0)
(0.323434 -1.0000249e-05 0)
(0.32343161 -1.0074589e-05 0)
(0.32343257 -1.0000062e-05 0)
(0.32343627 -9.7957644e-06 0)
(0.32344212 -9.4803844e-06 0)
(0.3234496 -9.0797137e-06 0)
(0.32345821 -8.6109086e-06 0)
(0.3234675 -8.0905269e-06 0)
(0.32347708 -7.5378813e-06 0)
(0.32348661 -6.964954e-06 0)
(0.3234958 -6.3901656e-06 0)
(0.32350443 -5.8232216e-06 0)
(0.32351233 -5.2744975e-06 0)
(0.3235194 -4.7524006e-06 0)
(0.32352559 -4.2635077e-06 0)
(0.3235309 -3.8127505e-06 0)
(0.32353536 -3.4030881e-06 0)
(0.32353903 -3.0349371e-06 0)
(0.32354199 -2.7080449e-06 0)
(0.32354432 -2.4193461e-06 0)
(0.32354612 -2.1654998e-06 0)
(0.32354745 -1.9428674e-06 0)
(0.32354839 -1.7474691e-06 0)
(0.323549 -1.5747315e-06 0)
(0.32354933 -1.4219137e-06 0)
(0.32354941 -1.2851755e-06 0)
(0.3235493 -1.1632463e-06 0)
(0.323549 -1.0525294e-06 0)
(0.32354855 -9.5334487e-07 0)
(0.32354796 -8.6221797e-07 0)
(0.32354727 -7.8064177e-07 0)
(0.32354646 -7.0497435e-07 0)
(0.32354558 -6.3753412e-07 0)
(0.32354461 -5.7413131e-07 0)
(0.3235436 -5.1823359e-07 0)
(0.32354251 -4.6526912e-07 0)
(0.3235414 -4.190105e-07 0)
(0.32354023 -3.7459267e-07 0)
(0.32353905 -3.3627363e-07 0)
(0.32353783 -2.9885414e-07 0)
(0.3235366 -2.6719344e-07 0)
(0.32353535 -2.3558005e-07 0)
(0.32353409 -2.095436e-07 0)
(0.32353284 -1.8275805e-07 0)
(0.32353156 -1.6147027e-07 0)
(0.32353033 -1.3858088e-07 0)
(0.32352904 -1.2134249e-07 0)
(0.32352784 -1.0199682e-07 0)
(0.32352655 -8.8125864e-08 0)
(0.32352538 -7.1086357e-08 0)
(0.3235241 -5.9987306e-08 0)
(0.32352298 -4.4966031e-08 0)
(0.32352171 -3.6228855e-08 0)
(0.32352065 -2.2766317e-08 0)
(0.32351937 -1.5990621e-08 0)
(0.32351838 -3.7356205e-09 0)
(0.32351711 1.4317589e-09 0)
(0.32351619 1.2751201e-08 0)
(0.32351491 1.66012e-08 0)
(0.32351407 2.7240696e-08 0)
(0.32351278 3.0026757e-08 0)
(0.32351202 4.0122363e-08 0)
(0.32351072 4.2096859e-08 0)
(0.32351005 5.1962622e-08 0)
(0.32350871 5.344759e-08 0)
(0.32350814 6.3144105e-08 0)
(0.32350676 6.4425293e-08 0)
(0.32350628 7.3993364e-08 0)
(0.32350486 7.5393093e-08 0)
(0.32350448 8.4818757e-08 0)
(0.32350298 8.6710994e-08 0)
(0.3235027 9.5885166e-08 0)
(0.32350114 9.8747788e-08 0)
(0.32350095 1.0742006e-07 0)
(0.3234993 1.1189638e-07 0)
(0.3234992 1.1965092e-07 0)
(0.32349746 1.265812e-07 0)
(0.32349742 1.3268811e-07 0)
(0.3234956 1.432803e-07 0)
(0.3234956 1.4639826e-07 0)
(0.32349371 1.631726e-07 0)
(0.48581456 0.014072008 0)