/*--------------------------------*- C++ -*----------------------------------*\
| =========                 |                                                 |
| \\      /  F ield         | OpenFOAM: The Open Source CFD Toolbox           |
|  \\    /   O peration     | Version:  5.x                                   |
|   \\  /    A nd           | Web:      www.OpenFOAM.org                      |
|    \\/     M anipulation  |                                                 |
\*---------------------------------------------------------------------------*/
FoamFile
{
    version     2.0;
    format      ascii;
    class       volScalarField;
    location    "0.8";
    object      p;
}
// * * * * * * * * * * * * * * * * * * * * * * * * * * * * * * * * * * * * * //

dimensions      [0 2 -2 0 0 0 0];

internalField   nonuniform List<scalar> 
2475
(
0.0381829
0.0333404
0.0266946
0.0207098
0.0149329
0.00883072
0.00293326
-0.00121223
-0.00263293
-0.00196381
-0.000548031
0.00073007
0.00155045
0.00193857
0.00204517
0.00200901
0.00192135
0.00182368
0.00172814
0.0016337
0.00153738
0.00142707
0.0013156
0.00120467
0.00108842
0.00096414
0.000841161
0.000710795
0.000580597
0.000455473
0.000336064
0.000229506
0.000117152
5.25988e-05
-4.83767e-05
0.0346199
0.0318946
0.0262412
0.0204507
0.0147997
0.00892723
0.00325503
-0.000825843
-0.00234689
-0.00178785
-0.000435786
0.00080614
0.00160329
0.00197732
0.00207541
0.00203387
0.00194236
0.00184176
0.00174376
0.00164741
0.00154949
0.00143785
0.00132513
0.00121331
0.00109611
0.000971134
0.000847384
0.000716531
0.000585645
0.0004602
0.000340194
0.000233491
0.000120549
5.6014e-05
-4.54733e-05
0.0318883
0.0305339
0.0258833
0.0203287
0.0147757
0.00917758
0.00386968
-8.13855e-05
-0.00179524
-0.00149609
-0.000294002
0.000878929
0.00165069
0.00201626
0.00211054
0.00206566
0.00197052
0.00186611
0.00176438
0.00166462
0.00156389
0.00145
0.00133552
0.00122238
0.00110401
0.0009781
0.000853503
0.00072201
0.00059043
0.000464566
0.000343998
0.000237057
0.000123595
5.88241e-05
-4.31028e-05
0.0297162
0.0291146
0.025395
0.020221
0.0148224
0.0095009
0.00455872
0.000777569
-0.00109388
-0.00109039
-9.38781e-05
0.000989973
0.00173128
0.00208481
0.00217016
0.00211645
0.00201307
0.00190156
0.00179396
0.0016891
0.00158428
0.00146713
0.00135016
0.00123499
0.00111499
0.0009877
0.000861885
0.000729305
0.00059673
0.000470117
0.000348789
0.000241329
0.000127274
6.16867e-05
-4.0319e-05
0.0278185
0.0276322
0.0247272
0.0200665
0.0149121
0.0098553
0.00523276
0.00162326
-0.000358306
-0.000631801
0.000140511
0.00112041
0.00182954
0.00217373
0.00225051
0.00218572
0.00207106
0.00195008
0.00183499
0.00172357
0.00161322
0.00149166
0.00137116
0.0012529
0.00113046
0.00100118
0.000873656
0.000739547
0.000605538
0.000477787
0.000355345
0.000247014
0.000132219
6.49574e-05
-3.64059e-05
0.0260977
0.0261592
0.0239258
0.0198545
0.0150286
0.0102295
0.00587537
0.00242763
0.000379348
-0.000135991
0.000405863
0.00126498
0.00193599
0.00227338
0.00234431
0.00226819
0.00214026
0.00200807
0.00188445
0.00176588
0.00164936
0.001523
0.00139834
0.0012763
0.00115065
0.00101894
0.000889146
0.000753244
0.000617317
0.000488095
0.000364037
0.000254504
0.000138766
6.88821e-05
-3.09272e-05
0.0245362
0.0247713
0.0230672
0.0195804
0.0151434
0.0106101
0.00648809
0.00318703
0.00110767
0.000391304
0.000706006
0.00142716
0.00204955
0.00238013
0.00244852
0.00236193
0.00221906
0.00207359
0.00193997
0.00181357
0.00169039
0.00155913
0.00142997
0.00130392
0.00117455
0.00104022
0.000907676
0.000770014
0.000631815
0.000501044
0.000374843
0.000263888
0.000146967
7.36797e-05
-2.3904e-05
0.0231681
0.0235405
0.0222339
0.01926
0.0152355
0.0109831
0.00707564
0.00390718
0.0018189
0.00094123
0.00104206
0.0016111
0.00217072
0.0024915
0.0025607
0.00246598
0.00230734
0.00214637
0.00200087
0.00186564
0.00173519
0.00159881
0.00146492
0.00133472
0.00120124
0.00106414
0.000928465
0.00078908
0.000648385
0.000516113
0.000387393
0.000274842
0.000156538
7.93598e-05
-1.5916e-05
0.0220236
0.0225183
0.0214816
0.0189222
0.0152955
0.0113355
0.0076382
0.00459503
0.00250925
0.00150427
0.00141236
0.00182117
0.00230274
0.00260734
0.00267964
0.00258008
0.00240578
0.00222722
0.00206767
0.00192218
0.00178363
0.0016418
0.00150294
0.00136839
0.00123047
0.00109037
0.000951253
0.000810004
0.000666659
0.000532811
0.000401401
0.000286956
0.000167173
8.57468e-05
-7.6794e-06
0.0210308
0.0216673
0.020825
0.0185827
0.0153152
0.0116494
0.00816468
0.00524766
0.00317393
0.00206915
0.0018102
0.00205991
0.00244958
0.00272833
0.00280342
0.00270253
0.00251407
0.00231674
0.00214106
0.00198361
0.00183587
0.0016881
0.00154402
0.00140486
0.00126223
0.00111883
0.000976039
0.000832633
0.000686546
0.000550863
0.000416751
0.000299972
0.000178707
9.26788e-05
3.58679e-07
0.0200957
0.020902
0.0202385
0.0182497
0.0152921
0.0119106
0.00864112
0.00585662
0.00380811
0.00262716
0.00222693
0.00232711
0.00261448
0.00285498
0.00292966
0.0028306
0.0026311
0.00241525
0.00222176
0.00205041
0.00189206
0.00173761
0.00158805
0.00144406
0.0012965
0.00114948
0.00100286
0.000856928
0.000708058
0.000570161
0.000433412
0.000313795
0.000191053
0.000100091
8.00334e-06
0.0191819
0.0201813
0.0197031
0.0179331
0.0152397
0.0121196
0.00906204
0.00641774
0.00441181
0.00317493
0.00265611
0.00262073
0.00280054
0.0029903
0.00305855
0.00296336
0.00275645
0.00252328
0.00231076
0.00212344
0.00195271
0.00179054
0.00163518
0.00148611
0.0013335
0.0011825
0.00103188
0.000882989
0.000731288
0.000590745
0.000451413
0.000328465
0.000204167
0.000108009
1.52122e-05
0.0182933
0.0194964
0.0192099
0.0176402
0.0151748
0.0122864
0.00942911
0.00692826
0.00498191
0.00370841
0.00309023
0.00293627
0.0030105
0.0031389
0.00319196
0.0031001
0.0028888
0.00264041
0.00240865
0.00220368
0.00201864
0.00184732
0.0016856
0.0015311
0.00137331
0.00121801
0.00106327
0.000910974
0.000756358
0.000612713
0.00047078
0.00034407
0.000218009
0.000116484
2.19927e-05
0.0174415
0.018847
0.0187528
0.0173714
0.0151062
0.0124209
0.00974644
0.00738462
0.00550986
0.00422121
0.0035235
0.00326905
0.00324561
0.00330461
0.0033318
0.00323982
0.0030262
0.00276532
0.00251549
0.00229186
0.00209057
0.00190832
0.00173941
0.00157905
0.00141601
0.00125612
0.00109715
0.000940992
0.000783332
0.000636166
0.000491525
0.000360701
0.000232533
0.000125547
2.83561e-05
0.0166292
0.0182324
0.0183271
0.017122
0.0150362
0.01253
0.0100179
0.00778454
0.00598779
0.00470714
0.00395178
0.00361262
0.00350242
0.00348894
0.00347976
0.00338224
0.00316749
0.00289673
0.00263083
0.00238843
0.00216913
0.00197393
0.00179678
0.00162999
0.00146158
0.00129689
0.00113358
0.000973182
0.00081228
0.000661207
0.000513646
0.000378439
0.00024771
0.000135205
3.43296e-05
0.0158565
0.0176522
0.0179291
0.0168881
0.0149642
0.0126169
0.0102467
0.00812962
0.00641267
0.0051593
0.00436891
0.00395953
0.00377501
0.00369238
0.0036386
0.00352868
0.00331234
0.00303327
0.00275325
0.00249307
0.00225485
0.00204479
0.0018581
0.0016841
0.00151004
0.00134031
0.00117262
0.00100767
0.000843275
0.000687962
0.000537157
0.000397354
0.000263526
0.000145448
3.99395e-05
0.0151277
0.017108
0.0175575
0.0166682
0.0148883
0.0126812
0.0104356
0.00842367
0.00678446
0.00557009
0.00476671
0.00430391
0.00405795
0.00391434
0.00381135
0.00368121
0.00346065
0.00317367
0.00288122
0.00260529
0.00234829
0.00212167
0.00192383
0.0017416
0.00156146
0.00138653
0.00121434
0.00104461
0.000876407
0.000716578
0.000562129
0.00041754
0.000280018
0.000156273
4.5373e-05
0.0144444
0.0165977
0.0172085
0.0164585
0.0148043
0.0127202
0.0105867
0.00867012
0.00710483
0.00593502
0.00513776
0.00464096
0.00434557
0.00415099
0.00399885
0.00384073
0.00361203
0.00331721
0.00301363
0.00272412
0.00244919
0.00220479
0.00199423
0.00180265
0.00161582
0.00143545
0.00125866
0.00108401
0.000911701
0.0007471
0.000588546
0.00043898
0.000297185
0.000167608
5.05715e-05
0.0138045
0.0161163
0.0168755
0.0162534
0.0147098
0.0127339
0.0107036
0.00887479
0.00737924
0.00625547
0.00547676
0.00496524
0.00463282
0.00439661
0.00419975
0.00400857
0.00376752
0.00346424
0.00314954
0.00284785
0.00255664
0.00229418
0.00206975
0.00186775
0.00167331
0.00148706
0.00130548
0.00112585
0.00094914
0.00077959
0.000616476
0.000461689
0.000315028
0.000179391
5.54791e-05
0.0132025
0.0156582
0.0165537
0.0160504
0.0146071
0.0127269
0.0107902
0.00904182
0.00761095
0.00653286
0.00577938
0.0052697
0.00491399
0.00464496
0.00441141
0.00418646
0.00392866
0.00361534
0.00328826
0.00297521
0.0026701
0.00239015
0.00215071
0.00193714
0.00173411
0.00154148
0.00135493
0.00117031
0.000988896
0.000814172
0.000646012
0.000485767
0.000333686
0.00019169
6.06667e-05
0.0126285
0.0152174
0.0162396
0.0158473
0.0144969
0.0126996
0.0108437
0.00916815
0.0077978
0.00676642
0.00604303
0.00554716
0.00518298
0.00489049
0.00462905
0.00437296
0.00409439
0.00376905
0.00342859
0.00310438
0.0027876
0.00249137
0.0022365
0.00201072
0.00179829
0.00159863
0.00140666
0.0012169
0.00103062
0.000850648
0.000677109
0.000511062
0.000353052
0.000204324
6.56305e-05
0.0120926
0.0148013
0.0159378
0.0156461
0.0143791
0.0126526
0.0108654
0.00925653
0.0079444
0.00696065
0.00626975
0.00579349
0.00543394
0.00512897
0.00484693
0.00456426
0.00426371
0.0039256
0.00357152
0.00323518
0.0029078
0.0025967
0.00232667
0.00208845
0.00186579
0.00165828
0.00146055
0.00126563
0.00107435
0.000888922
0.000709651
0.000537492
0.000373132
0.000217257
7.01803e-05
0.0116026
0.0144135
0.0156481
0.0154442
0.0142511
0.0125881
0.0108621
0.00931467
0.00805812
0.00712057
0.00646301
0.00600907
0.00566336
0.00535656
0.00506089
0.00475789
0.00443722
0.00408576
0.0037173
0.00336701
0.00302941
0.0027054
0.00242099
0.00217049
0.00193712
0.001721
0.00151691
0.00131655
0.00112002
0.000929098
0.000743888
0.000565309
0.000394086
0.000230707
7.54504e-05
0.0111414
0.0140422
0.015363
0.0152371
0.0141117
0.0125078
0.0108368
0.00934357
0.00813758
0.00724341
0.00662029
0.00619144
0.00586532
0.00556654
0.00526497
0.00494845
0.00461145
0.00424649
0.00386339
0.00349844
0.00315142
0.00281629
0.00251793
0.0022553
0.00201133
0.00178613
0.00157518
0.00136918
0.00116736
0.000970836
0.000779428
0.000594146
0.000415752
0.000244519
8.06217e-05
0.0107042
0.0136868
0.015085
0.0150291
0.0139646
0.0124129
0.0107888
0.00934114
0.00818004
0.00732723
0.00674018
0.00633965
0.00603668
0.00575345
0.00545432
0.00513107
0.00478194
0.00440509
0.00400914
0.00362937
0.00327219
0.00292697
0.00261551
0.00234152
0.00208768
0.00185333
0.00163519
0.00142325
0.00121581
0.00101356
0.000816003
0.000623861
0.000437982
0.000258535
8.52346e-05
0.0103007
0.0133547
0.0148196
0.0148232
0.0138105
0.0123032
0.0107194
0.00931167
0.00819175
0.00737915
0.00682888
0.00645859
0.00617987
0.00591596
0.00562609
0.00530193
0.00494452
0.00455892
0.00415335
0.00375892
0.00339028
0.00303627
0.00271341
0.00242898
0.00216581
0.00192221
0.00169647
0.00147844
0.00126539
0.00105744
0.00085355
0.000654378
0.000460777
0.000272971
9.07379e-05
0.00993053
0.0130451
0.0145653
0.0146181
0.0136487
0.0121802
0.0106328
0.00926136
0.00817893
0.00740355
0.00688758
0.00654631
0.00629186
0.00604992
0.00577528
0.00545629
0.00509529
0.00470451
0.00429245
0.00388485
0.00350503
0.00314351
0.00281
0.00251523
0.00224367
0.00199174
0.00175866
0.00153449
0.00131554
0.00110167
0.00089147
0.000685345
0.000483903
0.000287515
9.63827e-05
0.00958789
0.0127544
0.0143209
0.0144144
0.0134817
0.012047
0.0105318
0.00919177
0.00814133
0.00739807
0.00691293
0.00660036
0.006372
0.0061543
0.00589871
0.00559033
0.00523139
0.00483825
0.004422
0.00400426
0.00361432
0.00324595
0.00290313
0.00259912
0.00232056
0.00206112
0.00182079
0.00159031
0.0013655
0.00114579
0.000929439
0.000716219
0.000506994
0.000301753
0.000100817
0.00926941
0.0124803
0.0140858
0.0142133
0.013311
0.0119041
0.0104149
0.00910041
0.00807638
0.00736164
0.00690655
0.00662433
0.00642338
0.00622957
0.00599359
0.00569899
0.00534755
0.00495546
0.00453834
0.0041155
0.00371652
0.00334169
0.00299223
0.00268025
0.00239519
0.00212919
0.0018823
0.00164615
0.00141582
0.00119002
0.000967292
0.000747114
0.000530285
0.00031621
0.000104314
0.00896386
0.0122142
0.0138545
0.0140117
0.0131341
0.0117487
0.0102793
0.00898502
0.00798303
0.00729383
0.0068668
0.00661322
0.00643888
0.00626893
0.00605422
0.00577645
0.00543723
0.00505092
0.00463661
0.00421358
0.00380802
0.00342788
0.00307427
0.00275583
0.00246551
0.00219525
0.00194325
0.0017018
0.00146586
0.00123453
0.00100583
0.000778971
0.000554489
0.000332755
0.000114317
0.00826603
0.0116051
0.0133226
0.0135402
0.0127081
0.0113597
0.00992427
0.00866513
0.00770161
0.00705681
0.00668058
0.006483
0.00636792
0.00625727
0.00609964
0.00586998
0.00556578
0.00520019
0.00479734
0.00438024
0.00396992
0.00358332
0.00322484
0.00289701
0.00259881
0.0023222
0.00206132
0.00181126
0.00156647
0.0013241
0.00108282
0.000842196
0.000602189
0.000362732
0.000123124
0.0083419
0.0115802
0.013188
0.0132966
0.0123682
0.0109452
0.00946101
0.00817925
0.00721817
0.00659849
0.00626559
0.00612298
0.00606733
0.00601411
0.00590882
0.00572556
0.00546134
0.00513
0.00475549
0.0043624
0.00397167
0.00359919
0.00325305
0.00293562
0.0026444
0.00237312
0.00211562
0.00186572
0.00161833
0.00137082
0.00112187
0.000871126
0.000619353
0.000367675
0.000117681
0.00676288
0.00998261
0.0116318
0.0118344
0.0110328
0.00974715
0.00839428
0.00722757
0.00635872
0.0058061
0.00551796
0.00540379
0.00536877
0.00533701
0.00526124
0.00512199
0.00491853
0.00466069
0.00436521
0.00405262
0.00374106
0.00343971
0.00315219
0.00288155
0.00262573
0.00237909
0.0021381
0.00189954
0.00166012
0.00141831
0.00117333
0.000924478
0.000671031
0.000411723
0.000144536
0.00534595
0.0019162
7.03941e-05
-0.000317703
0.00030474
0.0014117
0.00257887
0.00354681
0.00419933
0.00451484
0.00454372
0.00437702
0.00411175
0.00382611
0.00356915
0.0033618
0.00320657
0.00309472
0.0030096
0.00293074
0.00284086
0.00273207
0.00260077
0.00244461
0.00226754
0.00207566
0.00187287
0.00166319
0.00144983
0.00123389
0.00101559
0.000794593
0.000570307
0.000342427
0.000111396
0.00405857
0.000596799
-0.0012269
-0.00154497
-0.000826713
0.00037666
0.00162704
0.0026595
0.00335612
0.00369719
0.00373835
0.00357654
0.00331435
0.00303545
0.00279449
0.00261781
0.00250933
0.00245604
0.0024361
0.00242621
0.00240662
0.0023636
0.00228985
0.00218446
0.00205121
0.00189553
0.00172373
0.00154163
0.00135324
0.00116078
0.000964923
0.000764917
0.000559076
0.000345215
0.000121057
0.00473026
0.00113839
-0.00083523
-0.00131257
-0.000746215
0.000327183
0.00147539
0.00243348
0.00308074
0.00339279
0.00341835
0.00324756
0.00297764
0.00268902
0.0024353
0.00224364
0.00212012
0.00205516
0.00203003
0.00202334
0.0020158
0.00199273
0.00194569
0.0018714
0.0017703
0.00164624
0.00150451
0.00135009
0.0011872
0.00101866
0.000845721
0.000668422
0.000485998
0.000297279
0.000101223
0.00426838
0.000663645
-0.00132175
-0.00180976
-0.0012527
-0.000186968
0.000955407
0.00190956
0.00255481
0.00286669
0.00289365
0.00272548
0.00245916
0.00217503
0.00192684
0.00174196
0.00162689
0.00157254
0.00156062
0.00156998
0.00158141
0.00158047
0.00155838
0.0015114
0.00143982
0.00134673
0.00123646
0.00111346
0.000981524
0.000843256
0.000700115
0.000552564
0.000400453
0.000243382
8.11614e-05
0.00414494
0.000542596
-0.00144369
-0.00193543
-0.00138412
-0.000325255
0.000809804
0.00175664
0.0023948
0.00269991
0.00272049
0.00254643
0.00227478
0.00198595
0.0017337
0.00154551
0.00142801
0.00137229
0.00136021
0.00137076
0.001385
0.00138868
0.00137312
0.0013347
0.00127376
0.00119324
0.00109733
0.000990246
0.000875443
0.000755226
0.000630679
0.000501812
0.000367852
0.000227546
7.95174e-05
0.00389606
0.000291818
-0.00169663
-0.00219089
-0.00164245
-0.000586679
0.000545196
0.0014889
0.00212408
0.00242647
0.0024447
0.0022687
0.00199558
0.00170581
0.00145324
0.00126543
0.0011491
0.00109543
0.0010864
0.00110113
0.00112077
0.00113116
0.00112373
0.00109493
0.00104513
0.000977294
0.000895611
0.000804275
0.000706747
0.000605368
0.000501346
0.000394962
0.000285924
0.000173741
5.81114e-05
0.00365312
5.06189e-05
-0.00193606
-0.00242857
-0.00187838
-0.000820844
0.000312909
0.00125869
0.0018962
0.0022012
0.0022223
0.00204943
0.00177967
0.00149351
0.00124481
0.00106115
0.000949299
0.000900485
0.000896755
0.000917306
0.00094334
0.000960783
0.000961151
0.000940981
0.00090072
0.000843409
0.000773274
0.000694519
0.000610584
0.000523735
0.000435041
0.000344538
0.000251562
0.000155075
5.40503e-05
0.00344797
-0.000152538
-0.00213758
-0.00262866
-0.00207712
-0.00101816
0.00011714
0.00106461
0.00170395
0.0020109
0.00203405
0.00186333
0.00159585
0.00131212
0.00106603
0.000885203
0.000776459
0.000731089
0.000731191
0.000756011
0.000786806
0.00080955
0.000815776
0.000802035
0.000768801
0.000719147
0.000657344
0.000587672
0.000513651
0.000437644
0.000360845
0.000283463
0.000205066
0.000124948
4.25251e-05
0.0032713
-0.000327838
-0.00231162
-0.00280153
-0.00224883
-0.00118865
-5.20244e-05
0.00089691
0.00153786
0.00184656
0.00187162
0.00170295
0.00143766
0.00115628
0.000912734
0.000734659
0.000628909
0.000586812
0.000590495
0.000619239
0.000654336
0.000681803
0.00069321
0.000685165
0.000658203
0.000615449
0.000561231
0.000499884
0.000434979
0.000368926
0.000302945
0.000237251
0.000171384
0.000104569
3.61081e-05
0.00312805
-0.00047024
-0.00245306
-0.0029419
-0.00238802
-0.00132659
-0.000188609
0.00076177
0.00140427
0.00171464
0.00174148
0.00157471
0.00131146
0.00103227
0.000791067
0.000615518
0.000512489
0.000473332
0.0004802
0.000512403
0.000551256
0.000582799
0.000598637
0.000595407
0.000573669
0.000536578
0.000488482
0.000433739
0.000375934
0.000317491
0.000259642
0.000202612
0.00014595
8.88923e-05
3.07555e-05
0.00302599
-0.000571611
-0.0025537
-0.00304174
-0.00248701
-0.00142465
-0.000285679
0.000665777
0.00130944
0.00162106
0.00164924
0.00148389
0.00122217
0.000944591
0.000705114
0.000531412
0.000430367
0.000393347
0.000402521
0.00043721
0.000478748
0.000513195
0.00053217
0.000532323
0.000514235
0.000481077
0.000437219
0.000387036
0.000334133
0.000280957
0.000228761
0.000177795
0.000127631
7.75339e-05
2.68522e-05
0.00297117
-0.000625668
-0.00260712
-0.00309467
-0.00253955
-0.00147683
-0.000337487
0.000614387
0.00125853
0.00157072
0.00159955
0.00143494
0.00117403
0.00089735
0.000658839
0.000486171
0.000386227
0.000350381
0.000360804
0.000396828
0.000439797
0.000475785
0.000496422
0.000498371
0.000482226
0.000451171
0.000409586
0.000361857
0.000311602
0.000261275
0.000212142
0.000164464
0.000117821
7.14852e-05
2.48131e-05
0.0140411
0.0120512
0.0119472
0.0115637
0.0118138
0.0118736
0.0119617
0.0118504
0.0122428
0.0123958
0.0127181
0.0132967
0.0141101
0.0153046
0.0168258
0.0187795
0.0213014
0.0246287
0.0286114
0.0330832
0.0140466
0.0120383
0.011952
0.0115509
0.0118254
0.0118488
0.0119725
0.0118034
0.0122625
0.0123268
0.0127454
0.0132288
0.014141
0.0152462
0.0168556
0.018713
0.0212614
0.0242933
0.0277138
0.031169
0.0140478
0.0120226
0.0119566
0.0115378
0.0118337
0.011821
0.0119822
0.0117631
0.0122782
0.0122762
0.0127623
0.0131729
0.0141538
0.0151943
0.0168413
0.0186139
0.0210428
0.0236853
0.0265583
0.0292909
0.0140434
0.0120058
0.0119601
0.0115258
0.0118402
0.011794
0.0119884
0.0117304
0.0122789
0.0122453
0.0127507
0.0131453
0.0141165
0.0151741
0.0167551
0.0184721
0.0206335
0.0229494
0.0253277
0.027598
0.0140355
0.0119885
0.0119634
0.0115166
0.0118451
0.0117692
0.0119879
0.0117076
0.0122627
0.0122373
0.0127081
0.0131405
0.0140309
0.0151212
0.0166076
0.0182309
0.020116
0.0221086
0.0240963
0.0260263
0.0140253
0.0119723
0.0119666
0.0115118
0.0118448
0.0117505
0.0119766
0.0116991
0.0122259
0.0122446
0.0126369
0.0131231
0.0139275
0.0150013
0.0163774
0.0178641
0.0195201
0.0212302
0.0228989
0.0245436
0.0140129
0.0119592
0.0119672
0.0115124
0.011836
0.0117412
0.0119498
0.0117078
0.0121662
0.0122562
0.0125579
0.0130808
0.0138151
0.0148053
0.0160274
0.0173384
0.0188205
0.0203472
0.0217743
0.0231616
0.0139976
0.0119516
0.011963
0.0115195
0.0118162
0.0117425
0.0119054
0.0117248
0.0120983
0.0122549
0.0124908
0.0130101
0.0136837
0.0145646
0.0156155
0.0166958
0.0178981
0.0192664
0.0206719
0.0218696
0.013978
0.0119518
0.0119522
0.0115335
0.0117842
0.011751
0.011852
0.0117319
0.0120425
0.0122354
0.0124348
0.0129146
0.0135234
0.0142788
0.0151774
0.0160069
0.0168978
0.0179458
0.0191323
0.0205582
0.0139517
0.0119631
0.0119332
0.011555
0.011739
0.0117636
0.011802
0.0117257
0.0119999
0.012204
0.0123725
0.0127989
0.0133225
0.0138686
0.0145117
0.0151454
0.0158147
0.0166519
0.0177831
0.0193447
0.0139165
0.0119886
0.0119053
0.0115826
0.0116825
0.0117693
0.0117652
0.0117099
0.0119572
0.0121574
0.0122786
0.0125784
0.0129757
0.0133754
0.0138217
0.0142665
0.01475
0.0154549
0.0165497
0.018214
0.0138705
0.0120309
0.0118704
0.0116099
0.0116338
0.0117544
0.0117437
0.0116868
0.0119034
0.0120609
0.0120932
0.0122928
0.012594
0.0128623
0.0131248
0.0133862
0.0137155
0.0143123
0.0153783
0.0171262
0.0138119
0.0120922
0.0118325
0.01163
0.0116002
0.0117194
0.0117159
0.0116477
0.0117978
0.011908
0.0118852
0.0119875
0.0121861
0.0123274
0.0124152
0.0125028
0.0126915
0.0131932
0.014242
0.0160724
0.0137393
0.0121706
0.0118031
0.0116337
0.0115792
0.0116768
0.0116618
0.0115616
0.011656
0.0117323
0.0116643
0.0116653
0.0117463
0.0117568
0.0116835
0.0116125
0.0116757
0.0120972
0.0131404
0.0150588
0.0136528
0.0122554
0.0117928
0.0116274
0.0115527
0.0116177
0.0115803
0.0114544
0.0114967
0.0115374
0.0114214
0.0113164
0.0112681
0.0111489
0.0109333
0.0107224
0.010676
0.011031
0.0120761
0.0140861
0.0135527
0.0123369
0.0118098
0.0116007
0.0115135
0.0115395
0.0114779
0.0113302
0.0113217
0.0113158
0.011146
0.0109362
0.0107563
0.0105136
0.0101728
0.00983868
0.0096961
0.00999703
0.0110504
0.0131531
0.0134395
0.0124118
0.0118545
0.0115855
0.0114585
0.0114419
0.0113557
0.0111868
0.0111233
0.0110601
0.0108346
0.0105281
0.010221
0.00985819
0.00940457
0.00896365
0.00874008
0.00900184
0.0100715
0.0122669
0.0133164
0.0124711
0.0119233
0.0115738
0.0113885
0.011324
0.0112099
0.0110163
0.0108968
0.0107741
0.0104925
0.0100956
0.00966642
0.00918589
0.00863008
0.00810332
0.00781883
0.00805739
0.00915129
0.0114356
0.0131931
0.0125067
0.0119955
0.0115816
0.0113178
0.0111865
0.0110329
0.0108143
0.0106454
0.0104642
0.0101237
0.00964024
0.00909613
0.00850245
0.00786044
0.00727168
0.00694683
0.00717459
0.00829652
0.0106621
0.0130772
0.0125225
0.0120451
0.0115928
0.0112397
0.0110262
0.0108198
0.0105744
0.0103636
0.0101248
0.00972479
0.00916267
0.00851623
0.0078233
0.00710939
0.00647571
0.00612555
0.00635053
0.00750155
0.00994067
0.0129667
0.01249
0.0120747
0.0116611
0.0112276
0.0108598
0.0105663
0.0102884
0.0100442
0.00975425
0.00929909
0.00866897
0.00793477
0.00715442
0.00637597
0.00570492
0.00533896
0.00556798
0.00674999
0.00925764
0.0128772
0.0124617
0.0120432
0.011591
0.0111745
0.0107583
0.010347
0.0100136
0.00972082
0.00937114
0.00885701
0.00816536
0.00735733
0.00650226
0.00566847
0.00496693
0.00459324
0.00483356
0.00604955
0.00862233
0.0128293
0.0124877
0.0119931
0.0114529
0.0109596
0.0105355
0.0101464
0.00977642
0.00941162
0.00898372
0.00840319
0.00765427
0.00678853
0.00587902
0.00500395
0.00428075
0.00390558
0.0041618
0.00541232
0.00804496
0.01277
0.0124432
0.0119096
0.0113128
0.0107745
0.0103367
0.00994076
0.00953384
0.00909761
0.00858919
0.00794211
0.00714144
0.00623043
0.00527938
0.00437364
0.00363586
0.00326254
0.00353596
0.00481951
0.0075063
0.0126932
0.0123857
0.0118318
0.0111871
0.0105985
0.0101219
0.00970086
0.00925944
0.00876533
0.00818717
0.00747969
0.00662988
0.00567954
0.00469602
0.0037679
0.00302176
0.00265357
0.00294527
0.004261
0.00699808
0.0126106
0.012312
0.0117309
0.0110435
0.0104084
0.009888
0.0094298
0.00895542
0.00841683
0.00778174
0.00702177
0.00612949
0.00514668
0.00413924
0.00319666
0.00244806
0.0020887
0.00240007
0.0037472
0.00653081
0.0125182
0.0122172
0.0116057
0.0108803
0.0102043
0.0096419
0.0091464
0.0086394
0.00806274
0.00737972
0.00657408
0.00564894
0.00464186
0.00361785
0.00266688
0.00192001
0.00157192
0.00190321
0.00327963
0.00610486
0.0124085
0.0121005
0.0114589
0.010698
0.00998587
0.00938703
0.00885776
0.00831941
0.00770961
0.00698765
0.0061444
0.00519206
0.00416598
0.00312936
0.00217268
0.00142917
0.00109387
0.00144558
0.00284991
0.00571301
0.012277
0.0119575
0.0112909
0.0104971
0.00975336
0.00912478
0.00856806
0.00800275
0.00736547
0.0066142
0.00574097
0.00476545
0.0037231
0.00267529
0.00171229
0.00096918
0.000645805
0.00101935
0.00245169
0.0053505
0.012121
0.0117928
0.0110975
0.0102752
0.00950684
0.00885645
0.00828072
0.0076972
0.00704029
0.00626861
0.00537511
0.00438184
0.00332632
0.00226923
0.00130112
0.000557829
0.000238431
0.000623864
0.0020801
0.00500831
0.0116814
0.0113329
0.0105837
0.00970614
0.00889735
0.00821825
0.00762183
0.00702094
0.00634431
0.00555285
0.00463968
0.00362643
0.00255473
0.00148533
0.000507098
-0.000247257
-0.00057941
-0.000202902
0.00126027
0.0042325
0.0105892
0.0102532
0.00954578
0.00872941
0.00799718
0.00740436
0.00690053
0.00640287
0.00584666
0.00519463
0.00443108
0.00356212
0.0026151
0.00164134
0.000725279
8.8955e-07
-0.000329011
2.7124e-05
0.00145321
0.0043783
0.00942247
0.0092571
0.00876163
0.00818835
0.00769353
0.00728874
0.00689294
0.00641683
0.00580091
0.00502741
0.00410722
0.00307058
0.00196194
0.00084402
-0.000238939
-0.00110692
-0.00156337
-0.00131784
1.51262e-05
0.00286451
0.00568301
0.00580912
0.00623608
0.00672108
0.00711126
0.00739509
0.00765449
0.00798159
0.00843419
0.00903327
0.00977248
0.0106256
0.0115515
0.0124894
0.0133927
0.0140847
0.0143684
0.0139536
0.0124546
0.00943834
0.00465534
0.00496096
0.00561092
0.00635346
0.00699496
0.00747078
0.00782437
0.00814
0.00849757
0.00895139
0.00952555
0.0102168
0.0109984
0.0118176
0.012588
0.013173
0.0133663
0.0128715
0.0112995
0.00821709
0.00352138
0.00390511
0.00470314
0.00563793
0.00649764
0.00720249
0.00778532
0.0083276
0.00890547
0.00956299
0.0103124
0.0111413
0.0120169
0.0128851
0.0136618
0.0142168
0.014353
0.0137852
0.0121358
0.00898039
0.00292911
0.00336349
0.0042319
0.00525151
0.00620039
0.00698474
0.00762543
0.00819702
0.00877487
0.00940995
0.0101236
0.0109109
0.0117446
0.0125739
0.0133161
0.0138417
0.0139533
0.0133652
0.0116994
0.0085312
0.00243471
0.0028852
0.00378013
0.00483331
0.00581923
0.00664051
0.00731532
0.0079172
0.00852155
0.00917936
0.00991215
0.0107157
0.0115634
0.0124048
0.0131573
0.0136911
0.0138092
0.0132265
0.0115656
0.00840255
0.00205001
0.0025109
0.00342233
0.00449594
0.00550414
0.0063474
0.00704215
0.00766085
0.00827846
0.00894599
0.00968515
0.0104919
0.01134
0.0121793
0.0129281
0.0134575
0.0135712
0.0129847
0.0113207
0.00815549
0.00173263
0.00219805
0.00311671
0.0041993
0.00521725
0.00606981
0.00677237
0.00739707
0.00801903
0.00868958
0.00943085
0.0102392
0.0110885
0.0119289
0.0126787
0.0132092
0.0133238
0.0127382
0.0110752
0.00791113
0.00146513
0.00193287
0.00285535
0.00394267
0.00496577
0.00582354
0.00653108
0.00716022
0.00778596
0.00845969
0.00920365
0.0100143
0.0108658
0.0117085
0.0124607
0.0129935
0.0131104
0.0125269
0.010866
0.00770386
0.00124431
0.00171349
0.00263836
0.00372865
0.00475498
0.00561604
0.00632686
0.00695924
0.00758815
0.0082649
0.00901166
0.00982489
0.0106787
0.0115232
0.012277
0.0128111
0.0129292
0.0123468
0.010687
0.00752593
0.00107121
0.00154148
0.00246815
0.00356064
0.00458935
0.00545282
0.006166
0.00680065
0.00743168
0.00811039
0.00885893
0.00967374
0.0105289
0.0113747
0.0121295
0.0126646
0.0127835
0.0122019
0.0105426
0.00738205
0.000948455
0.00141941
0.00234725
0.00344119
0.00447145
0.00533649
0.00605119
0.0066873
0.00731971
0.00799971
0.00874945
0.00956536
0.0104215
0.0112682
0.0120239
0.0125597
0.0126793
0.0120982
0.0104394
0.00727943
0.000882124
0.00135331
0.00228149
0.0033759
0.00440679
0.00527257
0.00598808
0.00662499
0.00725817
0.00793888
0.00868927
0.00950578
0.0103625
0.0112097
0.0119658
0.0125021
0.0126221
0.0120415
0.0103833
0.00722384
)
;

boundaryField
{
    top
    {
        type            zeroGradient;
    }
    inlet
    {
        type            zeroGradient;
    }
    outlet
    {
        type            fixedValue;
        value           uniform 0;
    }
    plate
    {
        type            zeroGradient;
    }
    symmBound
    {
        type            zeroGradient;
    }
    frontAndBack
    {
        type            empty;
    }
}


// ************************************************************************* //
