/*--------------------------------*- C++ -*----------------------------------*\
| =========                 |                                                 |
| \\      /  F ield         | OpenFOAM: The Open Source CFD Toolbox           |
|  \\    /   O peration     | Version:  5.x                                   |
|   \\  /    A nd           | Web:      www.OpenFOAM.org                      |
|    \\/     M anipulation  |                                                 |
\*---------------------------------------------------------------------------*/
FoamFile
{
    version     2.0;
    format      ascii;
    class       volVectorField;
    location    "0.8";
    object      U;
}
// * * * * * * * * * * * * * * * * * * * * * * * * * * * * * * * * * * * * * //

dimensions      [0 1 -1 0 0 0 0];

internalField   nonuniform List<vector> 
2475
(
(0.911038 0.0103033 0)
(0.814504 0.014148 0)
(0.714793 0.013964 0)
(0.610498 0.0128615 0)
(0.504121 0.0114713 0)
(0.402041 0.00916137 0)
(0.316732 0.00558408 0)
(0.259408 0.00184187 0)
(0.226349 -0.000123493 0)
(0.206096 -0.000511513 0)
(0.192314 -0.000396333 0)
(0.182149 -0.000216352 0)
(0.173488 -5.0475e-05 0)
(0.165568 6.43779e-05 0)
(0.157898 0.00012327 0)
(0.150752 0.000142016 0)
(0.143916 0.000137466 0)
(0.137784 0.000125302 0)
(0.131935 0.00011075 0)
(0.126803 9.79882e-05 0)
(0.121754 8.62912e-05 0)
(0.117383 7.80327e-05 0)
(0.112876 6.88564e-05 0)
(0.109112 6.2301e-05 0)
(0.104992 5.56032e-05 0)
(0.10175 5.09502e-05 0)
(0.097889 4.50381e-05 0)
(0.0951457 4.19031e-05 0)
(0.0914178 3.70164e-05 0)
(0.0891851 3.46758e-05 0)
(0.0854463 3.04337e-05 0)
(0.0837976 2.91175e-05 0)
(0.0798165 2.57897e-05 0)
(0.0789137 2.47792e-05 0)
(0.0743014 2.47441e-05 0)
(0.966787 0.0194425 0)
(0.959759 0.0273384 0)
(0.94576 0.0284569 0)
(0.921652 0.0278593 0)
(0.886258 0.0269505 0)
(0.840639 0.0249277 0)
(0.788809 0.0207789 0)
(0.737585 0.0148077 0)
(0.691023 0.00942703 0)
(0.648507 0.00605984 0)
(0.60918 0.00413477 0)
(0.573922 0.00306538 0)
(0.542018 0.00245414 0)
(0.513648 0.00206497 0)
(0.487694 0.00177221 0)
(0.464679 0.00153565 0)
(0.44329 0.00132786 0)
(0.424373 0.00115431 0)
(0.406337 0.00100226 0)
(0.390541 0.000882038 0)
(0.374925 0.000776236 0)
(0.361463 0.000696034 0)
(0.34754 0.000616085 0)
(0.335951 0.000556593 0)
(0.323215 0.000495181 0)
(0.313257 0.000451986 0)
(0.30134 0.000400498 0)
(0.292934 0.000370282 0)
(0.281457 0.000326705 0)
(0.27464 0.000306251 0)
(0.263141 0.000267619 0)
(0.25812 0.000257415 0)
(0.245931 0.000222292 0)
(0.243196 0.000220528 0)
(0.229279 0.000198882 0)
(0.971516 0.0179244 0)
(0.972431 0.026059 0)
(0.975155 0.0288189 0)
(0.976475 0.0294226 0)
(0.973981 0.029576 0)
(0.966833 0.0288146 0)
(0.954133 0.0258697 0)
(0.937035 0.0208178 0)
(0.916637 0.0156491 0)
(0.894424 0.0121535 0)
(0.870033 0.0100467 0)
(0.845458 0.00869862 0)
(0.819962 0.00765937 0)
(0.795096 0.00675998 0)
(0.769421 0.00592705 0)
(0.744866 0.00518321 0)
(0.719541 0.00450888 0)
(0.695892 0.00393373 0)
(0.671438 0.00341823 0)
(0.649438 0.0029989 0)
(0.626454 0.00262913 0)
(0.606565 0.00234191 0)
(0.585137 0.00206843 0)
(0.567449 0.00186281 0)
(0.547252 0.00165316 0)
(0.531704 0.00150372 0)
(0.512386 0.00133196 0)
(0.499064 0.00122778 0)
(0.480194 0.00108308 0)
(0.469292 0.00101446 0)
(0.450199 0.000885626 0)
(0.442114 0.000851981 0)
(0.421819 0.000731153 0)
(0.417364 0.000728839 0)
(0.394377 0.000636534 0)
(0.976727 0.0166522 0)
(0.977109 0.0238197 0)
(0.980207 0.027346 0)
(0.984905 0.0284199 0)
(0.988839 0.028671 0)
(0.992224 0.0281517 0)
(0.993192 0.0258832 0)
(0.992142 0.0218401 0)
(0.987234 0.017359 0)
(0.980527 0.0141308 0)
(0.970746 0.0122739 0)
(0.96087 0.0111737 0)
(0.948852 0.0103076 0)
(0.937428 0.00951451 0)
(0.923496 0.00871638 0)
(0.910348 0.00798223 0)
(0.89419 0.0072741 0)
(0.879206 0.00665352 0)
(0.860748 0.00603545 0)
(0.844291 0.00549561 0)
(0.824085 0.00496027 0)
(0.807036 0.00451995 0)
(0.785821 0.00406504 0)
(0.769083 0.00371859 0)
(0.747161 0.00334326 0)
(0.731188 0.00307294 0)
(0.708531 0.00274397 0)
(0.693928 0.00254229 0)
(0.670589 0.00225398 0)
(0.658183 0.00211922 0)
(0.633743 0.00185727 0)
(0.624278 0.0017897 0)
(0.597786 0.00153909 0)
(0.59244 0.00153403 0)
(0.562364 0.00132512 0)
(0.98146 0.0162306 0)
(0.981659 0.0223042 0)
(0.983756 0.0261483 0)
(0.988441 0.0275375 0)
(0.992612 0.027675 0)
(0.99765 0.027014 0)
(1.00084 0.0249931 0)
(1.00407 0.0215994 0)
(1.00379 0.0176809 0)
(1.00316 0.014647 0)
(0.999228 0.0128576 0)
(0.996644 0.0118862 0)
(0.991554 0.0111611 0)
(0.98866 0.0105075 0)
(0.982667 0.00980635 0)
(0.979031 0.00918115 0)
(0.97138 0.00856516 0)
(0.966371 0.00806461 0)
(0.956368 0.00753284 0)
(0.949596 0.00708235 0)
(0.93696 0.00657878 0)
(0.928617 0.00617074 0)
(0.91357 0.00568262 0)
(0.904316 0.00532974 0)
(0.887113 0.00489879 0)
(0.877333 0.00461672 0)
(0.857635 0.0042087 0)
(0.847566 0.00397604 0)
(0.825305 0.00357528 0)
(0.816067 0.00340918 0)
(0.791288 0.00302452 0)
(0.783841 0.00294251 0)
(0.755789 0.00255773 0)
(0.751411 0.0025564 0)
(0.719065 0.00221782 0)
(0.985338 0.0161026 0)
(0.985635 0.0211368 0)
(0.986833 0.0249199 0)
(0.991318 0.0265733 0)
(0.994949 0.0267253 0)
(1.0003 0.0259943 0)
(1.00327 0.0241519 0)
(1.00744 0.0212472 0)
(1.00781 0.0177908 0)
(1.00913 0.0149081 0)
(1.00655 0.0130718 0)
(1.00655 0.0120991 0)
(1.00334 0.0114086 0)
(1.00385 0.0108215 0)
(1.00056 0.0101481 0)
(1.00138 0.00956776 0)
(0.997396 0.00898422 0)
(0.997946 0.00856472 0)
(0.992597 0.00810311 0)
(0.992404 0.00775785 0)
(0.985166 0.00732144 0)
(0.984068 0.00700343 0)
(0.974769 0.00654577 0)
(0.97301 0.00625359 0)
(0.961722 0.00583286 0)
(0.95955 0.00561814 0)
(0.945747 0.00522279 0)
(0.942785 0.00505463 0)
(0.925742 0.00462381 0)
(0.922478 0.00449047 0)
(0.902443 0.00405018 0)
(0.899673 0.00400404 0)
(0.875933 0.0035468 0)
(0.874192 0.00357008 0)
(0.846307 0.00315488 0)
(0.988274 0.0162019 0)
(0.988728 0.0202819 0)
(0.989209 0.0236354 0)
(0.993489 0.0254067 0)
(0.996542 0.0256503 0)
(1.00205 0.0249601 0)
(1.00461 0.0232869 0)
(1.00912 0.0207807 0)
(1.00942 0.0177404 0)
(1.01155 0.0150469 0)
(1.00921 0.0131631 0)
(1.01013 0.0121465 0)
(1.00718 0.0114506 0)
(1.00874 0.0109061 0)
(1.00597 0.0102409 0)
(1.00821 0.00967251 0)
(1.0052 0.00907854 0)
(1.00773 0.00868924 0)
(1.00402 0.00825263 0)
(1.0065 0.00796947 0)
(1.00174 0.00757065 0)
(1.00405 0.00731733 0)
(0.998064 0.006884 0)
(1.00026 0.0066392 0)
(0.993089 0.00622881 0)
(0.995399 0.00607135 0)
(0.986708 0.00571004 0)
(0.988628 0.00562787 0)
(0.977521 0.00522605 0)
(0.978732 0.00514283 0)
(0.965447 0.00470453 0)
(0.966583 0.00471115 0)
(0.950609 0.00426643 0)
(0.951184 0.00431963 0)
(0.932314 0.00391746 0)
(0.990341 0.0166752 0)
(0.99084 0.019825 0)
(0.990878 0.0225533 0)
(0.994843 0.0242491 0)
(0.99747 0.0245808 0)
(1.00289 0.0239806 0)
(1.00526 0.0224738 0)
(1.0098 0.0202755 0)
(1.01019 0.0175919 0)
(1.01262 0.0151208 0)
(1.01061 0.0132247 0)
(1.01179 0.0121507 0)
(1.00909 0.0114332 0)
(1.01074 0.0109219 0)
(1.00826 0.0102727 0)
(1.01058 0.00970911 0)
(1.00806 0.00909439 0)
(1.01073 0.00870533 0)
(1.00783 0.00827189 0)
(1.01064 0.00801376 0)
(1.00722 0.00763247 0)
(1.01011 0.00740866 0)
(1.0061 0.00698913 0)
(1.00907 0.00676085 0)
(1.00453 0.0063525 0)
(1.00779 0.00621377 0)
(1.00263 0.00587678 0)
(1.00583 0.00584324 0)
(0.999521 0.00549324 0)
(1.00201 0.00543466 0)
(0.994629 0.00502004 0)
(0.997006 0.00504865 0)
(0.98843 0.00466692 0)
(0.989738 0.00472936 0)
(0.979714 0.00439552 0)
(0.991726 0.0170771 0)
(0.992057 0.0194567 0)
(0.991987 0.0215861 0)
(0.995467 0.0230951 0)
(0.997911 0.0235033 0)
(1.00293 0.02303 0)
(1.00536 0.0217174 0)
(1.00961 0.0197884 0)
(1.01035 0.0174128 0)
(1.01267 0.0151777 0)
(1.01126 0.0133219 0)
(1.01228 0.0121935 0)
(1.01015 0.0114406 0)
(1.0114 0.0109437 0)
(1.0095 0.0103173 0)
(1.01129 0.00975793 0)
(1.00948 0.00912885 0)
(1.01151 0.00872392 0)
(1.00953 0.00828754 0)
(1.01165 0.0080292 0)
(1.00946 0.00765846 0)
(1.01164 0.00743925 0)
(1.00923 0.00703008 0)
(1.01144 0.00679828 0)
(1.00883 0.00639114 0)
(1.01122 0.00624471 0)
(1.00846 0.00592393 0)
(1.01085 0.00589653 0)
(1.00779 0.00559659 0)
(1.00963 0.00553693 0)
(1.00617 0.00514457 0)
(1.008 0.00515948 0)
(1.0043 0.00484669 0)
(1.00526 0.00489663 0)
(1.00102 0.00463326 0)
(0.992888 0.0168448 0)
(0.992841 0.0187578 0)
(0.992884 0.020442 0)
(0.995767 0.0217361 0)
(0.998205 0.0222029 0)
(1.0026 0.0218841 0)
(1.00523 0.0207982 0)
(1.00897 0.0191442 0)
(1.01017 0.0170602 0)
(1.01215 0.0150653 0)
(1.01145 0.0133123 0)
(1.01212 0.0121557 0)
(1.01069 0.0113661 0)
(1.01137 0.0108754 0)
(1.01015 0.0102882 0)
(1.01124 0.00975143 0)
(1.01023 0.00913045 0)
(1.01148 0.00871051 0)
(1.01041 0.00827372 0)
(1.01166 0.00800527 0)
(1.01055 0.00764535 0)
(1.01182 0.00742475 0)
(1.01066 0.00702943 0)
(1.0119 0.00679445 0)
(1.01065 0.00639523 0)
(1.01195 0.00623712 0)
(1.01069 0.00593201 0)
(1.01194 0.00589123 0)
(1.01074 0.00562928 0)
(1.01167 0.00556146 0)
(1.01031 0.00518668 0)
(1.01127 0.00517432 0)
(1.00997 0.00491621 0)
(1.01044 0.00494539 0)
(1.00897 0.00473242 0)
(0.993956 0.0163914 0)
(0.993464 0.0180439 0)
(0.993647 0.0194306 0)
(0.995966 0.0205143 0)
(0.998441 0.0209835 0)
(1.00221 0.0207971 0)
(1.005 0.0199226 0)
(1.00822 0.0185323 0)
(1.00981 0.0167133 0)
(1.01146 0.0149275 0)
(1.01135 0.0132982 0)
(1.01171 0.0121338 0)
(1.01088 0.0113036 0)
(1.0111 0.0108048 0)
(1.01042 0.0102557 0)
(1.01097 0.00974653 0)
(1.01055 0.00914142 0)
(1.01121 0.00870538 0)
(1.0108 0.00826378 0)
(1.01144 0.0079789 0)
(1.01104 0.00762402 0)
(1.01168 0.0074006 0)
(1.01127 0.00701694 0)
(1.01188 0.00678121 0)
(1.01141 0.00639154 0)
(1.012 0.00622342 0)
(1.01153 0.005932 0)
(1.01207 0.00587338 0)
(1.01173 0.00563528 0)
(1.01214 0.00555926 0)
(1.0117 0.00520048 0)
(1.01212 0.00516195 0)
(1.01175 0.00494321 0)
(1.01195 0.00495143 0)
(1.0115 0.0047716 0)
(0.994958 0.0158908 0)
(0.994067 0.0173556 0)
(0.994293 0.0185241 0)
(0.996172 0.0194311 0)
(0.998621 0.0198539 0)
(1.00189 0.0197603 0)
(1.00471 0.0190677 0)
(1.00754 0.0179223 0)
(1.00934 0.016349 0)
(1.01078 0.0147477 0)
(1.01106 0.013253 0)
(1.01127 0.0121179 0)
(1.01085 0.011259 0)
(1.01082 0.0107397 0)
(1.01046 0.0102177 0)
(1.01069 0.00973556 0)
(1.01061 0.00915167 0)
(1.01097 0.00870581 0)
(1.01091 0.00825809 0)
(1.01124 0.00795577 0)
(1.01119 0.00760024 0)
(1.01153 0.00737386 0)
(1.01147 0.00700014 0)
(1.01177 0.0067657 0)
(1.01167 0.00638723 0)
(1.01192 0.00621137 0)
(1.0118 0.00593141 0)
(1.01203 0.00585521 0)
(1.01201 0.00563188 0)
(1.01223 0.00554697 0)
(1.01214 0.00520647 0)
(1.01232 0.00514616 0)
(1.01224 0.00495638 0)
(1.01234 0.00494539 0)
(1.01222 0.00478954 0)
(0.995869 0.0153886 0)
(0.994666 0.016685 0)
(0.994826 0.0176775 0)
(0.996393 0.0184397 0)
(0.998735 0.0187976 0)
(1.00165 0.018757 0)
(1.0044 0.0182109 0)
(1.00695 0.0172773 0)
(1.00881 0.0159413 0)
(1.01016 0.0145226 0)
(1.01067 0.0131652 0)
(1.01086 0.0120899 0)
(1.01068 0.0112127 0)
(1.01058 0.0106604 0)
(1.01038 0.0101521 0)
(1.01047 0.00969743 0)
(1.01053 0.00914264 0)
(1.01077 0.00869883 0)
(1.01087 0.00824907 0)
(1.01109 0.00793046 0)
(1.01118 0.00757092 0)
(1.0114 0.00733912 0)
(1.01148 0.00697519 0)
(1.01167 0.00674209 0)
(1.0117 0.00637803 0)
(1.01184 0.00619623 0)
(1.01185 0.00592796 0)
(1.01198 0.00583545 0)
(1.01205 0.00562349 0)
(1.01221 0.00552721 0)
(1.01224 0.00520844 0)
(1.01233 0.00513017 0)
(1.01234 0.00496359 0)
(1.01241 0.00493541 0)
(1.01239 0.00479949 0)
(0.996687 0.0148522 0)
(0.995239 0.0159976 0)
(0.995265 0.0168446 0)
(0.996604 0.0174885 0)
(0.998794 0.0177923 0)
(1.00147 0.0177785 0)
(1.00408 0.0173485 0)
(1.00644 0.016596 0)
(1.00827 0.0154908 0)
(1.00958 0.0142641 0)
(1.01022 0.0130336 0)
(1.01045 0.0120314 0)
(1.01042 0.0111557 0)
(1.01034 0.0105697 0)
(1.01022 0.0100659 0)
(1.01026 0.00963711 0)
(1.01038 0.00911472 0)
(1.01059 0.00868041 0)
(1.01075 0.00823434 0)
(1.01095 0.00790064 0)
(1.0111 0.00753753 0)
(1.01129 0.00729899 0)
(1.01142 0.00694747 0)
(1.01156 0.00671441 0)
(1.01165 0.00636684 0)
(1.01175 0.00617823 0)
(1.01181 0.00592161 0)
(1.01191 0.00581344 0)
(1.01201 0.00561311 0)
(1.01216 0.00550404 0)
(1.01223 0.00520871 0)
(1.01229 0.00511468 0)
(1.01233 0.0049674 0)
(1.01239 0.00492455 0)
(1.01241 0.00480598 0)
(0.997424 0.0142875 0)
(0.995768 0.0152943 0)
(0.995629 0.0160196 0)
(0.996786 0.0165639 0)
(0.998813 0.016829 0)
(1.00129 0.0168258 0)
(1.00376 0.0164869 0)
(1.00597 0.0158882 0)
(1.00774 0.0149878 0)
(1.00902 0.0139514 0)
(1.00973 0.012842 0)
(1.01003 0.0119187 0)
(1.0101 0.011078 0)
(1.01008 0.01047 0)
(1.01002 0.0099659 0)
(1.01004 0.00955957 0)
(1.01019 0.00907027 0)
(1.0104 0.00864792 0)
(1.01059 0.00821257 0)
(1.01079 0.00786661 0)
(1.01097 0.00750083 0)
(1.01116 0.00725233 0)
(1.01131 0.00691403 0)
(1.01145 0.00667926 0)
(1.01156 0.00635115 0)
(1.01165 0.00615709 0)
(1.01173 0.0059135 0)
(1.01182 0.00578985 0)
(1.01193 0.00560026 0)
(1.01208 0.00547772 0)
(1.01217 0.00520641 0)
(1.01222 0.00509942 0)
(1.01227 0.00496828 0)
(1.01234 0.00491336 0)
(1.01237 0.00480999 0)
(0.998098 0.0137116 0)
(0.99625 0.0145861 0)
(0.995939 0.0152123 0)
(0.996938 0.0156693 0)
(0.998807 0.0159048 0)
(1.00112 0.0159122 0)
(1.00346 0.0156484 0)
(1.00554 0.0151798 0)
(1.00723 0.014451 0)
(1.00847 0.0135947 0)
(1.00923 0.0126186 0)
(1.00959 0.0117742 0)
(1.00974 0.0109914 0)
(1.00979 0.0103731 0)
(1.00978 0.00986025 0)
(1.00981 0.00946444 0)
(1.00996 0.00900414 0)
(1.01018 0.00859401 0)
(1.0104 0.00817849 0)
(1.01061 0.00782864 0)
(1.01082 0.00746412 0)
(1.01101 0.00720423 0)
(1.01117 0.00687892 0)
(1.01131 0.00664082 0)
(1.01144 0.00633163 0)
(1.01152 0.0061319 0)
(1.01162 0.00590084 0)
(1.01171 0.00576347 0)
(1.01183 0.00558436 0)
(1.01197 0.00545015 0)
(1.01208 0.0052008 0)
(1.01212 0.00508363 0)
(1.01219 0.00496503 0)
(1.01225 0.00490158 0)
(1.0123 0.00481061 0)
(0.998708 0.0131376 0)
(0.99668 0.0138856 0)
(0.996201 0.0144264 0)
(0.997055 0.0148058 0)
(0.998785 0.0150117 0)
(1.00095 0.0150366 0)
(1.00317 0.0148349 0)
(1.00515 0.0144727 0)
(1.00676 0.0138883 0)
(1.00795 0.0131928 0)
(1.00872 0.0123644 0)
(1.00914 0.011598 0)
(1.00935 0.0108821 0)
(1.00945 0.0102751 0)
(1.0095 0.00975382 0)
(1.00955 0.00936192 0)
(1.00972 0.00893192 0)
(1.00994 0.0085358 0)
(1.01018 0.00814295 0)
(1.0104 0.00779338 0)
(1.01063 0.00743042 0)
(1.01084 0.00715786 0)
(1.01101 0.00684435 0)
(1.01114 0.00660402 0)
(1.01129 0.00631436 0)
(1.01137 0.00611124 0)
(1.01148 0.0058917 0)
(1.01158 0.00574223 0)
(1.01171 0.00557054 0)
(1.01184 0.00542691 0)
(1.01196 0.00519729 0)
(1.012 0.0050733 0)
(1.01209 0.00496327 0)
(1.01214 0.00489407 0)
(1.01221 0.00481284 0)
(0.999255 0.0125147 0)
(0.997059 0.013154 0)
(0.996421 0.0136246 0)
(0.997141 0.0139485 0)
(0.998754 0.0141317 0)
(1.0008 0.0141814 0)
(1.0029 0.0140368 0)
(1.00478 0.0137596 0)
(1.00632 0.013299 0)
(1.00746 0.0127346 0)
(1.00823 0.0120504 0)
(1.00868 0.0113656 0)
(1.00894 0.0107127 0)
(1.00909 0.0101365 0)
(1.0092 0.00961442 0)
(1.00927 0.00922208 0)
(1.00945 0.00882235 0)
(1.00968 0.00843915 0)
(1.00994 0.00806851 0)
(1.01017 0.0077266 0)
(1.01042 0.00737241 0)
(1.01064 0.00709206 0)
(1.01083 0.00679148 0)
(1.01096 0.00654841 0)
(1.01112 0.00627636 0)
(1.01121 0.00607127 0)
(1.01133 0.00586362 0)
(1.01142 0.00570563 0)
(1.01157 0.00554204 0)
(1.01169 0.00539158 0)
(1.01183 0.00518066 0)
(1.01186 0.00505223 0)
(1.01197 0.0049504 0)
(1.01202 0.00487705 0)
(1.0121 0.00480637 0)
(0.999758 0.0119323 0)
(0.997407 0.0124814 0)
(0.996625 0.0128935 0)
(0.997219 0.0131783 0)
(0.998731 0.0133422 0)
(1.00066 0.0134067 0)
(1.00267 0.0133097 0)
(1.00446 0.0130934 0)
(1.00593 0.0127335 0)
(1.00701 0.0122726 0)
(1.00776 0.011716 0)
(1.00822 0.0111243 0)
(1.00853 0.010531 0)
(1.00871 0.0100006 0)
(1.00887 0.00949498 0)
(1.00898 0.00909876 0)
(1.00918 0.00872305 0)
(1.00942 0.00834962 0)
(1.00969 0.00799701 0)
(1.00993 0.00766869 0)
(1.0102 0.00732616 0)
(1.01043 0.00703961 0)
(1.01063 0.00674871 0)
(1.01077 0.00650334 0)
(1.01094 0.00624523 0)
(1.01103 0.00604057 0)
(1.01117 0.00584217 0)
(1.01126 0.00567843 0)
(1.01142 0.00551885 0)
(1.01154 0.00536486 0)
(1.01168 0.00516808 0)
(1.01172 0.00503827 0)
(1.01184 0.00493981 0)
(1.01188 0.00486574 0)
(1.01198 0.00480101 0)
(1.00022 0.0113147 0)
(0.997728 0.0117931 0)
(0.996814 0.0121586 0)
(0.99729 0.0124138 0)
(0.99871 0.0125632 0)
(1.00054 0.0126308 0)
(1.00245 0.0125759 0)
(1.00416 0.0124135 0)
(1.00557 0.0121412 0)
(1.00661 0.0117766 0)
(1.00734 0.011329 0)
(1.00779 0.0108386 0)
(1.00813 0.0103099 0)
(1.00834 0.00983033 0)
(1.00854 0.00935759 0)
(1.00869 0.00895781 0)
(1.0089 0.00860101 0)
(1.00915 0.00824164 0)
(1.00945 0.00790572 0)
(1.00968 0.00759633 0)
(1.00997 0.00726941 0)
(1.01021 0.00698134 0)
(1.01043 0.00670037 0)
(1.01058 0.00645739 0)
(1.01076 0.00621159 0)
(1.01086 0.00600988 0)
(1.01101 0.00581861 0)
(1.0111 0.00565305 0)
(1.01127 0.0054962 0)
(1.01138 0.00534185 0)
(1.01153 0.00515691 0)
(1.01157 0.00502888 0)
(1.0117 0.00493214 0)
(1.01174 0.00485886 0)
(1.01186 0.00479883 0)
(1.00066 0.0106709 0)
(0.998043 0.0110862 0)
(0.997007 0.0114085 0)
(0.99737 0.0116357 0)
(0.998703 0.0117731 0)
(1.00045 0.01184 0)
(1.00228 0.0118223 0)
(1.00392 0.0117131 0)
(1.00526 0.0115134 0)
(1.00625 0.0112342 0)
(1.00695 0.0108723 0)
(1.00739 0.0104744 0)
(1.00773 0.0100184 0)
(1.00797 0.00958386 0)
(1.0082 0.00915387 0)
(1.00838 0.00876088 0)
(1.00862 0.00842405 0)
(1.00888 0.00808582 0)
(1.0092 0.00776606 0)
(1.00945 0.00747543 0)
(1.00975 0.00716972 0)
(1.00999 0.00688635 0)
(1.01023 0.00661831 0)
(1.01038 0.00637814 0)
(1.01058 0.00614324 0)
(1.01068 0.00594449 0)
(1.01085 0.0057626 0)
(1.01094 0.00559783 0)
(1.01112 0.00544753 0)
(1.01122 0.00529395 0)
(1.01139 0.00512214 0)
(1.01143 0.00499452 0)
(1.01157 0.00490349 0)
(1.01161 0.00482976 0)
(1.01174 0.00477882 0)
(1.00108 0.0101357 0)
(0.998342 0.0104858 0)
(0.997195 0.0107618 0)
(0.997455 0.0109611 0)
(0.998709 0.0110875 0)
(1.00039 0.0111565 0)
(1.00215 0.011163 0)
(1.00372 0.011097 0)
(1.00501 0.0109491 0)
(1.00595 0.0107369 0)
(1.00662 0.010445 0)
(1.00704 0.0101245 0)
(1.00738 0.00974645 0)
(1.00762 0.00935717 0)
(1.00789 0.00897421 0)
(1.00809 0.00860342 0)
(1.00836 0.00828254 0)
(1.00863 0.00796413 0)
(1.00897 0.00765304 0)
(1.00922 0.00737536 0)
(1.00953 0.00708947 0)
(1.00978 0.00681445 0)
(1.01004 0.00655809 0)
(1.0102 0.00632385 0)
(1.01041 0.0060975 0)
(1.01052 0.0059045 0)
(1.0107 0.00572849 0)
(1.01079 0.00556505 0)
(1.01098 0.00541596 0)
(1.01107 0.00526516 0)
(1.01125 0.00510257 0)
(1.01129 0.00497899 0)
(1.01146 0.00488838 0)
(1.01149 0.00481674 0)
(1.01164 0.00476836 0)
(1.0015 0.00956727 0)
(0.998656 0.00986867 0)
(0.997416 0.0101103 0)
(0.997589 0.0102951 0)
(0.998775 0.0104185 0)
(1.00039 0.010496 0)
(1.0021 0.0105181 0)
(1.0036 0.0104862 0)
(1.00484 0.0103805 0)
(1.00573 0.0102232 0)
(1.00637 0.00999606 0)
(1.00676 0.00973699 0)
(1.00709 0.00943176 0)
(1.00734 0.00909095 0)
(1.00761 0.00875175 0)
(1.00784 0.00841242 0)
(1.00814 0.00810522 0)
(1.00841 0.00780872 0)
(1.00877 0.00751264 0)
(1.00904 0.00725418 0)
(1.00936 0.00699344 0)
(1.00962 0.00673215 0)
(1.00989 0.00648734 0)
(1.01005 0.00626232 0)
(1.01028 0.00604191 0)
(1.01039 0.00585353 0)
(1.01059 0.00568223 0)
(1.01068 0.00552511 0)
(1.01088 0.0053808 0)
(1.01097 0.0052367 0)
(1.01116 0.00507989 0)
(1.0112 0.00496038 0)
(1.01138 0.00487062 0)
(1.01141 0.00480366 0)
(1.01157 0.0047565 0)
(1.00187 0.00895761 0)
(0.998945 0.009222 0)
(0.997624 0.0094348 0)
(0.997718 0.00960414 0)
(0.998839 0.00972038 0)
(1.0004 0.00979822 0)
(1.00206 0.00982931 0)
(1.0035 0.0098209 0)
(1.00469 0.00975533 0)
(1.00553 0.00964476 0)
(1.00615 0.00948061 0)
(1.00651 0.00927561 0)
(1.00682 0.00903924 0)
(1.00706 0.00875555 0)
(1.00735 0.00846392 0)
(1.00759 0.00816523 0)
(1.00791 0.00788027 0)
(1.00819 0.00760995 0)
(1.00858 0.00733426 0)
(1.00885 0.00708939 0)
(1.00919 0.00685075 0)
(1.00945 0.00660127 0)
(1.00975 0.00637121 0)
(1.00991 0.00615956 0)
(1.01016 0.00595303 0)
(1.01028 0.00577286 0)
(1.01048 0.00561098 0)
(1.01058 0.00545743 0)
(1.01079 0.00531852 0)
(1.01087 0.00517775 0)
(1.01108 0.00503321 0)
(1.01112 0.00491797 0)
(1.01131 0.00483388 0)
(1.01134 0.00476673 0)
(1.01152 0.00472649 0)
(1.00221 0.00840532 0)
(0.9992 0.00863263 0)
(0.997805 0.00881657 0)
(0.997829 0.00896691 0)
(0.998891 0.00907499 0)
(1.0004 0.00915238 0)
(1.00201 0.00919547 0)
(1.00341 0.0092078 0)
(1.00456 0.00917986 0)
(1.00536 0.00910898 0)
(1.00594 0.00899716 0)
(1.00628 0.00883856 0)
(1.00657 0.00865458 0)
(1.00679 0.0084246 0)
(1.00709 0.00817526 0)
(1.00733 0.00791521 0)
(1.00767 0.00765534 0)
(1.00796 0.00741256 0)
(1.00836 0.0071579 0)
(1.00865 0.00692487 0)
(1.009 0.00671015 0)
(1.00927 0.00648229 0)
(1.00958 0.00626929 0)
(1.00975 0.00607208 0)
(1.01002 0.00587474 0)
(1.01014 0.00570035 0)
(1.01036 0.00554484 0)
(1.01045 0.00539758 0)
(1.01068 0.00526583 0)
(1.01076 0.00513349 0)
(1.01098 0.0049963 0)
(1.01102 0.00488498 0)
(1.01123 0.00480369 0)
(1.01126 0.00474054 0)
(1.01146 0.00470233 0)
(1.0025 0.00788758 0)
(0.999421 0.00807913 0)
(0.997963 0.00823735 0)
(0.997928 0.0083702 0)
(0.998941 0.00847265 0)
(1.00041 0.00855077 0)
(1.00198 0.00860382 0)
(1.00334 0.00863013 0)
(1.00446 0.00862683 0)
(1.00522 0.00858394 0)
(1.00576 0.00850798 0)
(1.00607 0.00838878 0)
(1.00634 0.0082463 0)
(1.00654 0.00806807 0)
(1.00683 0.00786165 0)
(1.00708 0.00764326 0)
(1.00743 0.00741484 0)
(1.00773 0.00720358 0)
(1.00814 0.00697366 0)
(1.00845 0.00675621 0)
(1.00881 0.00656209 0)
(1.00908 0.0063545 0)
(1.00941 0.00615338 0)
(1.00958 0.00597166 0)
(1.00986 0.00578713 0)
(1.00999 0.0056252 0)
(1.01023 0.0054778 0)
(1.01032 0.00534038 0)
(1.01056 0.00521183 0)
(1.01063 0.0050865 0)
(1.01087 0.00495606 0)
(1.01091 0.00485468 0)
(1.01114 0.00477466 0)
(1.01116 0.00471696 0)
(1.01139 0.00467818 0)
(1.00275 0.00734319 0)
(0.999612 0.00750476 0)
(0.998102 0.00764301 0)
(0.998019 0.0077609 0)
(0.998991 0.00785865 0)
(1.00042 0.00793524 0)
(1.00196 0.00799372 0)
(1.00328 0.00802791 0)
(1.00436 0.00804098 0)
(1.00508 0.00802098 0)
(1.0056 0.00797554 0)
(1.00588 0.00789606 0)
(1.00613 0.00779356 0)
(1.00631 0.0076629 0)
(1.00659 0.00749904 0)
(1.00683 0.00732094 0)
(1.00719 0.00712528 0)
(1.00749 0.0069402 0)
(1.00791 0.00674046 0)
(1.00823 0.00654219 0)
(1.00861 0.00636919 0)
(1.00888 0.00618249 0)
(1.00923 0.00599869 0)
(1.00941 0.00583566 0)
(1.0097 0.00566836 0)
(1.00983 0.00551582 0)
(1.01009 0.00537744 0)
(1.01018 0.00524585 0)
(1.01043 0.00512725 0)
(1.0105 0.00501141 0)
(1.01075 0.00489188 0)
(1.0108 0.00479426 0)
(1.01104 0.00472125 0)
(1.01106 0.00466583 0)
(1.01131 0.00463376 0)
(1.00296 0.00682091 0)
(0.999767 0.00695666 0)
(0.998213 0.00707837 0)
(0.998089 0.00718112 0)
(0.999028 0.00727304 0)
(1.00042 0.00734507 0)
(1.00194 0.00740729 0)
(1.00323 0.00744794 0)
(1.00428 0.0074768 0)
(1.00496 0.00747932 0)
(1.00546 0.00746304 0)
(1.00571 0.00741832 0)
(1.00594 0.00734797 0)
(1.00608 0.00725436 0)
(1.00635 0.0071296 0)
(1.00658 0.00698967 0)
(1.00695 0.00683085 0)
(1.00725 0.00666976 0)
(1.00768 0.00650698 0)
(1.00801 0.00632935 0)
(1.0084 0.00617666 0)
(1.00867 0.00601284 0)
(1.00904 0.00584917 0)
(1.00922 0.00569803 0)
(1.00953 0.00554811 0)
(1.00966 0.00540376 0)
(1.00993 0.00527999 0)
(1.01002 0.00515596 0)
(1.01029 0.0050485 0)
(1.01036 0.00493452 0)
(1.01062 0.00482728 0)
(1.01066 0.00473305 0)
(1.01093 0.00467035 0)
(1.01095 0.00461282 0)
(1.01121 0.00458933 0)
(1.00312 0.00628396 0)
(0.999884 0.0064015 0)
(0.998294 0.00650928 0)
(0.998136 0.00660159 0)
(0.999046 0.00668682 0)
(1.00041 0.00675821 0)
(1.0019 0.00682279 0)
(1.00317 0.00687492 0)
(1.0042 0.00691594 0)
(1.00486 0.00694284 0)
(1.00532 0.00694666 0)
(1.00554 0.00693334 0)
(1.00575 0.00688738 0)
(1.00587 0.00683048 0)
(1.00612 0.00674092 0)
(1.00633 0.00664237 0)
(1.0067 0.00652211 0)
(1.007 0.0063923 0)
(1.00743 0.00626281 0)
(1.00777 0.00611305 0)
(1.00818 0.0059736 0)
(1.00844 0.00583991 0)
(1.00883 0.00569093 0)
(1.00901 0.00555923 0)
(1.00933 0.00542325 0)
(1.00947 0.00529745 0)
(1.00975 0.00517798 0)
(1.00984 0.00506658 0)
(1.01012 0.00495979 0)
(1.01019 0.00486068 0)
(1.01047 0.00475353 0)
(1.01051 0.00467177 0)
(1.01079 0.00460361 0)
(1.01081 0.00455759 0)
(1.0111 0.004522 0)
(1.00324 0.00570322 0)
(0.999969 0.00580826 0)
(0.998348 0.00590439 0)
(0.998158 0.00598908 0)
(0.999049 0.00606743 0)
(1.00039 0.00613909 0)
(1.00187 0.00620424 0)
(1.00311 0.00626563 0)
(1.00412 0.00631508 0)
(1.00475 0.00636079 0)
(1.0052 0.00638394 0)
(1.00538 0.00640076 0)
(1.00557 0.00638797 0)
(1.00567 0.00636831 0)
(1.00591 0.00631929 0)
(1.0061 0.006258 0)
(1.00646 0.00617799 0)
(1.00675 0.00608325 0)
(1.00719 0.00598823 0)
(1.00751 0.00587631 0)
(1.00794 0.00576228 0)
(1.0082 0.00566007 0)
(1.0086 0.00553675 0)
(1.00879 0.00542992 0)
(1.00912 0.00531647 0)
(1.00925 0.00521201 0)
(1.00955 0.00510769 0)
(1.00964 0.0050145 0)
(1.00994 0.00492064 0)
(1.01 0.00483651 0)
(1.0103 0.00473855 0)
(1.01033 0.00466931 0)
(1.01064 0.00460725 0)
(1.01065 0.00456984 0)
(1.01096 0.00453455 0)
(1.00345 0.00435975 0)
(1.00009 0.00440135 0)
(0.998395 0.00444606 0)
(0.998142 0.00449043 0)
(0.998995 0.0045406 0)
(1.00029 0.00459305 0)
(1.00175 0.00464976 0)
(1.00295 0.00470741 0)
(1.00394 0.00476432 0)
(1.00452 0.00481857 0)
(1.00492 0.0048655 0)
(1.00505 0.0049044 0)
(1.00519 0.00493143 0)
(1.00523 0.00494512 0)
(1.00542 0.00494775 0)
(1.00556 0.00493202 0)
(1.0059 0.00491163 0)
(1.00616 0.00487335 0)
(1.0066 0.00483857 0)
(1.00691 0.00478772 0)
(1.00737 0.00473654 0)
(1.00763 0.00468048 0)
(1.00804 0.00461892 0)
(1.00823 0.00455298 0)
(1.00858 0.00449128 0)
(1.00871 0.00442427 0)
(1.00904 0.00436955 0)
(1.00912 0.00430892 0)
(1.00944 0.00425931 0)
(1.0095 0.00419843 0)
(1.00983 0.00414322 0)
(1.00987 0.00409357 0)
(1.01021 0.00406823 0)
(1.01022 0.00404021 0)
(1.01057 0.00403501 0)
(1.00223 0.00310906 0)
(0.998968 0.00317676 0)
(0.997385 0.00325315 0)
(0.997243 0.00333616 0)
(0.998193 0.00342281 0)
(0.999571 0.00351163 0)
(1.00108 0.00359954 0)
(1.0023 0.00368699 0)
(1.00329 0.00377086 0)
(1.00385 0.00385368 0)
(1.00421 0.00393228 0)
(1.00429 0.00400984 0)
(1.00438 0.00408346 0)
(1.00436 0.00415577 0)
(1.0045 0.00422511 0)
(1.0046 0.00429152 0)
(1.0049 0.00435345 0)
(1.00514 0.00440718 0)
(1.00556 0.00445274 0)
(1.00585 0.00448715 0)
(1.00628 0.00450909 0)
(1.00654 0.00451832 0)
(1.00694 0.00451391 0)
(1.00713 0.0045024 0)
(1.00748 0.00447979 0)
(1.00761 0.00445796 0)
(1.00793 0.00443463 0)
(1.00803 0.00440918 0)
(1.00835 0.00438523 0)
(1.00842 0.00435444 0)
(1.00876 0.00431372 0)
(1.00881 0.00428529 0)
(1.00916 0.00426535 0)
(1.0092 0.00424773 0)
(1.00956 0.00423473 0)
(1.00265 -0.00302275 0)
(0.999394 -0.00270177 0)
(0.997777 -0.00211711 0)
(0.997529 -0.00141026 0)
(0.998361 -0.000709209 0)
(0.999591 -0.00010065 0)
(1.00098 0.000375057 0)
(1.00208 0.000717159 0)
(1.00299 0.000946742 0)
(1.00347 0.00110126 0)
(1.0038 0.0012186 0)
(1.00384 0.00133478 0)
(1.00393 0.0014706 0)
(1.00387 0.00163754 0)
(1.00401 0.00183373 0)
(1.00405 0.00205053 0)
(1.00431 0.00227717 0)
(1.00446 0.00249724 0)
(1.00483 0.00270207 0)
(1.00502 0.00287857 0)
(1.00541 0.00302573 0)
(1.00557 0.00314133 0)
(1.00595 0.00322707 0)
(1.00607 0.00329138 0)
(1.00642 0.00333776 0)
(1.00649 0.00337695 0)
(1.00685 0.00341251 0)
(1.00689 0.00344272 0)
(1.00726 0.00347316 0)
(1.00728 0.00349212 0)
(1.00767 0.00349985 0)
(1.00768 0.00351161 0)
(1.00809 0.00352581 0)
(1.00808 0.00353156 0)
(1.00852 0.00353396 0)
(1.00025 -0.00355068 0)
(1.00364 -0.00325253 0)
(1.0055 -0.00269081 0)
(1.00586 -0.002007 0)
(1.00526 -0.00132732 0)
(1.00412 -0.000738604 0)
(1.00299 -0.000279288 0)
(1.00198 4.90849e-05 0)
(1.00136 0.00026904 0)
(1.001 0.000416439 0)
(1.001 0.000529894 0)
(1.00111 0.000643614 0)
(1.00142 0.000778942 0)
(1.00164 0.000946381 0)
(1.00194 0.00114488 0)
(1.00207 0.00136532 0)
(1.00227 0.00159814 0)
(1.0023 0.0018266 0)
(1.00244 0.00204395 0)
(1.00242 0.0022352 0)
(1.00257 0.00240177 0)
(1.00258 0.00253873 0)
(1.00277 0.00265014 0)
(1.00281 0.00274092 0)
(1.00306 0.002816 0)
(1.00312 0.00288349 0)
(1.0034 0.00294811 0)
(1.00346 0.00300522 0)
(1.00376 0.00306298 0)
(1.00381 0.00310602 0)
(1.00413 0.00313772 0)
(1.00417 0.003169 0)
(1.0045 0.0032011 0)
(1.00452 0.00321905 0)
(1.00488 0.00323074 0)
(1.0005 0.00111236 0)
(1.00391 0.00113867 0)
(1.00576 0.0011723 0)
(1.00603 0.00121161 0)
(1.00535 0.0012555 0)
(1.0041 0.00130289 0)
(1.00289 0.00135305 0)
(1.00181 0.00140621 0)
(1.00116 0.00146131 0)
(1.00076 0.00152025 0)
(1.00077 0.00158124 0)
(1.00087 0.00164751 0)
(1.00118 0.00171646 0)
(1.00139 0.00179209 0)
(1.00168 0.00187157 0)
(1.00178 0.00195745 0)
(1.00194 0.00204654 0)
(1.00191 0.00213771 0)
(1.00199 0.00222978 0)
(1.0019 0.0023188 0)
(1.00199 0.00240412 0)
(1.00192 0.00248178 0)
(1.00207 0.00255078 0)
(1.00205 0.00261542 0)
(1.00227 0.00266937 0)
(1.00228 0.00272375 0)
(1.00255 0.00277426 0)
(1.00257 0.00282041 0)
(1.00287 0.00286384 0)
(1.00288 0.00289596 0)
(1.0032 0.00291402 0)
(1.0032 0.00293654 0)
(1.00353 0.00295677 0)
(1.00352 0.0029688 0)
(1.00389 0.00297236 0)
(0.998704 0.000769042 0)
(1.00226 0.000757092 0)
(1.00425 0.000751659 0)
(1.00469 0.000751919 0)
(1.00415 0.000760748 0)
(1.00304 0.000775999 0)
(1.00192 0.000798907 0)
(1.00093 0.000826841 0)
(1.00031 0.000860222 0)
(0.999957 0.000896977 0)
(0.999966 0.000937205 0)
(1.00009 0.000980058 0)
(1.00039 0.00102616 0)
(1.00063 0.00107543 0)
(1.00092 0.00112943 0)
(1.00105 0.00118717 0)
(1.00122 0.00125166 0)
(1.00121 0.0013189 0)
(1.00129 0.00139325 0)
(1.00121 0.00146699 0)
(1.00127 0.00154493 0)
(1.0012 0.00161908 0)
(1.00131 0.00169258 0)
(1.00128 0.00176226 0)
(1.00146 0.00182902 0)
(1.00146 0.00189391 0)
(1.00168 0.0019595 0)
(1.0017 0.0020179 0)
(1.00195 0.00207765 0)
(1.00197 0.00212299 0)
(1.00224 0.00216046 0)
(1.00225 0.00219587 0)
(1.00254 0.00223278 0)
(1.00254 0.00225509 0)
(1.00285 0.0022717 0)
(0.998583 0.00103643 0)
(1.00216 0.00105346 0)
(1.00415 0.00107208 0)
(1.00461 0.00109167 0)
(1.00407 0.00111299 0)
(1.00298 0.00113561 0)
(1.00186 0.00115983 0)
(1.00088 0.00118574 0)
(1.00025 0.00121294 0)
(0.999908 0.0012424 0)
(0.999907 0.00127291 0)
(1.00004 0.0013064 0)