/*--------------------------------*- C++ -*----------------------------------*\
| =========                 |                                                 |
| \\      /  F ield         | OpenFOAM: The Open Source CFD Toolbox           |
|  \\    /   O peration     | Version:  1.4.1-dev                             |
|   \\  /    A nd           | Web:      http://www.openfoam.org               |
|    \\/     M anipulation  |                                                 |
\*---------------------------------------------------------------------------*/

FoamFile
{
    version 2.0;
    format ascii;

    root "/home/mjaworsk/OpenFOAM/mjaworsk-1.4.1-dev/run/FlatPlate-Blasius";
    case "icoHeatFoam-flatPlate2";
    instance "1";
    local "";

    class volScalarField;
    object p;
}

// * * * * * * * * * * * * * * * * * * * * * * * * * * * * * * * * * * * * * //

dimensions      [0 2 -2 0 0 0 0];

internalField   nonuniform List<scalar> 
2475
(
0.00437249
0.00182838
0.00020111
-0.000208331
-0.000168415
-9.33861e-05
-5.44695e-05
-3.4936e-05
-2.18741e-05
-1.16316e-05
-3.46132e-06
3.06292e-06
8.17407e-06
1.2114e-05
1.49979e-05
1.69601e-05
1.80962e-05
1.84798e-05
1.8241e-05
1.73857e-05
1.6097e-05
1.42894e-05
1.22204e-05
9.71371e-06
7.12037e-06
4.21307e-06
1.37843e-06
-1.53565e-06
-4.34573e-06
-6.61585e-06
-9.13174e-06
-9.39978e-06
-1.16885e-05
-6.80047e-06
-1.05299e-05
0.00381487
0.00182507
0.000298163
-0.000147439
-0.000132602
-7.15453e-05
-4.08923e-05
-2.55424e-05
-1.46893e-05
-5.8944e-06
1.20947e-06
6.9287e-06
1.14162e-05
1.48647e-05
1.73506e-05
1.89903e-05
1.98566e-05
2.0019e-05
1.95891e-05
1.85772e-05
1.71483e-05
1.52276e-05
1.30522e-05
1.04631e-05
7.78631e-06
4.81939e-06
1.91669e-06
-1.03879e-06
-3.90703e-06
-6.20262e-06
-8.77146e-06
-9.04902e-06
-1.13895e-05
-6.49463e-06
-1.02642e-05
0.00330924
0.00184009
0.000444999
-6.44427e-05
-9.0466e-05
-4.37556e-05
-2.21784e-05
-1.31612e-05
-5.91113e-06
8.03822e-07
6.51509e-06
1.12273e-05
1.49617e-05
1.78353e-05
1.98666e-05
2.11444e-05
2.17126e-05
2.16327e-05
2.09965e-05
1.98159e-05
1.8238e-05
1.61967e-05
1.39098e-05
1.12332e-05
8.46967e-06
5.43961e-06
2.46681e-06
-5.32657e-07
-3.4606e-06
-5.78358e-06
-8.40685e-06
-8.69526e-06
-1.10894e-05
-6.19051e-06
-1.00076e-05
0.00292041
0.00185398
0.000617574
4.60798e-05
-3.57727e-05
-7.33492e-06
4.12629e-06
4.47148e-06
6.09585e-06
9.61352e-06
1.32994e-05
1.65783e-05
1.92618e-05
2.1355e-05
2.27895e-05
2.36039e-05
2.38011e-05
2.34249e-05
2.2543e-05
2.11632e-05
1.94143e-05
1.72343e-05
1.48228e-05
1.20474e-05
9.18936e-06
6.08854e-06
3.04087e-06
-8.08629e-09
-2.99874e-06
-5.35364e-06
-8.03304e-06
-8.33704e-06
-1.07843e-05
-5.89302e-06
-9.75558e-06
0.00260633
0.00183426
0.0007773
0.00017188
2.96697e-05
3.65507e-05
3.87766e-05
2.94382e-05
2.32984e-05
2.20441e-05
2.27752e-05
2.39938e-05
2.51518e-05
2.61029e-05
2.66681e-05
2.68115e-05
2.64803e-05
2.56854e-05
2.44649e-05
2.28125e-05
2.08367e-05
1.84724e-05
1.59019e-05
1.29985e-05
1.00239e-05
6.83275e-06
3.69572e-06
5.83568e-07
-2.47976e-06
-4.87696e-06
-7.6193e-06
-7.94851e-06
-1.0451e-05
-5.58824e-06
-9.48607e-06
0.00234259
0.00177551
0.000904084
0.000299965
0.000101095
8.26938e-05
7.76313e-05
6.03642e-05
4.5806e-05
3.8548e-05
3.54476e-05
3.39999e-05
3.3144e-05
3.25502e-05
3.19223e-05
3.11343e-05
3.00659e-05
2.86821e-05
2.69873e-05
2.49505e-05
2.26603e-05
2.00385e-05
1.72528e-05
1.41725e-05
1.10449e-05
7.73038e-06
4.47967e-06
1.28123e-06
-1.87142e-06
-4.32818e-06
-7.14494e-06
-7.51515e-06
-1.00763e-05
-5.2756e-06
-9.18525e-06
0.00212125
0.00169175
0.000993903
0.000422963
0.000177541
0.000129149
0.000116754
9.42902e-05
7.21961e-05
5.84304e-05
5.09373e-05
4.64598e-05
4.32795e-05
4.08393e-05
3.87394e-05
3.67783e-05
3.47654e-05
3.26151e-05
3.02962e-05
2.77465e-05
2.50355e-05
2.20641e-05
1.89887e-05
1.56662e-05
1.23342e-05
8.84962e-06
5.44972e-06
2.13132e-06
-1.13562e-06
-3.67755e-06
-6.58617e-06
-7.0213e-06
-9.64591e-06
-4.95774e-06
-8.83577e-06
0.00193588
0.00159866
0.00104927
0.00053465
0.000258444
0.00017684
0.000154529
0.000128877
0.000100989
8.08055e-05
6.85357e-05
6.08072e-05
5.51763e-05
5.07545e-05
4.70208e-05
4.3726e-05
4.06138e-05
3.75565e-05
3.44833e-05
3.13046e-05
2.80688e-05
2.46555e-05
2.12102e-05
1.75738e-05
1.39764e-05
1.02669e-05
6.67193e-06
3.19164e-06
-2.24111e-07
-2.8845e-06
-5.91033e-06
-6.44331e-06
-9.13878e-06
-4.63316e-06
-8.41153e-06
0.00177921
0.00150632
0.0010754
0.000629209
0.000340999
0.000227096
0.000190972
0.000162623
0.000130969
0.000105055
8.77707e-05
7.65452e-05
6.83756e-05
6.19277e-05
5.64883e-05
5.17775e-05
4.7474e-05
4.34255e-05
3.95093e-05
3.56219e-05
3.17793e-05
2.78525e-05
2.39651e-05
1.99532e-05
1.60293e-05
1.20433e-05
8.20179e-06
4.51736e-06
9.10085e-07
-1.90471e-06
-5.08156e-06
-5.7518e-06
-8.52917e-06
-4.29451e-06
-7.88263e-06
0.00164472
0.00141957
0.00107922
0.000703098
0.000420678
0.000280349
0.000227087
0.000194834
0.000161075
0.000130668
0.000108437
9.34432e-05
8.25897e-05
7.40733e-05
6.68891e-05
6.07118e-05
5.5156e-05
5.00645e-05
4.52483e-05
4.06062e-05
3.61011e-05
3.16172e-05
2.72328e-05
2.28049e-05
1.85012e-05
1.42021e-05
1.00635e-05
6.14227e-06
2.29652e-06
-7.03361e-07
-4.07151e-06
-4.91934e-06
-7.79325e-06
-3.92937e-06
-7.22673e-06
0.0015275
0.00134
0.00106786
0.000756042
0.000492905
0.000335671
0.000264163
0.000225654
0.000190478
0.00015706
0.000130392
0.000111461
9.77184e-05
8.70478e-05
7.80809e-05
7.03919e-05
6.35287e-05
5.73449e-05
5.15802e-05
4.61481e-05
4.09388e-05
3.58707e-05
3.09486e-05
2.60821e-05
2.13565e-05
1.67244e-05
1.22442e-05
8.06809e-06
3.93807e-06
7.33035e-07
-2.86832e-06
-3.92984e-06
-6.91656e-06
-3.52326e-06
-6.44318e-06
0.00142413
0.00126747
0.0010472
0.000790412
0.000554365
0.000390826
0.000302939
0.000255841
0.000218757
0.000183571
0.000153384
0.000130603
0.000113775
0.000100812
9.00082e-05
8.07614e-05
7.2539e-05
6.52058e-05
5.84417e-05
5.21778e-05
4.62244e-05
4.05445e-05
3.50496e-05
2.97263e-05
2.45444e-05
1.95675e-05
1.47092e-05
1.02692e-05
5.81583e-06
2.39342e-06
-1.4775e-06
-2.78472e-06
-5.89837e-06
-3.06421e-06
-5.56091e-06
0.0013322
0.00120123
0.00102129
0.000809868
0.000603512
0.000442978
0.000343144
0.000286273
0.000245976
0.000209626
0.000176998
0.000150791
0.000130804
0.000115387
0.000102663
9.1808e-05
8.2181e-05
7.36383e-05
6.58208e-05
5.8673e-05
5.19332e-05
4.56046e-05
3.9503e-05
3.36977e-05
2.80294e-05
2.26914e-05
1.74263e-05
1.27107e-05
7.90526e-06
4.25083e-06
8.62682e-08
-1.5011e-06
-4.74975e-06
-2.54655e-06
-4.63149e-06
0.00124993
0.00114054
0.000992692
0.000818151
0.000640546
0.000489625
0.00038352
0.00031743
0.000272565
0.000234902
0.000200739
0.000171808
0.000148805
0.000130813
0.000116063
0.000103537
9.24643e-05
8.2657e-05
7.3733e-05
6.56435e-05
5.80715e-05
5.10488e-05
4.43052e-05
3.79829e-05
3.18004e-05
2.60744e-05
2.03799e-05
1.53658e-05
1.01908e-05
6.27727e-06
1.80987e-06
-1.01939e-07
-3.48695e-06
-1.9705e-06
-3.71008e-06
0.00117596
0.00108489
0.000963017
0.000818438
0.00066682
0.00052917
0.000422279
0.000349133
0.000299005
0.000259399
0.000224184
0.000193308
0.000167673
0.00014711
0.000130234
0.00011596
0.000103398
9.22793e-05
8.22e-05
7.31121e-05
6.46599e-05
5.68931e-05
4.94701e-05
4.25889e-05
3.58643e-05
2.97134e-05
2.35713e-05
1.82226e-05
1.26694e-05
8.45471e-06
3.68698e-06
1.39501e-06
-2.1253e-06
-1.3377e-06
-2.83793e-06
0.00110926
0.00103392
0.00093336
0.000813208
0.00068418
0.000561067
0.000457712
0.000380578
0.00032551
0.000283324
0.00024709
0.000214912
0.00018719
0.000164231
0.000145185
0.000129087
0.000114984
0.000102515
9.12381e-05
8.11015e-05
7.17211e-05
6.31595e-05
5.50177e-05
4.7532e-05
4.02369e-05
3.36179e-05
2.70113e-05
2.12828e-05
1.53469e-05
1.07778e-05
5.71674e-06
2.98294e-06
-6.77411e-07
-6.46669e-07
-2.03706e-06
0.00104912
0.000987528
0.0009046
0.000804381
0.000694513
0.000585623
0.00048858
0.000410612
0.000351873
0.000306889
0.000269414
0.000236308
0.000207061
0.00018204
0.000160886
0.000142917
0.000127218
0.000113362
0.000100853
8.96261e-05
7.9274e-05
6.98681e-05
6.09685e-05
5.28303e-05
4.49364e-05
3.7802e-05
3.07145e-05
2.45553e-05
1.82326e-05
1.32513e-05
7.90007e-06
4.66546e-06
8.45902e-07
1.07899e-07
-1.31414e-06
0.000995143
0.000945819
0.000877567
0.000793523
0.00069955
0.000603639
0.000514258
0.000438099
0.000377508
0.000330116
0.000291223
0.000257312
0.00022699
0.000200326
0.000177248
0.000157422
0.000140088
0.000124809
0.00011104
9.86891e-05
8.73299e-05
7.70335e-05
6.73393e-05
5.85002e-05
4.99795e-05
4.22807e-05
3.4695e-05
2.80529e-05
2.13352e-05
1.58856e-05
1.0237e-05
6.4528e-06
2.43518e-06
9.32685e-07
-6.65885e-07
0.000947202
0.000909139
0.000853127
0.000782005
0.000700843
0.000616153
0.000534688
0.000462169
0.000401638
0.000352761
0.000312555
0.000277855
0.000246745
0.000218839
0.000194116
0.000172532
0.000153562
0.000136832
0.000121782
0.000108281
9.58901e-05
8.46627e-05
7.41418e-05
6.45541e-05
5.53796e-05
4.70676e-05
3.89645e-05
3.17893e-05
2.46609e-05
1.86941e-05
1.27259e-05
8.35742e-06
4.08315e-06
1.83248e-06
-8.27078e-08
0.000905282
0.00087794
0.000832145
0.000771054
0.000699791
0.000624291
0.000550235
0.000482348
0.00042352
0.000374379
0.000333321
0.000297917
0.000266181
0.000237354
0.000211297
0.000188132
0.000167581
0.000149396
0.000133052
0.000118383
0.000104945
9.27541e-05
8.13804e-05
7.10003e-05
6.11453e-05
5.2175e-05
4.35305e-05
3.57782e-05
2.8213e-05
2.16896e-05
1.5364e-05
1.03902e-05
5.7861e-06
2.80835e-06
4.4857e-07
0.000869166
0.000852457
0.00081526
0.000761657
0.000697591
0.000629157
0.000561517
0.000498555
0.000442601
0.000394443
0.000353278
0.000317443
0.000285218
0.000255697
0.000228593
0.00020407
0.000182054
0.000162446
0.000144814
0.000128967
0.000114474
0.000101299
8.90521e-05
7.78436e-05
6.72802e-05
5.76136e-05
4.83978e-05
4.00318e-05
3.19937e-05
2.4883e-05
1.81484e-05
1.2558e-05
7.54428e-06
3.85776e-06
9.42749e-07
0.000838142
0.000832332
0.000802573
0.000754358
0.000695109
0.000631691
0.000569223
0.000510969
0.00045856
0.000412441
0.00037205
0.000336259
0.00030376
0.000273727
0.000245817
0.00022017
0.000196851
0.000175896
0.000157006
0.000139988
0.000124444
0.000110275
9.71422e-05
8.50817e-05
7.37819e-05
6.33895e-05
5.35682e-05
4.45592e-05
3.60036e-05
2.8282e-05
2.10777e-05
1.48627e-05
9.36112e-06
4.97525e-06
1.41487e-06
0.000811183
0.000816605
0.000793563
0.000749198
0.00069285
0.00063264
0.000574043
0.000519951
0.000471316
0.000427986
0.000389215
0.000354081
0.000321649
0.00029131
0.000262799
0.000236247
0.000211811
0.000189629
0.000169543
0.000151382
0.000134801
0.000119644
0.000105621
9.26995e-05
8.06397e-05
6.95004e-05
5.90384e-05
4.93632e-05
4.02411e-05
3.18886e-05
2.41515e-05
1.73006e-05
1.12411e-05
6.1535e-06
1.87705e-06
0.000787299
0.000804034
0.00078728
0.000745801
0.00069101
0.000632582
0.000576657
0.000526011
0.000481032
0.000440898
0.00040442
0.000370589
0.000338671
0.000308302
0.000279393
0.000252139
0.000226773
0.000203508
0.000182314
0.000163066
0.000145476
0.000129354
0.000114446
0.000100669
8.78358e-05
7.5937e-05
6.48006e-05
5.44404e-05
4.47028e-05
3.56982e-05
2.73698e-05
1.98656e-05
1.3188e-05
7.38567e-06
2.33731e-06
0.00076554
0.000793304
0.00078256
0.000743485
0.000689479
0.000631851
0.000577618
0.000529669
0.000488002
0.000451166
0.000417424
0.000385463
0.000354558
0.000324513
0.000295452
0.000267696
0.000241582
0.000217389
0.000195198
0.000174939
0.000156386
0.000139336
0.000123563
0.000108948
9.53419e-05
8.26829e-05
7.08425e-05
5.97794e-05
4.93818e-05
3.97001e-05
3.07299e-05
2.25513e-05
1.52046e-05
8.66674e-06
2.80407e-06
0.000744982
0.000783233
0.000778286
0.000741457
0.000687903
0.000630504
0.000577244
0.000531315
0.000492505
0.000458851
0.000428061
0.000398405
0.000368998
0.000339691
0.000310781
0.000282751
0.000256075
0.000231116
0.000208051
0.000186874
0.000167424
0.0001495
0.0001329
0.000117481
0.000103114
8.9708e-05
7.71452e-05
6.53593e-05
5.42626e-05
4.38759e-05
3.42197e-05
2.53457e-05
1.72895e-05
9.98942e-06
3.28381e-06
0.00072513
0.000773199
0.000773812
0.000739177
0.000685967
0.000628492
0.000575706
0.00053122
0.000494782
0.000464054
0.000436245
0.000409173
0.00038168
0.00035354
0.000325137
0.000297107
0.000270075
0.000244519
0.000220712
0.000198723
0.000178455
0.000159728
0.000142358
0.00012619
0.000111096
9.69669e-05
8.36821e-05
7.11555e-05
5.93241e-05
4.82032e-05
3.78237e-05
2.82317e-05
1.94391e-05
1.13458e-05
3.76859e-06
0.000706187
0.00076335
0.000769188
0.000736636
0.000683678
0.000625905
0.000573199
0.000529648
0.000495085
0.000466932
0.000441985
0.000417623
0.000392352
0.000365771
0.000338254
0.000310536
0.00028339
0.000257422
0.000233018
0.000210328
0.000189332
0.000169885
0.000151821
0.000134975
0.000119211
0.000104398
9.04087e-05
7.7136e-05
6.45401e-05
5.26552e-05
4.15249e-05
3.11928e-05
2.16475e-05
1.27354e-05
4.24483e-06
0.000688494
0.000754183
0.000764925
0.000734283
0.000681408
0.000623073
0.000570052
0.000526941
0.00049374
0.000467742
0.000445416
0.000423744
0.000400873
0.000376161
0.000349882
0.000322802
0.000295806
0.000269631
0.000244786
0.000221523
0.0001999
0.000179828
0.000161162
0.00014373
0.000127376
0.000111936
9.72711e-05
8.32622e-05
6.98842e-05
5.72076e-05
4.53063e-05
3.42192e-05
2.39075e-05
1.41663e-05
4.74072e-06
0.000671116
0.00074545
0.000761146
0.00073236
0.000679401
0.000620229
0.000566514
0.000523384
0.000491049
0.000466757
0.000446732
0.000427604
0.000407174
0.000384521
0.000359758
0.000333612
0.000307027
0.000280862
0.000255749
0.000232056
0.000209932
0.000189349
0.000170191
0.000152281
0.000135436
0.000119452
0.000104163
8.94484e-05
7.52969e-05
6.18198e-05
4.91364e-05
3.72927e-05
2.62048e-05
1.56346e-05
5.30426e-06
0.000626759
0.000722876
0.000751152
0.000727182
0.000674146
0.000612863
0.000557123
0.000513331
0.000482297
0.000461251
0.00044594
0.000432291
0.000417361
0.000399601
0.000378685
0.000355149
0.000329983
0.000304261
0.000278904
0.000254556
0.00023159
0.000210125
0.000190111
0.000171348
0.000153585
0.000136524
0.000119927
0.000103672
8.77976e-05
7.25086e-05
5.8031e-05
4.44464e-05
3.15597e-05
1.90482e-05
6.5664e-06
0.000577466
0.000682467
0.000716537
0.000695627
0.000643854
0.000583108
0.000528076
0.000485757
0.00045728
0.000439911
0.000429184
0.000420655
0.000410948
0.000398109
0.000381496
0.000361459
0.000338957
0.000315171
0.00029123
0.000267993
0.000245982
0.000225353
0.000205998
0.000187611
0.000169856
0.000152402
0.000135016
0.000117628
0.000100372
8.35569e-05
6.74651e-05
5.21652e-05
3.73732e-05
2.26567e-05
7.67907e-06
0.000526275
0.000631675
0.000666519
0.000646853
0.000596813
0.000538262
0.000485827
0.00044644
0.000421137
0.00040707
0.000399677
0.000394442
0.000387954
0.000378223
0.000364565
0.000347306
0.000327439
0.000306207
0.000284807
0.000264125
0.000244636
0.000226364
0.000209039
0.000192209
0.000175445
0.00015846
0.000141177
0.000123726
0.000106351
8.93062e-05
7.27716e-05
5.67289e-05
4.08903e-05
2.48341e-05
8.36598e-06
0.000475799
0.000574448
0.00060585
0.000585776
0.000537625
0.000482484
0.000434339
0.000399536
0.000378577
0.000368202
0.000363635
0.00036036
0.000355215
0.000346649
0.000334445
0.000319261
0.000302197
0.000284376
0.000266677
0.00024959
0.000233293
0.000217698
0.000202549
0.000187492
0.000172164
0.000156306
0.00013993
0.000123325
0.000106803
9.05125e-05
7.44542e-05
5.84976e-05
4.23988e-05
2.58846e-05
8.83451e-06
0.000369855
0.000430249
0.000446633
0.000430966
0.000399533
0.000366087
0.000338915
0.000320985
0.000311383
0.000307075
0.000304632
0.000301364
0.00029578
0.00028753
0.000277142
0.000265532
0.000253553
0.000241686
0.000230029
0.000218417
0.00020664
0.000194574
0.000182192
0.000169495
0.000156454
0.000142964
0.000129008
0.000114735
0.000100312
8.57846e-05
7.11017e-05
5.61075e-05
4.06822e-05
2.4764e-05
8.34437e-06
0.000222301
0.000129225
9.49456e-05
0.000105036
0.000138484
0.000176671
0.000207599
0.000226101
0.000232181
0.000228974
0.000220687
0.000211044
0.00020251
0.000196146
0.000191894
0.000188981
0.000186379
0.000183159
0.000178735
0.000172909
0.00016582
0.000157768
0.000149076
0.000139949
0.000130438
0.000120529
0.000110187
9.93159e-05
8.78778e-05
7.59076e-05
6.33944e-05
5.02674e-05
3.65527e-05
2.23068e-05
7.53715e-06
0.000157877
5.60703e-05
1.87895e-05
3.05787e-05
6.87314e-05
0.000112905
0.00014968
0.000172918
0.000182109
0.000180389
0.000172408
0.000162576
0.00015405
0.000148411
0.000145835
0.00014548
0.000146027
0.000146162
0.000144948
0.000141984
0.000137376
0.000131528
0.000124916
0.00011788
0.000110586
0.000103023
9.50303e-05
8.63893e-05
7.7007e-05
6.68825e-05
5.60534e-05
4.45817e-05
3.25463e-05
1.9955e-05
6.76363e-06
0.000162922
5.79883e-05
1.7103e-05
2.51822e-05
5.9881e-05
0.0001011
0.000135518
0.000156979
0.000164872
0.000162171
0.000153352
0.000142685
0.000133281
0.000126762
0.000123411
0.000122505
0.000122822
0.000123085
0.000122328
0.000120047
0.000116237
0.000111249
0.000105586
9.96681e-05
9.3695e-05
8.75972e-05
8.11491e-05
7.41017e-05
6.62998e-05
5.77184e-05
4.84666e-05
3.86641e-05
2.83457e-05
1.74597e-05
5.94383e-06
0.000148204
4.43674e-05
3.57815e-06
1.09039e-05
4.43176e-05
8.4053e-05
0.000117047
0.000137306
0.000144305
0.000141032
0.000131917
0.000121157
0.00011178
0.000105344
0.000102089
0.00010129
0.000101742
0.000102203
0.000101739
9.98889e-05
9.66815e-05
9.24807e-05
8.77734e-05
8.29346e-05
7.81086e-05
7.31929e-05
6.79585e-05
6.21687e-05
5.57013e-05
4.85704e-05
4.08756e-05
3.26768e-05
2.39785e-05
1.47529e-05
4.99173e-06
0.000134888
3.42684e-05
-5.07505e-06
2.21486e-06
3.46434e-05
7.29742e-05
0.000104542
0.000123605
0.00012978
0.000126097
0.000116949
0.000106436
9.74622e-05
9.14542e-05
8.85376e-05
8.79142e-05
8.83718e-05
8.87293e-05
8.81618e-05
8.63224e-05
8.33159e-05
7.95182e-05
7.53667e-05
7.11643e-05
6.70011e-05
6.27647e-05
5.8251e-05
5.32747e-05
4.77557e-05
4.17028e-05
3.5162e-05
2.81591e-05
2.0702e-05
1.27746e-05
4.34986e-06
0.000123514
2.72796e-05
-1.00612e-05
-2.75289e-06
2.84363e-05
6.49915e-05
9.47879e-05
0.000112422
0.000117687
0.000113645
0.000104604
9.45132e-05
8.60978e-05
8.06185e-05
7.8073e-05
7.76028e-05
7.80123e-05
7.82029e-05
7.74657e-05
7.55647e-05
7.26713e-05
6.91678e-05
6.54451e-05
6.17383e-05
5.80837e-05
5.43578e-05
5.03879e-05
4.60341e-05
4.12372e-05
3.59961e-05
3.03416e-05
2.42947e-05
1.78599e-05
1.10168e-05
3.74364e-06
0.000113609
2.25411e-05
-1.2447e-05
-5.1116e-06
2.4652e-05
5.91887e-05
8.70141e-05
0.000103117
0.000107482
0.000103185
9.44136e-05
8.49196e-05
7.7211e-05
7.23569e-05
7.02222e-05
6.99033e-05
7.02475e-05
7.02638e-05
6.93703e-05
6.74332e-05
6.46693e-05
6.14439e-05
5.80887e-05
5.47742e-05
5.14991e-05
4.81426e-05
4.45608e-05
4.06467e-05
3.6361e-05
3.17086e-05
2.6714e-05
2.13877e-05
1.57243e-05
9.70223e-06
3.30045e-06
0.00010584
2.01369e-05
-1.24559e-05
-5.15807e-06
2.30748e-05
5.55075e-05
8.13358e-05
9.5955e-05
9.95252e-05
9.51e-05
8.67007e-05
7.78523e-05
7.08343e-05
6.65367e-05
6.47224e-05
6.44769e-05
6.47139e-05
6.45533e-05
6.35243e-05
6.15693e-05
5.89237e-05
5.5922e-05
5.28398e-05
4.98004e-05
4.67826e-05
4.36749e-05
4.03585e-05
3.67524e-05
3.28311e-05
2.86009e-05
2.40786e-05
1.92676e-05
1.41597e-05
8.73431e-06
2.97107e-06
0.000100506
1.94939e-05
-1.10655e-05
-3.88391e-06
2.29415e-05
5.35031e-05
7.75991e-05
9.09726e-05
9.3917e-05
8.94405e-05
8.14004e-05
7.31116e-05
6.66561e-05
6.27805e-05
6.11787e-05
6.0947e-05
6.10689e-05
6.0759e-05
5.96306e-05
5.76728e-05
5.51229e-05
5.22845e-05
4.93913e-05
4.65352e-05
4.36851e-05
4.07398e-05
3.75995e-05
3.4199e-05
3.05198e-05
2.65668e-05
2.23524e-05
1.78768e-05
1.31312e-05
8.09588e-06
2.75222e-06
9.75474e-05
1.98721e-05
-9.25342e-06
-2.16799e-06
2.36527e-05
5.28964e-05
7.57908e-05
8.83203e-05
9.08611e-05
8.63754e-05
7.85952e-05
7.06852e-05
6.45939e-05
6.09774e-05
5.94935e-05
5.9254e-05
5.92919e-05
5.88831e-05
5.76906e-05
5.57292e-05
5.32338e-05
5.0486e-05
4.76931e-05
4.49301e-05
4.21622e-05
3.92958e-05
3.62414e-05
3.29421e-05
2.93824e-05
2.55666e-05
2.15047e-05
1.71954e-05
1.2629e-05
7.7864e-06
2.64859e-06
0.00052884
0.000836762
0.000725185
0.00084595
0.000766976
0.000896927
0.000857004
0.000993038
0.000985094
0.00113674
0.00115877
0.00133685
0.00138984
0.00160929
0.0017041
0.00199303
0.00217339
0.00262053
0.00301996
0.00384695
0.000529191
0.000836265
0.000725829
0.000845423
0.000767698
0.000896115
0.000857729
0.00099171
0.000985762
0.00113442
0.00115928
0.00133262
0.00138987
0.00160156
0.00170413
0.00197778
0.00217186
0.00257774
0.00296863
0.00352725
0.000529808
0.000835243
0.000727181
0.00084425
0.000769187
0.000894327
0.000859329
0.000988897
0.000987446
0.00112968
0.00116112
0.00132415
0.00139235
0.00158543
0.00170663
0.0019465
0.00216581
0.00249616
0.00285554
0.00316374
0.000530608
0.000834315
0.000728847
0.000842974
0.000770936
0.000892257
0.000861224
0.000985526
0.000989457
0.00112383
0.00116331
0.00131353
0.00139461
0.00156579
0.00170604
0.00191067
0.00214273
0.0024009
0.00269971
0.00285977
0.000531811
0.000833602
0.000730815
0.000841651
0.000772911
0.000889911
0.000863341
0.000981518
0.000991641
0.0011167
0.00116545
0.00130079
0.0013954
0.00154408
0.00169875
0.00187285
0.00209891
0.00229946
0.00252716
0.00261358
0.000533646
0.00083297
0.000733135
0.000840104
0.000775135
0.000887023
0.000865676
0.000976535
0.000993913
0.00110803
0.00116705
0.00128631
0.00139319
0.00152216
0.00168233
0.00183327
0.0020362
0.00219402
0.00235418
0.00240069
0.000536223
0.000832223
0.000735799
0.00083813
0.000777576
0.000883357
0.000868179
0.000970414
0.000996093
0.00109798
0.0011673
0.00127153
0.00138627
0.00150082
0.00165583
0.00179038
0.00195999
0.00208492
0.00218871
0.00220809
0.000539524
0.000831154
0.000738801
0.000835568
0.000780228
0.000878787
0.000870799
0.000963213
0.000997831
0.00108726
0.00116511
0.00125737
0.00137358
0.00147928
0.00162038
0.00174188
0.00187627
0.00197294
0.00203424
0.00203296
0.000543445
0.000829591
0.000742189
0.000832318
0.000783141
0.000873284
0.000873434
0.000955178
0.000998521
0.00107669
0.00115958
0.00124385
0.0013552
0.00145539
0.00157836
0.0016864
0.00178926
0.0018602
0.00189183
0.00187543
0.000547877
0.000827403
0.000746064
0.000828339
0.000786357
0.000866919
0.000875844
0.000946721
0.000997441
0.00106663
0.00115026
0.0012299
0.00133223
0.00142715
0.00153164
0.00162416
0.00170111
0.0017494
0.00176114
0.00173501
0.000552763
0.000824479
0.000750536
0.000823639
0.000789834
0.000859865
0.000877609
0.000938336
0.000993979
0.00105697
0.0011374
0.00121404
0.00130576
0.00139355
0.00148105
0.00155677
0.00161296
0.00164267
0.00164133
0.00161004
0.000558128
0.000820689
0.000755669
0.000818284
0.000793398
0.000852399
0.000878177
0.000930354
0.000987792
0.00104698
0.00112169
0.00119504
0.00127616
0.00135453
0.00142686
0.00148622
0.00152568
0.00154125
0.00153148
0.00149837
0.00056407
0.000815857
0.000761428
0.000812428
0.000796729
0.000844891
0.000876932
0.000922869
0.000979011
0.00103565
0.00110364
0.00117229
0.00124329
0.00131075
0.00136937
0.00141406
0.00144012
0.00144555
0.0014307
0.00139802
0.000570733
0.000809789
0.000767639
0.000806359
0.00079939
0.000837749
0.00087351
0.000915471
0.000968132
0.00102218
0.00108329
0.00114557
0.00120686
0.00126299
0.00130913
0.00134133
0.00135698
0.00135552
0.00133815
0.0013074
0.000578279
0.000802317
0.000773961
0.000800508
0.000800937
0.000831247
0.000867807
0.00090735
0.000955546
0.00100611
0.00106036
0.00111503
0.00116673
0.0012119
0.00124685
0.00126883
0.00127674
0.00127096
0.00125303
0.00122525
0.000586852
0.000793364
0.000779862
0.000795394
0.000801022
0.000825561
0.000860203
0.000897765
0.000941247
0.000987189
0.0010345
0.00108084
0.00112301
0.00115799
0.00118322
0.00119713
0.00119962
0.00119159
0.00117458
0.00115055
0.000596539
0.000783041
0.000784627
0.000791487
0.000799378
0.000820013
0.000851329
0.000886349
0.000924997
0.000965337
0.00100542
0.00104314
0.001076
0.00110173
0.00111875
0.00112655
0.0011256
0.00111698
0.00110209
0.00108249
0.000607316
0.000771743
0.000787445
0.000788956
0.000796247
0.000814112
0.000841427
0.00087289
0.000906468
0.000940499
0.000972992
0.00100207
0.00102601
0.00104346
0.00105375
0.00105712
0.00105434
0.00104653
0.00103486
0.00102043
0.000619099
0.000759967
0.000787552
0.000787504
0.000792731
0.000807549
0.000830418
0.000857293
0.00088533
0.000912572
0.000937227
0.000957823
0.00097337
0.000983445
0.00098823
0.000988457
0.000985146
0.000979364
0.000972031
0.000963807
0.000631783
0.000748779
0.000784233
0.000786312
0.000789182
0.000800332
0.000818252
0.000839609
0.000861436
0.000881542
0.000898301
0.000910702
0.000918438
0.000921897
0.000921974
0.000919908
0.000916988
0.000914307
0.00091258
0.000912055
0.000645026
0.000738786
0.00077732
0.0007838
0.000785591
0.000792666
0.000805043
0.000820041
0.000834946
0.0008476
0.00085654
0.000861128
0.000861605
0.000858992
0.000854826
0.000850906
0.00084894
0.000850232
0.000855438
0.000864458
0.000658233
0.000730686
0.000768034
0.000778946
0.00078103
0.000784408
0.000790776
0.000798772
0.000806178
0.000811142
0.000812395
0.000809576
0.000803301
0.000795056
0.000786986
0.00078149
0.000780829
0.000786722
0.000799971
0.000820249
0.000670855
0.000725008
0.000757813
0.00077108
0.000773971
0.000774534
0.000775106
0.000775775
0.000775474
0.000772706
0.000766471
0.000756624
0.000744064
0.000730654
0.000719102
0.000712388
0.000713376
0.00072431
0.000746296
0.000778914
0.000682525
0.000721761
0.000747857
0.000760281
0.000763411
0.000761605
0.000757016
0.000750798
0.00074299
0.000732783
0.000719398
0.00070294
0.000684559
0.000666594
0.000652146
0.000644722
0.000647758
0.000664035
0.000695015
0.000740285
0.000693045
0.000720348
0.000738768
0.000747773
0.000749036
0.00074447
0.000735479
0.000723295
0.000708739
0.000691627
0.000671614
0.000649104
0.00062565
0.000603889
0.000587271
0.000579733
0.000585196
0.000606913
0.000646696
0.000704213
0.000702291
0.000720053
0.000730615
0.000734218
0.00073142
0.000723047
0.000709978
0.000693003
0.000672711
0.00064954
0.000623625
0.000595873
0.000568186
0.000543461
0.00052542
0.000518316
0.000526441
0.000553442
0.000601468
0.000670317
0.000710142
0.000720185
0.00072283
0.00071958
0.000711221
0.000698277
0.0006811
0.00065995
0.000635049
0.000606784
0.00057587
0.000543714
0.000512594
0.000485673
0.000466876
0.000460658
0.000471567
0.000503573
0.000559154
0.00063828
0.000716551
0.000720091
0.000714813
0.000703804
0.00068894
0.000670923
0.000649658
0.000624765
0.000595995
0.000563591
0.000528573
0.000492756
0.00045881
0.000430219
0.00041114
0.000406191
0.000420076
0.000456976
0.000519626
0.00060818
0.000721614
0.000719457
0.000706046
0.000686632
0.000664716
0.000641442
0.000616268
0.000588073
0.000556074
0.000520334
0.000482021
0.000443176
0.000406789
0.000376667
0.000357307
0.000353654
0.000370657
0.000412616
0.000482308
0.00057993
0.000725321
0.000718263
0.000696317
0.000667867
0.000638639
0.000610221
0.000581461
0.000550429
0.000515827
0.000477513
0.000436555
0.000395302
0.000356912
0.000325364
0.000305408
0.000302397
0.000321829
0.000368428
0.000445092
0.000551851
0.000729617
0.000712485
0.000671101
0.000621918
0.000575932
0.000535808
0.000498996
0.000461809
0.000421812
0.000378505
0.000333118
0.000288038
0.000246555
0.000212778
0.000191651
0.000188932
0.00021096
0.000264088
0.000353461
0.000481081
0.00069208
0.000668834
0.000619421
0.000560098
0.000502593
0.000451404
0.000405505
0.000361862
0.000318006
0.00027303
0.000227616
0.000183761
0.000144529
0.000113924
9.68673e-05
9.91486e-05
0.000127178
0.000187343
0.000284771
0.00042147
0.00063121
0.000610339
0.000565619
0.000509821
0.000452456
0.000398148
0.000347524
0.000299358
0.000252401
0.000206223
0.000161159
0.00011872
8.15269e-05
5.32311e-05
3.85144e-05
4.29989e-05
7.29579e-05
0.000134645
0.000233066
0.000370141
0.0005443
0.000532895
0.000506062
0.000468161
0.000423907
0.000376941
0.000329031
0.00028079
0.000232468
0.00018455
0.000138467
9.60881e-05
5.93533e-05
3.13089e-05
1.62322e-05
1.94716e-05
4.70763e-05
0.000105075
0.000198218
0.000328168
0.000426494
0.000424385
0.000419241
0.000411493
0.000399892
0.000382758
0.000359099
0.000328722
0.000292176
0.000250872
0.000206959
0.000163357
0.000123944
9.27118e-05
7.36495e-05
7.06941e-05
8.74582e-05
0.000126709
0.000189655
0.000275196
0.000291556
0.000286592
0.00028301
0.000282513
0.000287293
0.000299412
0.000320246
0.000350242
0.000388843
0.000434422
0.000483636
0.000532663
0.000577258
0.000612787
0.000634245
0.000636316
0.000613642
0.000561383
0.000476182
0.000357543
0.000202149
0.000206549
0.000219245
0.000238542
0.000264089
0.000295993
0.000333762
0.000376448
0.000422412
0.000469418
0.00051546
0.000558025
0.000594147
0.000620287
0.000632211
0.000625013
0.000593287
0.000531722
0.000436292
0.000305917
0.000147839
0.000155408
0.000172881
0.000197889
0.000229328
0.000266781
0.000310058
0.000358214
0.000409602
0.000462046
0.000513013
0.00055971
0.000599063
0.000627559
0.000641061
0.000634673
0.000603024
0.000540929
0.000444529
0.000312911
0.000110972
0.000119295
0.000137577
0.000163603
0.000196478
0.000235885
0.000281339
0.000331706
0.000385206
0.00043954
0.000492083
0.000539981
0.000580122
0.000608989
0.000622498
0.000615942
0.00058419
0.0005223
0.000426631
0.000296432
8.52914e-05
9.31764e-05
0.000110181
0.000134495
0.000165576
0.000203352
0.000247513
0.000297133
0.000350487
0.000405223
0.000458589
0.000507572
0.000548911
0.00057899
0.000593701
0.000588407
0.000558144
0.000498214
0.000405259
0.000278773
6.61202e-05
7.30606e-05
8.79832e-05
0.000109549
0.000137617
0.000172458
0.000214055
0.000261683
0.000313783
0.000368053
0.000421652
0.000471398
0.000513839
0.000545213
0.000561357
0.000557692
0.000529441
0.000472199
0.000382961
0.000261514
5.16586e-05
5.76075e-05
7.0421e-05
8.91592e-05
0.000113998
0.000145495
0.000183916
0.000228797
0.000278779
0.000331666
0.000384636
0.000434419
0.000477418
0.000509737
0.000527152
0.000525144
0.000499126
0.000445007
0.000360153
0.000244663
4.11219e-05
4.62301e-05
5.72592e-05
7.35533e-05
9.54908e-05
0.000123815
0.00015901
0.000200863
0.00024826
0.00029919
0.0003509
0.000400097
0.000443102
0.000475931
0.000494323
0.000493817
0.000470015
0.000419125
0.000338867
0.000229627
3.4131e-05
3.85998e-05
4.82834e-05
6.2711e-05
8.23764e-05
0.000108127
0.000140586
0.000179732
0.00022466
0.00027355
0.000323771
0.000372068
0.000414735
0.000447741
0.000466808
0.000467532