/*--------------------------------*- C++ -*----------------------------------*\
| =========                 |                                                 |
| \\      /  F ield         | OpenFOAM: The Open Source CFD Toolbox           |
|  \\    /   O peration     | Version:  1.4.1-dev                             |
|   \\  /    A nd           | Web:      http://www.openfoam.org               |
|    \\/     M anipulation  |                                                 |
\*---------------------------------------------------------------------------*/

FoamFile
{
    version 2.0;
    format ascii;

    root "/home/mjaworsk/OpenFOAM/mjaworsk-1.4.1-dev/run/FlatPlate-Blasius";
    case "icoHeatFoam-flatPlate2";
    instance "1";
    local "";

    class surfaceScalarField;
    object phi;
}

// * * * * * * * * * * * * * * * * * * * * * * * * * * * * * * * * * * * * * //

dimensions      [0 3 -1 0 0 0 0];

internalField   nonuniform List<scalar> 
4850
(
9.45984e-09
5.44598e-09
-1.49058e-08
5.66205e-09
3.79779e-09
3.85085e-09
1.81119e-09
2.99116e-09
8.5969e-10
2.5288e-09
4.6236e-10
2.24012e-09
2.88684e-10
2.03168e-09
2.08437e-10
1.86683e-09
1.6485e-10
1.73077e-09
1.3606e-10
1.61581e-09
1.14963e-10
1.51688e-09
9.89279e-11
1.43042e-09
8.64636e-11
1.3539e-09
7.6522e-11
1.28542e-09
6.84771e-11
1.22365e-09
6.17723e-11
1.16742e-09
5.62237e-11
1.11601e-09
5.14145e-11
1.06859e-09
4.7422e-11
1.02479e-09
4.37983e-11
9.83941e-10
4.08472e-11
9.45951e-10
3.79904e-11
9.10165e-10
3.5786e-11
8.76732e-10
3.34325e-11
8.44927e-10
3.18055e-11
8.15155e-10
2.9772e-11
7.86526e-10
2.86289e-11
7.59748e-10
2.67774e-11
7.33658e-10
2.60906e-11
7.09339e-10
2.43186e-11
6.85233e-10
2.41066e-11
6.62895e-10
2.23378e-11
6.40253e-10
2.2642e-11
6.19309e-10
2.09441e-11
5.97702e-10
2.16067e-11
2.19711e-11
1.62845e-08
6.12878e-09
-1.69673e-08
1.38729e-08
6.20938e-09
1.16127e-08
4.07137e-09
9.84446e-09
2.62797e-09
8.50408e-09
1.80275e-09
7.52712e-09
1.26564e-09
6.80694e-09
9.28613e-10
6.24628e-09
7.25512e-10
5.78779e-09
5.94549e-10
5.40133e-09
5.01428e-10
5.06905e-09
4.312e-10
4.7788e-09
3.76713e-10
4.52208e-09
3.33245e-10
4.29244e-09
2.98116e-10
4.08538e-09
2.68833e-10
3.897e-09
2.44606e-10
3.7248e-09
2.23618e-10
3.56606e-09
2.06164e-10
3.41948e-09
1.90371e-10
3.28288e-09
1.77447e-10
3.15584e-09
1.6503e-10
3.03628e-09
1.55345e-10
2.92457e-09
1.4515e-10
2.81841e-09
1.37962e-10
2.71901e-09
1.29175e-10
2.62354e-09
1.24093e-10
2.53423e-09
1.16087e-10
2.4473e-09
1.13027e-10
2.36635e-09
1.05263e-10
2.28604e-09
1.0442e-10
2.21203e-09
9.63525e-11
2.13643e-09
9.82384e-11
2.06781e-09
8.95669e-11
1.99506e-09
9.43553e-11
9.11229e-11
1.91823e-08
5.39423e-09
-1.84477e-08
1.8627e-08
6.76464e-09
1.74016e-08
5.29681e-09
1.60619e-08
3.96763e-09
1.47002e-08
3.16443e-09
1.34361e-08
2.52977e-09
1.23485e-08
2.01625e-09
1.14318e-08
1.64221e-09
1.06518e-08
1.37455e-09
9.97854e-09
1.17466e-09
9.39035e-09
1.0194e-09
8.87056e-09
8.96494e-10
8.40692e-09
7.9689e-10
7.98948e-09
7.15553e-10
7.61121e-09
6.47109e-10
7.26568e-09
5.90133e-10
6.94883e-09
5.40462e-10
6.65602e-09
4.98977e-10
6.3851e-09
4.61295e-10
6.13221e-09
4.30335e-10
5.89668e-09
4.00559e-10
5.67481e-09
3.77216e-10
5.46727e-09
3.5269e-10
5.26996e-09
3.35265e-10
5.08506e-09
3.1408e-10
4.90746e-09
3.01694e-10
4.74121e-09
2.82332e-10
4.57938e-09
2.74856e-10
4.42873e-09
2.55917e-10
4.2792e-09
2.53955e-10
4.14165e-09
2.33899e-10
4.00085e-09
2.39041e-10
3.8739e-09
2.16518e-10
3.73828e-09
2.29966e-10
2.16298e-10
2.09434e-08
4.60991e-09
-2.01591e-08
2.12905e-08
6.41761e-09
2.09599e-08
5.62742e-09
2.03812e-08
4.54632e-09
1.96029e-08
3.9427e-09
1.86692e-08
3.46345e-09
1.76932e-08
2.99225e-09
1.67471e-08
2.58836e-09
1.58559e-08
2.26574e-09
1.50273e-08
2.00323e-09
1.42635e-08
1.78324e-09
1.35617e-08
1.59829e-09
1.29175e-08
1.44108e-09
1.23247e-08
1.30835e-09
1.17784e-08
1.19342e-09
1.12726e-08
1.09593e-09
1.08038e-08
1.00925e-09
1.03667e-08
9.36065e-10
9.95939e-09
8.68598e-10
9.5769e-09
8.1283e-10
9.21891e-09
7.5855e-10
8.88024e-09
7.15881e-10
8.56235e-09
6.70584e-10
8.25922e-09
6.38394e-10
7.97443e-09
5.98873e-10
7.70029e-09
5.75832e-10
7.44321e-09
5.39407e-10
7.1926e-09
5.25473e-10
6.95901e-09
4.89501e-10
6.72695e-09
4.86016e-10
6.51341e-09
4.47438e-10
6.29473e-09
4.57721e-10
6.09772e-09
4.13534e-10
5.88736e-09
4.40324e-10
4.08007e-10
2.26249e-08
4.04025e-09
-2.20552e-08
2.32213e-08
5.82121e-09
2.3311e-08
5.53771e-09
2.32019e-08
4.65541e-09
2.29597e-08
4.18487e-09
2.25301e-08
3.89309e-09
2.19545e-08
3.56783e-09
2.12978e-08
3.24505e-09
2.05963e-08
2.96728e-09
1.98707e-08
2.72886e-09
1.91395e-08
2.51441e-09
1.84171e-08
2.32073e-09
1.77143e-08
2.14384e-09
1.70367e-08
1.98596e-09
1.63886e-08
1.84147e-09
1.57702e-08
1.71433e-09
1.5183e-08
1.59644e-09
1.46244e-08
1.49474e-09
1.40952e-08
1.39777e-09
1.35912e-08
1.31681e-09
1.31141e-08
1.23562e-09
1.26582e-08
1.17177e-09
1.22269e-08
1.10197e-09
1.18124e-08
1.05281e-09
1.14208e-08
9.90492e-10
1.10418e-08
9.549e-10
1.06848e-08
8.96406e-10
1.03353e-08
8.74939e-10
1.00085e-08
8.16254e-10
9.68302e-09
8.11531e-10
9.38274e-09
7.47721e-10
9.07495e-09
7.65512e-10
8.79693e-09
6.91552e-10
8.5007e-09
7.36554e-10
6.76459e-10
2.44686e-08
3.64828e-09
-2.40766e-08
2.5082e-08
5.20776e-09
2.53208e-08
5.29897e-09
2.53774e-08
4.59881e-09
2.53982e-08
4.16399e-09
2.53114e-08
3.97998e-09
2.50927e-08
3.7865e-09
2.47756e-08
3.56214e-09
2.43841e-08
3.35873e-09
2.39268e-08
3.18619e-09
2.34136e-08
3.02759e-09
2.28562e-08
2.87815e-09
2.22682e-08
2.73184e-09
2.16599e-08
2.5943e-09
2.10425e-08
2.45887e-09
2.04223e-08
2.33449e-09
1.98079e-08
2.21086e-09
1.92014e-08
2.10125e-09
1.86094e-08
1.98979e-09
1.80303e-08
1.89583e-09
1.74704e-08
1.79558e-09
1.69248e-08
1.71738e-09
1.64005e-08
1.62627e-09
1.58894e-08
1.56386e-09
1.5401e-08
1.4789e-09
1.4923e-08
1.43291e-09
1.44691e-08
1.35035e-09
1.40209e-08
1.32306e-09
1.35993e-08
1.23794e-09
1.31766e-08
1.23415e-09
1.27847e-08
1.13968e-09
1.23818e-08
1.16844e-09
1.20157e-08
1.05764e-09
1.16261e-08
1.12607e-09
1.02947e-09
2.64884e-08
3.37061e-09
-2.62107e-08
2.70539e-08
4.64227e-09
2.73598e-08
4.99312e-09
2.74578e-08
4.50078e-09
2.7551e-08
4.07077e-09
2.76126e-08
3.91838e-09
2.75901e-08
3.80902e-09
2.74933e-08
3.65893e-09
2.73414e-08
3.5106e-09
2.71349e-08
3.39266e-09
2.68716e-08
3.29091e-09
2.6551e-08
3.19876e-09
2.61784e-08
3.10442e-09
2.57577e-08
3.01507e-09
2.52971e-08
2.91948e-09
2.48011e-08
2.83049e-09
2.42796e-08
2.73235e-09
2.37359e-08
2.64494e-09
2.31804e-08
2.5453e-09
2.26136e-08
2.46255e-09
2.20464e-08
2.36285e-09
2.14755e-08
2.28831e-09
2.09126e-08
2.18915e-09
2.03501e-08
2.12635e-09
1.98022e-08
2.02682e-09
1.92554e-08
1.97962e-09
1.87287e-08
1.87706e-09
1.8201e-08
1.85084e-09
1.76987e-08
1.74015e-09
1.71898e-08
1.74308e-09
1.67133e-08
1.61621e-09
1.62202e-08
1.66148e-09
1.57678e-08
1.51013e-09
1.52861e-08
1.60771e-09
1.46891e-09
2.86833e-08
3.15651e-09
-2.84692e-08
2.91727e-08
4.15286e-09
2.9521e-08
4.64479e-09
2.96461e-08
4.37567e-09
2.97425e-08
3.97439e-09
2.98466e-08
3.81429e-09
2.99052e-08
3.75041e-09
2.99094e-08
3.65475e-09
2.98798e-08
3.54024e-09
2.9821e-08
3.45143e-09
2.97288e-08
3.38315e-09
2.95957e-08
3.33179e-09
2.94208e-08
3.27932e-09
2.92002e-08
3.23566e-09
2.89362e-08
3.18353e-09
2.86262e-08
3.14046e-09
2.8276e-08
3.08257e-09
2.78841e-08
3.03686e-09
2.74595e-08
2.9699e-09
2.70003e-08
2.9217e-09
2.65186e-08
2.84458e-09
2.60103e-08
2.79664e-09
2.54902e-08
2.70925e-09
2.49503e-08
2.66624e-09
2.4409e-08
2.56809e-09
2.38523e-08
2.53636e-09
2.33038e-08
2.42551e-09
2.27408e-08
2.4138e-09
2.21956e-08
2.28542e-09
2.16328e-08
2.30585e-09
2.10977e-08
2.15131e-09
2.05376e-08
2.22159e-09
2.00153e-08
2.03246e-09
1.94576e-08
2.16538e-09
1.98567e-09
3.10631e-08
2.97226e-09
-3.08788e-08
3.14672e-08
3.7488e-09
3.18319e-08
4.28008e-09
3.19942e-08
4.21331e-09
3.20849e-08
3.88372e-09
3.21923e-08
3.7069e-09
3.2282e-08
3.66069e-09
3.23278e-08
3.60899e-09
3.2346e-08
3.52198e-09
3.23493e-08
3.44818e-09
3.23391e-08
3.39336e-09
3.2308e-08
3.36291e-09
3.22544e-08
3.33289e-09
3.2172e-08
3.31807e-09
3.20609e-08
3.29459e-09
3.1914e-08
3.28742e-09
3.17332e-08
3.2633e-09
3.15115e-08
3.25863e-09
3.12542e-08
3.22718e-09
3.09541e-08
3.2218e-09
3.06208e-08
3.17783e-09
3.02462e-08
3.17131e-09
2.98444e-08
3.11098e-09
2.94048e-08
3.10592e-09
2.89468e-08
3.02608e-09
2.84546e-08
3.0285e-09
2.79545e-08
2.92565e-09
2.74226e-08
2.94569e-09
2.68939e-08
2.81411e-09
2.63331e-08
2.86665e-09
2.57873e-08
2.69715e-09
2.52055e-08
2.80333e-09
2.46494e-08
2.58854e-09
2.40524e-08
2.76244e-09
2.55438e-09
3.36453e-08
2.8024e-09
-3.34754e-08
3.39723e-08
3.42177e-09
3.43251e-08
3.92727e-09
3.45252e-08
4.01319e-09
3.46197e-08
3.78926e-09
3.47183e-08
3.60826e-09
3.48192e-08
3.55984e-09
3.48867e-08
3.54152e-09
3.49249e-08
3.48376e-09
3.49493e-08
3.42377e-09
3.4969e-08
3.37368e-09
3.49791e-08
3.35278e-09
3.49802e-08
3.33181e-09
3.49665e-08
3.33178e-09
3.494e-08
3.32109e-09
3.48929e-08
3.33454e-09
3.48274e-08
3.3288e-09
3.47336e-08
3.35234e-09
3.46158e-08
3.34505e-09
3.44625e-08
3.3751e-09
3.4281e-08
3.35933e-09
3.40586e-08
3.39372e-09
3.38069e-08
3.36264e-09
3.35112e-08
3.40161e-09
3.31887e-08
3.34856e-09
3.28212e-08
3.39603e-09
3.24326e-08
3.31422e-09
3.19991e-08
3.37926e-09
3.15527e-08
3.26051e-09
3.10612e-08
3.35812e-09
3.05663e-08
3.19203e-09
3.0026e-08
3.34367e-09
2.94897e-08
3.12485e-09
2.89098e-08
3.34228e-09
3.13137e-09
3.64529e-08
2.64386e-09
-3.62944e-08
3.67202e-08
3.15451e-09
3.70409e-08
3.60659e-09
3.72662e-08
3.78782e-09
3.73765e-08
3.679e-09
3.74656e-08
3.51917e-09
3.75661e-08
3.45934e-09
3.76471e-08
3.46053e-09
3.76986e-08
3.43227e-09
3.77314e-08
3.39089e-09
3.77604e-08
3.34475e-09
3.77839e-08
3.32922e-09
3.78043e-08
3.31139e-09
3.78166e-08
3.3195e-09
3.7825e-08
3.31269e-09
3.78231e-08
3.3365e-09
3.7815e-08
3.33692e-09
3.77915e-08
3.37582e-09
3.77575e-08
3.37906e-09
3.77013e-08
3.43126e-09
3.76294e-08
3.43122e-09
3.75279e-08
3.49525e-09
3.74058e-08
3.48474e-09
3.7247e-08
3.56044e-09
3.70643e-08
3.5312e-09
3.68392e-08
3.62116e-09
3.65893e-08
3.5641e-09
3.6293e-08
3.67562e-09
3.59731e-08
3.58031e-09
3.56049e-08
3.72642e-09
3.52153e-08
3.58159e-09
3.47784e-08
3.78053e-09
3.43194e-08
3.58391e-09
3.3821e-08
3.84069e-09
3.66066e-09
3.95107e-08
2.49776e-09
-3.93646e-08
3.97349e-08
2.9303e-09
4.00156e-08
3.32591e-09
4.02491e-08
3.55434e-09
4.03813e-08
3.54673e-09
4.04669e-08
3.43357e-09
4.05605e-08
3.3658e-09
4.06479e-08
3.37306e-09
4.07109e-08
3.36934e-09
4.07504e-08
3.35136e-09
4.07826e-08
3.31255e-09
4.081e-08
3.30183e-09
4.08362e-08
3.28521e-09
4.08565e-08
3.29917e-09
4.08758e-08
3.2934e-09
4.08893e-08
3.32304e-09
4.09022e-08
3.324e-09
4.09075e-08
3.37051e-09
4.09106e-08
3.37591e-09
4.09024e-08
3.43946e-09
4.08888e-08
3.44478e-09
4.08586e-08
3.52546e-09
4.08186e-08
3.5248e-09
4.07555e-08
3.62352e-09
4.06773e-08
3.60937e-09
4.05696e-08
3.72891e-09
4.04414e-08
3.69229e-09
4.02779e-08
3.83909e-09
4.00886e-08
3.76964e-09
3.98606e-08
3.95439e-09
3.96001e-08
3.84214e-09
3.93025e-08
4.07806e-09
3.89605e-08
3.92591e-09
3.85921e-08
4.20915e-09
4.09048e-09
4.28405e-08
2.36476e-09
-4.27075e-08
4.30336e-08
2.73723e-09
4.32761e-08
3.08346e-09
4.35032e-08
3.32721e-09
4.36556e-08
3.39434e-09
4.37467e-08
3.34245e-09
4.38327e-08
3.2798e-09
4.39205e-08
3.28526e-09
4.39924e-08
3.29742e-09
4.40399e-08
3.3039e-09
4.4075e-08
3.27747e-09
4.41038e-08
3.27296e-09
4.41315e-08
3.25755e-09
4.41544e-08
3.27628e-09
4.41761e-08
3.27165e-09
4.41937e-08
3.30548e-09
4.42116e-08
3.3061e-09
4.42257e-08
3.35646e-09
4.42401e-08
3.36145e-09
4.42497e-08
3.4299e-09
4.42584e-08
3.4361e-09
4.426e-08
3.52381e-09
4.4258e-08
3.52679e-09
4.42458e-08
3.63573e-09
4.42255e-08
3.62966e-09
4.41911e-08
3.76332e-09
4.41423e-08
3.74106e-09
4.40757e-08
3.90577e-09
4.39859e-08
3.85936e-09
4.38763e-08
4.06407e-09
4.37308e-08
3.98759e-09
4.35682e-08
4.24071e-09
4.33498e-08
4.14423e-09
4.31237e-08
4.43529e-09
4.39314e-09
4.64608e-08
2.24422e-09
-4.63403e-08
4.663e-08
2.56806e-09
4.68403e-08
2.87318e-09
4.70527e-08
3.1148e-09
4.72174e-08
3.22964e-09
4.73214e-08
3.23838e-09
4.74045e-08
3.19678e-09
4.74893e-08
3.20046e-09
4.75667e-08
3.21994e-09
4.76233e-08
3.24733e-09
4.76632e-08
3.23756e-09
4.76943e-08
3.24191e-09
4.77226e-08
3.22916e-09
4.77473e-08
3.25166e-09
4.77696e-08
3.24932e-09
4.77886e-08
3.28647e-09
4.78066e-08
3.2881e-09
4.78227e-08
3.34034e-09
4.78385e-08
3.34573e-09
4.78529e-08
3.41548e-09
4.78664e-08
3.42258e-09
4.78787e-08
3.51148e-09
4.78885e-08
3.51696e-09
4.78969e-08
3.6274e-09
4.78995e-08
3.62701e-09
4.79001e-08
3.76274e-09
4.78897e-08
3.75143e-09
4.7877e-08
3.91856e-09
4.78447e-08
3.89165e-09
4.7811e-08
4.0977e-09
4.7744e-08
4.05463e-09
4.76802e-08
4.30449e-09
4.75618e-08
4.26268e-09
4.74528e-08
4.54422e-09
4.57477e-09
5.03894e-08
2.13506e-09
-5.02802e-08
5.0539e-08
2.41845e-09
5.07232e-08
2.68892e-09
5.0918e-08
2.92001e-09
5.10863e-08
3.06133e-09
5.12053e-08
3.11942e-09
5.12918e-08
3.11028e-09
5.13739e-08
3.11841e-09
5.14536e-08
3.14023e-09
5.15188e-08
3.18208e-09
5.15659e-08
3.19043e-09
5.16014e-08
3.2065e-09
5.16314e-08
3.19915e-09
5.16584e-08
3.22465e-09
5.16818e-08
3.22589e-09
5.17027e-08
3.26558e-09
5.17206e-08
3.27023e-09
5.17378e-08
3.32314e-09
5.17526e-08
3.33087e-09
5.17683e-08
3.39982e-09
5.17813e-08
3.40962e-09
5.17962e-08
3.49649e-09
5.18073e-08
3.50588e-09
5.18217e-08
3.61301e-09
5.18298e-08
3.61889e-09
5.18428e-08
3.74979e-09
5.18454e-08
3.74883e-09
5.1855e-08
3.90893e-09
5.18474e-08
3.89927e-09
5.18505e-08
4.09458e-09
5.18246e-08
4.08051e-09
5.18155e-08
4.31361e-09
5.17603e-08
4.31794e-09
5.17249e-08
4.57959e-09
4.66683e-09
5.46468e-08
2.0364e-09
-5.45482e-08
5.47798e-08
2.28551e-09
5.49427e-08
2.52596e-09
5.51202e-08
2.74257e-09
5.52855e-08
2.89598e-09
5.54161e-08
2.98885e-09
5.55111e-08
3.01522e-09
5.55934e-08
3.03615e-09
5.56733e-08
3.06032e-09
5.57452e-08
3.11018e-09
5.58008e-08
3.13487e-09
5.58429e-08
3.16431e-09
5.58764e-08
3.16571e-09
5.59067e-08
3.19429e-09
5.59325e-08
3.20015e-09
5.59563e-08
3.2417e-09
5.59755e-08
3.25109e-09
5.59945e-08
3.30409e-09
5.60095e-08
3.31595e-09
5.60262e-08
3.38308e-09
5.60385e-08
3.39729e-09
5.60543e-08
3.48068e-09
5.60647e-08
3.49554e-09
5.60803e-08
3.59738e-09
5.60885e-08
3.61068e-09
5.61043e-08
3.73403e-09
5.61094e-08
3.7437e-09
5.61253e-08
3.89303e-09
5.61252e-08
3.89935e-09
5.61407e-08
4.0791e-09
5.61314e-08
4.08982e-09
5.61438e-08
4.3012e-09
5.61201e-08
4.3416e-09
5.61189e-08
4.58081e-09
4.70697e-09
5.92578e-08
1.94762e-09
-5.91691e-08
5.93763e-08
2.16702e-09
5.95215e-08
2.38082e-09
5.9683e-08
2.58106e-09
5.98415e-08
2.73748e-09
5.99782e-08
2.85218e-09
6.00835e-08
2.90989e-09
6.01696e-08
2.95003e-09
6.02497e-08
2.98026e-09
6.03257e-08
3.03414e-09
6.03892e-08
3.07144e-09
6.04396e-08
3.11383e-09
6.04785e-08
3.12686e-09
6.05132e-08
3.15959e-09
6.05423e-08
3.17099e-09
6.057e-08
3.214e-09
6.0592e-08
3.22912e-09
6.06139e-08
3.28219e-09
6.06305e-08
3.29937e-09
6.06491e-08
3.36451e-09
6.06622e-08
3.38415e-09
6.06791e-08
3.46378e-09
6.06897e-08
3.48498e-09
6.07058e-08
3.58119e-09
6.0714e-08
3.60253e-09
6.07301e-08
3.71791e-09
6.07355e-08
3.73836e-09
6.07521e-08
3.87638e-09
6.07536e-08
3.89782e-09
6.07712e-08
4.06156e-09
6.07672e-08
4.09385e-09
6.07842e-08
4.28415e-09
6.07732e-08
4.35258e-09
6.07824e-08
4.57159e-09
4.72345e-09
6.42508e-08
1.86811e-09
-6.41713e-08
6.43568e-08
2.06102e-09
6.44869e-08
2.25066e-09
6.46342e-08
2.43382e-09
6.4784e-08
2.58762e-09
6.49219e-08
2.71427e-09
6.50358e-08
2.79607e-09
6.51285e-08
2.85727e-09
6.52103e-08
2.89849e-09
6.52888e-08
2.95565e-09
6.53583e-08
3.00188e-09
6.54172e-08
3.05499e-09
6.54631e-08
3.08098e-09
6.55031e-08
3.11953e-09
6.55366e-08
3.13752e-09
6.55686e-08
3.18198e-09
6.55945e-08
3.20323e-09
6.562e-08
3.25666e-09
6.56396e-08
3.27981e-09
6.56608e-08
3.34332e-09
6.56761e-08
3.36888e-09
6.56948e-08
3.44505e-09
6.57068e-08
3.47294e-09
6.57242e-08
3.56382e-09
6.57333e-08
3.59343e-09
6.575e-08
3.70118e-09
6.5756e-08
3.73242e-09
6.57727e-08
3.85962e-09
6.5775e-08
3.89555e-09
6.57921e-08
4.04444e-09
6.579e-08
4.09595e-09
6.58062e-08
4.26795e-09
6.58e-08
4.35882e-09
6.581e-08
4.56159e-09
4.73112e-09
6.96568e-08
1.79682e-09
-6.95855e-08
6.97524e-08
1.96549e-09
6.987e-08
2.13304e-09
7.00047e-08
2.29914e-09
7.01453e-08
2.44694e-09
7.0281e-08
2.57858e-09
7.04e-08
2.6771e-09
7.05001e-08
2.75714e-09
7.05858e-08
2.81289e-09
7.06664e-08
2.87502e-09
7.07403e-08
2.92794e-09
7.08064e-08
2.98887e-09
7.08601e-08
3.0273e-09
7.09066e-08
3.07309e-09
7.09452e-08
3.09893e-09
7.09818e-08
3.1453e-09
7.10123e-08
3.17281e-09
7.1042e-08
3.22688e-09
7.10654e-08
3.25642e-09
7.10899e-08
3.31881e-09
7.11082e-08
3.35063e-09
7.11295e-08
3.42376e-09
7.11438e-08
3.45857e-09
7.11631e-08
3.54452e-09
7.11741e-08
3.58253e-09
7.11922e-08
3.68308e-09
7.11995e-08
3.72505e-09
7.1217e-08
3.84216e-09
7.12206e-08
3.89195e-09
7.12374e-08
4.02759e-09
7.12371e-08
4.09625e-09
7.12518e-08
4.25324e-09
7.12483e-08
4.36234e-09
7.12569e-08
4.55297e-09
4.73531e-09
7.55099e-08
1.73162e-09
-7.54447e-08
7.5597e-08
1.87835e-09
7.57042e-08
2.02591e-09
7.5828e-08
2.17532e-09
7.59596e-08
2.31526e-09
7.60911e-08
2.44712e-09
7.6212e-08
2.55616e-09
7.63184e-08
2.65079e-09
7.64095e-08
2.7218e-09
7.64931e-08
2.79138e-09
7.65704e-08
2.8506e-09
7.66424e-08
2.91692e-09
7.67036e-08
2.9661e-09
7.67572e-08
3.01947e-09
7.68017e-08
3.05438e-09
7.68436e-08
3.10349e-09
7.68789e-08
3.13748e-09
7.69133e-08
3.19243e-09
7.69412e-08
3.22861e-09
7.69696e-08
3.29039e-09
7.69914e-08
3.3288e-09
7.70158e-08
3.39937e-09
7.70331e-08
3.44126e-09
7.70549e-08
3.52274e-09
7.70683e-08
3.56915e-09
7.70882e-08
3.6631e-09
7.70978e-08
3.71548e-09
7.71164e-08
3.82353e-09
7.71222e-08
3.88616e-09
7.71392e-08
4.0106e-09
7.71414e-08
4.09408e-09
7.71551e-08
4.23955e-09
7.71543e-08
4.36309e-09
7.71619e-08
4.5454e-09
4.73713e-09
8.18463e-08
1.66923e-09
-8.1784e-08
8.19273e-08
1.7974e-09
8.20258e-08
1.92738e-09
8.21401e-08
2.06102e-09
8.22634e-08
2.192e-09
8.23896e-08
2.32094e-09
8.25101e-08
2.4356e-09
8.26207e-08
2.54024e-09
8.27176e-08
2.62487e-09
8.28056e-08
2.70342e-09
8.28863e-08
2.76984e-09
8.2963e-08
2.84029e-09
8.30308e-08
2.89824e-09
8.30918e-08
2.95852e-09
8.31431e-08
3.0031e-09
8.31906e-08
3.05596e-09
8.32313e-08
3.0968e-09
8.32707e-08
3.15298e-09
8.33035e-08
3.19586e-09
8.33363e-08
3.25759e-09
8.33623e-08
3.30275e-09
8.33902e-08
3.37146e-09
8.34111e-08
3.4204e-09
8.34356e-08
3.49819e-09
8.34522e-08
3.55262e-09
8.34743e-08
3.64102e-09
8.34868e-08
3.70295e-09
8.35068e-08
3.80353e-09
8.35155e-08
3.87741e-09
8.35329e-08
3.99319e-09
8.35382e-08
4.08881e-09
8.35514e-08
4.22633e-09
8.35538e-08
4.36073e-09
8.35611e-08
4.53809e-09
4.73651e-09
8.87051e-08
1.60629e-09
-8.86422e-08
8.87824e-08
1.72018e-09
8.88742e-08
1.83552e-09
8.89801e-08
1.95512e-09
8.90956e-08
2.07649e-09
8.92162e-08
2.20042e-09
8.93348e-08
2.31695e-09
8.94476e-08
2.42747e-09
8.95497e-08
2.52279e-09
8.96428e-08
2.61026e-09
8.97277e-08
2.68491e-09
8.98085e-08
2.75947e-09
8.98822e-08
2.82461e-09
8.995e-08
2.89066e-09
9.00086e-08
2.94458e-09
9.00624e-08
3.0021e-09
9.0109e-08
3.0502e-09
9.01538e-08
3.10822e-09
9.0192e-08
3.15764e-09
9.02296e-08
3.22002e-09
9.02605e-08
3.27182e-09
9.02923e-08
3.33966e-09
9.03174e-08
3.39529e-09
9.0345e-08
3.4706e-09
9.03654e-08
3.53226e-09
9.03898e-08
3.61662e-09
9.0406e-08
3.68676e-09
9.04275e-08
3.78198e-09
9.04399e-08
3.86505e-09
9.0458e-08
3.97506e-09
9.04668e-08
4.08003e-09
9.04801e-08
4.21299e-09
9.04858e-08
4.35509e-09
9.04936e-08
4.53023e-09
4.73323e-09
9.61281e-08
1.54063e-09
-9.60624e-08
9.62041e-08
1.64422e-09
9.62912e-08
1.74836e-09
9.63901e-08
1.85622e-09
9.64985e-08
1.96808e-09
9.66134e-08
2.08556e-09
9.67292e-08
2.20111e-09
9.68426e-08
2.31408e-09
9.69486e-08
2.41681e-09
9.7047e-08
2.51189e-09
9.71369e-08
2.595e-09
9.7222e-08
2.67434e-09
9.73009e-08
2.74579e-09
9.73749e-08
2.81661e-09
9.74407e-08
2.87881e-09
9.75013e-08
2.94149e-09
9.75545e-08
2.99699e-09
9.7605e-08
3.05775e-09
9.76492e-08
3.11341e-09
9.76919e-08
3.1773e-09
9.77284e-08
3.23531e-09
9.77645e-08
3.30355e-09
9.77946e-08
3.36528e-09
9.78255e-08
3.4396e-09
9.78504e-08
3.50746e-09
9.78774e-08
3.58957e-09
9.78978e-08
3.66634e-09
9.79213e-08
3.75846e-09
9.79377e-08
3.84864e-09
9.79572e-08
3.95566e-09
9.79697e-08
4.06752e-09
9.79839e-08
4.19877e-09
9.79928e-08
4.34615e-09
9.80021e-08
4.52099e-09
4.72708e-09
1.04161e-07
1.47153e-09
-1.04092e-07
1.04237e-07
1.56797e-09
1.04322e-07
1.66399e-09
1.04415e-07
1.76258e-09
1.04518e-07
1.86587e-09
1.04627e-07
1.97608e-09
1.0474e-07
2.08852e-09
1.04853e-07
2.20125e-09
1.04961e-07
2.30824e-09
1.05064e-07
2.40897e-09
1.05159e-07
2.49972e-09
1.05249e-07
2.58446e-09
1.05333e-07
2.66189e-09
1.05413e-07
2.737e-09
1.05485e-07
2.80613e-09
1.05553e-07
2.87399e-09
1.05613e-07
2.93663e-09
1.0567e-07
3.0011e-09
1.05721e-07
3.06267e-09
1.05769e-07
3.129e-09
1.05812e-07
3.19269e-09
1.05853e-07
3.26258e-09
1.05888e-07
3.32977e-09
1.05923e-07
3.40465e-09
1.05953e-07
3.47771e-09
1.05983e-07
3.55933e-09
1.06008e-07
3.64127e-09
1.06034e-07
3.73238e-09
1.06055e-07
3.8279e-09
1.06076e-07
3.93422e-09
1.06093e-07
4.05115e-09
1.06109e-07
4.18277e-09
1.06121e-07
4.33382e-09
1.06132e-07
4.50952e-09
4.71779e-09
1.12855e-07
1.3994e-09
-1.12783e-07
1.12932e-07
1.49104e-09
1.13015e-07
1.581e-09
1.13105e-07
1.67243e-09
1.13203e-07
1.76848e-09
1.13307e-07
1.87146e-09
1.13416e-07
1.97931e-09
1.13528e-07
2.08977e-09
1.13638e-07
2.1983e-09
1.13744e-07
2.30256e-09
1.13845e-07
2.39936e-09
1.1394e-07
2.4895e-09
1.14029e-07
2.57276e-09
1.14114e-07
2.65213e-09
1.14193e-07
2.72703e-09
1.14267e-07
2.79976e-09
1.14335e-07
2.86887e-09
1.14398e-07
2.93777e-09
1.14456e-07
3.00497e-09
1.1451e-07
3.07461e-09
1.14559e-07
3.14351e-09
1.14606e-07
3.21614e-09
1.14647e-07
3.28828e-09
1.14687e-07
3.36507e-09
1.14722e-07
3.44258e-09
1.14756e-07
3.52523e-09
1.14786e-07
3.61127e-09
1.14815e-07
3.70297e-09
1.14841e-07
3.80264e-09
1.14865e-07
3.90991e-09
1.14885e-07
4.03078e-09
1.14904e-07
4.16408e-09
1.1492e-07
4.31794e-09
1.14934e-07
4.49503e-09
4.70497e-09
1.22265e-07
1.32578e-09
-1.22192e-07
1.22343e-07
1.41357e-09
1.22425e-07
1.49858e-09
1.22513e-07
1.58439e-09
1.22607e-07
1.67441e-09
1.22708e-07
1.77082e-09
1.22814e-07
1.87335e-09
1.22924e-07
1.98017e-09
1.23034e-07
2.08802e-09
1.23143e-07
2.19381e-09
1.23247e-07
2.29474e-09
1.23347e-07
2.3896e-09
1.23442e-07
2.47829e-09
1.23532e-07
2.56203e-09
1.23617e-07
2.64191e-09
1.23698e-07
2.71909e-09
1.23773e-07
2.79381e-09
1.23843e-07
2.86739e-09
1.23908e-07
2.93996e-09
1.23969e-07
3.0136e-09
1.24025e-07
3.08743e-09
1.24078e-07
3.16364e-09
1.24125e-07
3.24043e-09
1.2417e-07
3.32016e-09
1.24211e-07
3.40171e-09
1.2425e-07
3.48648e-09
1.24285e-07
3.57606e-09
1.24319e-07
3.66942e-09
1.24349e-07
3.77267e-09
1.24377e-07
3.8819e-09
1.24401e-07
4.00624e-09
1.24424e-07
4.14182e-09
1.24443e-07
4.29823e-09
1.24461e-07
4.47681e-09
4.68806e-09
1.32452e-07
1.25265e-09
-1.32379e-07
1.3253e-07
1.33565e-09
1.32612e-07
1.41636e-09
1.32699e-07
1.49753e-09
1.32791e-07
1.58238e-09
1.32889e-07
1.673e-09
1.32992e-07
1.77015e-09
1.33099e-07
1.8726e-09
1.33209e-07
1.97822e-09
1.33319e-07
2.0838e-09
1.33427e-07
2.18696e-09
1.33531e-07
2.28536e-09
1.33631e-07
2.37866e-09
1.33726e-07
2.46668e-09
1.33817e-07
2.55101e-09
1.33904e-07
2.63225e-09
1.33986e-07
2.71172e-09
1.34064e-07
2.78982e-09
1.34136e-07
2.86745e-09
1.34204e-07
2.94552e-09
1.34268e-07
3.02418e-09
1.34327e-07
3.10453e-09
1.34381e-07
3.18588e-09
1.34432e-07
3.26924e-09
1.34479e-07
3.35473e-09
1.34523e-07
3.44229e-09
1.34564e-07
3.53531e-09
1.34602e-07
3.63103e-09
1.34637e-07
3.73767e-09
1.3467e-07
3.84948e-09
1.34699e-07
3.97718e-09
1.34725e-07
4.1153e-09
1.3475e-07
4.27417e-09
1.34772e-07
4.4543e-09
4.66655e-09
1.43478e-07
1.18135e-09
-1.43407e-07
1.43556e-07
1.25769e-09
1.43638e-07
1.33426e-09
1.43725e-07
1.41104e-09
1.43816e-07
1.49114e-09
1.43912e-07
1.57663e-09
1.44014e-07
1.66876e-09
1.44119e-07
1.76675e-09
1.44228e-07
1.86927e-09
1.44339e-07
1.97341e-09
1.44449e-07
2.07715e-09
1.44556e-07
2.1777e-09
1.4466e-07
2.27443e-09
1.44761e-07
2.36624e-09
1.44857e-07
2.45449e-09
1.4495e-07
2.53942e-09
1.45039e-07
2.62288e-09
1.45124e-07
2.70513e-09
1.45204e-07
2.78736e-09
1.45279e-07
2.87003e-09
1.4535e-07
2.9535e-09
1.45416e-07
3.03839e-09
1.45478e-07
3.12429e-09
1.45535e-07
3.21173e-09
1.45589e-07
3.30116e-09
1.45639e-07
3.39207e-09
1.45686e-07
3.48849e-09
1.4573e-07
3.58722e-09
1.4577e-07
3.69714e-09
1.45808e-07
3.81213e-09
1.45842e-07
3.94305e-09
1.45873e-07
4.08408e-09
1.45902e-07
4.24513e-09
1.4593e-07
4.42668e-09
4.64022e-09
1.55413e-07
1.11207e-09
-1.55343e-07
1.55489e-07
1.1815e-09
1.55571e-07
1.25221e-09
1.55658e-07
1.32391e-09
1.5575e-07
1.39934e-09
1.55846e-07
1.48024e-09
1.55947e-07
1.56783e-09
1.56052e-07
1.66172e-09
1.5616e-07
1.76097e-09
1.56271e-07
1.86307e-09
1.56382e-07
1.96619e-09
1.56492e-07
2.06758e-09
1.566e-07
2.16641e-09
1.56705e-07
2.26111e-09
1.56807e-07
2.35256e-09
1.56906e-07
2.44073e-09
1.57001e-07
2.52752e-09
1.57093e-07
2.61346e-09
1.5718e-07
2.69981e-09
1.57263e-07
2.78705e-09
1.57341e-07
2.87524e-09
1.57415e-07
2.96492e-09
1.57484e-07
3.05538e-09
1.57548e-07
3.14716e-09
1.57609e-07
3.24056e-09
1.57666e-07
3.33519e-09
1.57719e-07
3.43509e-09
1.57769e-07
3.53739e-09
1.57816e-07
3.65064e-09
1.57858e-07
3.76925e-09
1.57898e-07
3.90333e-09
1.57935e-07
4.04757e-09
1.57969e-07
4.21066e-09
1.58003e-07
4.39324e-09
4.60841e-09
1.68331e-07
1.0468e-09
-1.68266e-07
1.68403e-07
1.11009e-09
1.68484e-07
1.1709e-09
1.68572e-07
1.23566e-09
1.68666e-07
1.30567e-09
1.68764e-07
1.38186e-09
1.68867e-07
1.46519e-09
1.68973e-07
1.55548e-09
1.69082e-07
1.6525e-09
1.69192e-07
1.7529e-09
1.69303e-07
1.85492e-09
1.69414e-07
1.95616e-09
1.69525e-07
2.05579e-09
1.69634e-07
2.15206e-09
1.69741e-07
2.24561e-09
1.69846e-07
2.33618e-09
1.69947e-07
2.42573e-09
1.70046e-07
2.51485e-09
1.70141e-07
2.60505e-09
1.70231e-07
2.69658e-09
1.70317e-07
2.78951e-09
1.70398e-07
2.88389e-09
1.70474e-07
2.97909e-09
1.70546e-07
3.07513e-09
1.70614e-07
3.17271e-09
1.70678e-07
3.27109e-09
1.70739e-07
3.37482e-09
1.70795e-07
3.48085e-09
1.70848e-07
3.59789e-09
1.70897e-07
3.72014e-09
1.70943e-07
3.85762e-09
1.70985e-07
4.00487e-09
1.71026e-07
4.17005e-09
1.71065e-07
4.35443e-09
4.56905e-09
6.55746e-07
7.87952e-10
-6.55487e-07
6.56012e-07
8.44718e-10
6.56274e-07
9.08306e-10
6.56542e-07
9.68147e-10
6.56819e-07
1.02846e-09
6.5711e-07
1.09124e-09
6.57416e-07
1.15832e-09
6.57741e-07
1.23053e-09
6.58085e-07
1.30914e-09
6.58444e-07
1.39334e-09
6.58817e-07
1.48253e-09
6.59199e-07
1.57434e-09
6.59586e-07
1.66859e-09
6.59975e-07
1.76315e-09
6.60361e-07
1.85907e-09
6.60743e-07
1.95458e-09
6.61117e-07
2.05193e-09
6.61482e-07
2.14945e-09
6.61837e-07
2.24986e-09
6.62183e-07
2.35099e-09
6.62517e-07
2.4554e-09
6.6284e-07
2.56032e-09
6.63151e-07
2.66857e-09
6.63449e-07
2.77667e-09
6.63733e-07
2.8893e-09
6.64002e-07
3.00154e-09
6.64255e-07
3.12192e-09
6.64494e-07
3.24222e-09
6.64717e-07
3.3749e-09
6.64929e-07
3.50848e-09
6.65129e-07
3.65766e-09
6.65321e-07
3.81205e-09
6.65505e-07
3.98596e-09
6.65687e-07
4.17247e-09
4.3768e-09
7.09374e-07
5.8232e-10
-7.09168e-07
7.09595e-07
6.24154e-10
7.09833e-07
6.69787e-10
7.10083e-07
7.18358e-10
7.10341e-07
7.70104e-10
7.10607e-07
8.25177e-10
7.10882e-07
8.84182e-10
7.11165e-07
9.4712e-10
7.1146e-07
1.01441e-09
7.11768e-07
1.08547e-09
7.12089e-07
1.16079e-09
7.12424e-07
1.23941e-09
7.1277e-07
1.32243e-09
7.13125e-07
1.4086e-09
7.13484e-07
1.49972e-09
7.13845e-07
1.59381e-09
7.14204e-07
1.69303e-09
7.14559e-07
1.7943e-09
7.14909e-07
1.90004e-09
7.15253e-07
2.00641e-09
7.15592e-07
2.11659e-09
7.15926e-07
2.22697e-09
7.16252e-07
2.34222e-09
7.1657e-07
2.45859e-09
7.16877e-07
2.58212e-09
7.17172e-07
2.70645e-09
7.17454e-07
2.84012e-09
7.17723e-07
2.97302e-09
7.17981e-07
3.11754e-09
7.18228e-07
3.2608e-09
7.18468e-07
3.41814e-09
7.18702e-07
3.57803e-09
7.18932e-07
3.75611e-09
7.19164e-07
3.93976e-09
4.14899e-09
7.6696e-07
3.848e-10
-7.66763e-07
7.67176e-07
4.08073e-10
7.67403e-07
4.43239e-10
7.67637e-07
4.84686e-10
7.67875e-07
5.3141e-10
7.68118e-07
5.82309e-10
7.68366e-07
6.36595e-10
7.6862e-07
6.93246e-10
7.68882e-07
7.51585e-10
7.69157e-07
8.10865e-10
7.69445e-07
8.72925e-10
7.69746e-07
9.38833e-10
7.70057e-07
1.01104e-09
7.70376e-07
1.08919e-09
7.70701e-07
1.17532e-09
7.71027e-07
1.26714e-09
7.71355e-07
1.36573e-09
7.71682e-07
1.46691e-09
7.7201e-07
1.57251e-09
7.72337e-07
1.67912e-09
7.72663e-07
1.79031e-09
7.72987e-07
1.90331e-09
7.73307e-07
2.02251e-09
7.73621e-07
2.14462e-09
7.73928e-07
2.27451e-09
7.74228e-07
2.40647e-09
7.74521e-07
2.54731e-09
7.74806e-07
2.68778e-09
7.75086e-07
2.83813e-09
7.75359e-07
2.98728e-09
7.75629e-07
3.14796e-09
7.75896e-07
3.31082e-09
7.76165e-07
3.48799e-09
7.76434e-07
3.67015e-09
3.87659e-09
8.28816e-07
1.40554e-10
-8.28572e-07
8.29067e-07
1.56845e-10
8.29318e-07
1.93119e-10
8.2956e-07
2.41718e-10
8.29792e-07
2.99825e-10
8.30018e-07
3.56629e-10
8.30246e-07
4.08639e-10
8.30482e-07
4.5663e-10
8.30731e-07
5.02761e-10
8.30993e-07
5.49352e-10
8.31265e-07
6.00623e-10
8.31544e-07
6.59608e-10
8.31826e-07
7.28843e-10
8.32109e-07
8.06258e-10
8.32393e-07
8.91691e-10
8.32679e-07
9.81413e-10
8.32968e-07
1.07609e-09
8.33263e-07
1.17214e-09
8.33563e-07
1.27232e-09
8.33868e-07
1.3744e-09
8.34175e-07
1.48302e-09
8.34483e-07
1.59574e-09
8.34789e-07
1.71645e-09
8.35093e-07
1.8408e-09
8.35394e-07
1.97291e-09
8.35694e-07
2.1067e-09
8.35992e-07
2.24914e-09
8.36289e-07
2.39118e-09
8.36584e-07
2.54343e-09
8.36876e-07
2.69437e-09
8.37169e-07
2.85594e-09
8.37461e-07
3.01803e-09
8.37757e-07
3.19207e-09
8.3806e-07
3.36764e-09
3.54872e-09
8.96501e-07
-3.09861e-11
-8.9633e-07
8.96663e-07
-4.35774e-12
8.96806e-07
5.00896e-11
8.96942e-07
1.05444e-10
8.97087e-07
1.55029e-10
8.97246e-07
1.96967e-10
8.97422e-07
2.32591e-10
8.97613e-07
2.65678e-10
8.97814e-07
3.0255e-10
8.98016e-07
3.4683e-10
8.98218e-07
3.98998e-10
8.9842e-07
4.5781e-10
8.98625e-07
5.23605e-10
8.98837e-07
5.94407e-10
8.99058e-07
6.7072e-10
8.99289e-07
7.50159e-10
8.9953e-07
8.34678e-10
8.9978e-07
9.22251e-10
9.00037e-07
1.01598e-09
9.00298e-07
1.11316e-09
9.00564e-07
1.21698e-09
9.00835e-07
1.32426e-09
9.01113e-07
1.43884e-09
9.01397e-07
1.55709e-09
9.01686e-07
1.6835e-09
9.01981e-07
1.81214e-09
9.02281e-07
1.94917e-09
9.02586e-07
2.08587e-09
9.02897e-07
2.23242e-09