/*--------------------------------*- C++ -*----------------------------------*\
| =========                 |                                                 |
| \\      /  F ield         | OpenFOAM: The Open Source CFD Toolbox           |
|  \\    /   O peration     | Version:  1.4.1-dev                             |
|   \\  /    A nd           | Web:      http://www.openfoam.org               |
|    \\/     M anipulation  |                                                 |
\*---------------------------------------------------------------------------*/

FoamFile
{
    version 2.0;
    format ascii;

    root "/home/mjaworsk/OpenFOAM/mjaworsk-1.4.1-dev/run/FlatPlate-Blasius";
    case "icoHeatFoam-flatPlate2";
    instance "1";
    local "";

    class volVectorField;
    object U;
}

// * * * * * * * * * * * * * * * * * * * * * * * * * * * * * * * * * * * * * //

dimensions      [0 1 -1 0 0 0 0];

internalField   nonuniform List<vector> 
2475
(
(0.132573 0.00807228 0)
(0.0798416 0.00530035 0)
(0.0537504 0.00187937 0)
(0.0398732 0.000635808 0)
(0.0322396 0.000269527 0)
(0.0279692 0.000143815 0)
(0.0251799 0.000104715 0)
(0.0230464 8.6472e-05 0)
(0.0212947 7.09405e-05 0)
(0.0198255 5.78326e-05 0)
(0.0185672 4.76575e-05 0)
(0.0174778 3.97776e-05 0)
(0.0165143 3.35575e-05 0)
(0.0156611 2.85841e-05 0)
(0.0148879 2.45278e-05 0)
(0.0141943 2.12257e-05 0)
(0.0135523 1.84471e-05 0)
(0.0129732 1.61706e-05 0)
(0.0124255 1.41857e-05 0)
(0.0119328 1.2572e-05 0)
(0.0114548 1.11002e-05 0)
(0.0110303 9.93663e-06 0)
(0.0106042 8.80873e-06 0)
(0.0102362 7.96517e-06 0)
(0.00984784 7.07263e-06 0)
(0.0095295 6.46481e-06 0)
(0.0091663 5.73609e-06 0)
(0.00889481 5.31034e-06 0)
(0.00854356 4.70237e-06 0)
(0.00832075 4.41913e-06 0)
(0.00796448 3.91008e-06 0)
(0.00779906 3.72792e-06 0)
(0.00741169 3.34419e-06 0)
(0.00732392 3.17317e-06 0)
(0.00685982 3.30169e-06 0)
(0.183162 0.016816 0)
(0.161977 0.0150244 0)
(0.139878 0.00827398 0)
(0.117937 0.00415347 0)
(0.0998038 0.00226975 0)
(0.0869978 0.00134945 0)
(0.0780354 0.000894751 0)
(0.0712642 0.000662783 0)
(0.0657912 0.000520669 0)
(0.0612253 0.000419 0)
(0.0573197 0.000342826 0)
(0.0539409 0.000284764 0)
(0.0509543 0.000239433 0)
(0.0483111 0.000203498 0)
(0.0459164 0.000174298 0)
(0.0437694 0.0001506 0)
(0.0417825 0.000130718 0)
(0.0399917 0.000114423 0)
(0.0382983 0.000100291 0)
(0.0367762 8.87493e-05 0)
(0.0352994 7.83293e-05 0)
(0.0339894 6.99995e-05 0)
(0.0326737 6.20576e-05 0)
(0.0315392 5.6002e-05 0)
(0.030341 4.97449e-05 0)
(0.0293605 4.53729e-05 0)
(0.0282411 4.02682e-05 0)
(0.0274058 3.72216e-05 0)
(0.0263245 3.2904e-05 0)
(0.0256399 3.09658e-05 0)
(0.0245454 2.71724e-05 0)
(0.0240375 2.62144e-05 0)
(0.0228521 2.28542e-05 0)
(0.0225804 2.26237e-05 0)
(0.021176 2.13364e-05 0)
(0.190457 0.0169604 0)
(0.190055 0.0186566 0)
(0.183903 0.0130979 0)
(0.171462 0.00861787 0)
(0.156281 0.0059912 0)
(0.142108 0.00420114 0)
(0.130123 0.00296543 0)
(0.120111 0.0021862 0)
(0.111611 0.00169287 0)
(0.104324 0.00135338 0)
(0.0979737 0.00110411 0)
(0.0924101 0.000915495 0)
(0.0874427 0.000768852 0)
(0.0830174 0.000653046 0)
(0.078983 0.000559092 0)
(0.075353 0.000482925 0)
(0.071979 0.00041907 0)
(0.0689329 0.000366709 0)
(0.0660421 0.000321374 0)
(0.0634432 0.00028427 0)
(0.0609134 0.000250889 0)
(0.0586712 0.000224084 0)
(0.056412 0.000198682 0)
(0.0544676 0.000179161 0)
(0.0524066 0.000159175 0)
(0.0507249 0.000145063 0)
(0.0487973 0.000128757 0)
(0.0473645 0.000118933 0)
(0.0455019 0.000105063 0)
(0.0443281 9.89091e-05 0)
(0.0424441 8.64993e-05 0)
(0.0415735 8.38022e-05 0)
(0.0395389 7.2228e-05 0)
(0.0390699 7.25906e-05 0)
(0.0366811 6.56242e-05 0)
(0.190994 0.014343 0)
(0.195831 0.01798 0)
(0.198594 0.0145094 0)
(0.195726 0.0108436 0)
(0.188451 0.00860667 0)
(0.179439 0.00689171 0)
(0.17016 0.00541106 0)
(0.16113 0.00425995 0)
(0.152504 0.00341816 0)
(0.144454 0.00279104 0)
(0.136984 0.00230801 0)
(0.130153 0.00193072 0)
(0.123844 0.0016312 0)
(0.118095 0.00139176 0)
(0.112745 0.00119567 0)
(0.107869 0.00103569 0)
(0.103273 0.000900766 0)
(0.0990945 0.000789673 0)
(0.0950858 0.000693118 0)
(0.0914712 0.000613836 0)
(0.0879196 0.000542365 0)
(0.0847719 0.000484784 0)
(0.081572 0.000430198 0)
(0.0788251 0.000388086 0)
(0.075887 0.000345023 0)
(0.0735013 0.000314479 0)
(0.0707402 0.00027926 0)
(0.0687021 0.000257956 0)
(0.0660256 0.000227865 0)
(0.0643536 0.000214566 0)
(0.0616431 0.000187403 0)
(0.0604017 0.000181824 0)
(0.0574796 0.000155981 0)
(0.0568052 0.000157526 0)
(0.0534012 0.000139447 0)
(0.192127 0.0121957 0)
(0.196164 0.0161299 0)
(0.201146 0.0142539 0)
(0.202861 0.0112983 0)
(0.201061 0.00952079 0)
(0.197328 0.0082603 0)
(0.192597 0.00703741 0)
(0.187223 0.00593187 0)
(0.181299 0.00502395 0)
(0.175096 0.00428431 0)
(0.168723 0.00366637 0)
(0.162435 0.00314838 0)
(0.156217 0.00271247 0)
(0.150277 0.00234902 0)
(0.14449 0.00204118 0)
(0.139068 0.00178415 0)
(0.133789 0.00156284 0)
(0.128914 0.00137818 0)
(0.12412 0.00121544 0)
(0.119765 0.00108076 0)
(0.115396 0.000958104 0)
(0.111518 0.000858823 0)
(0.107501 0.000763952 0)
(0.104065 0.000690566 0)
(0.10032 0.000615027 0)
(0.0973038 0.000561389 0)
(0.0937448 0.000499164 0)
(0.0911492 0.000461543 0)
(0.0876708 0.000408022 0)
(0.0855314 0.000384475 0)
(0.0819918 0.000335808 0)
(0.0803981 0.000326031 0)
(0.0765805 0.000279278 0)
(0.0757057 0.000282344 0)
(0.0712857 0.000246892 0)
(0.193371 0.0108491 0)
(0.196153 0.0143996 0)
(0.200669 0.0136247 0)
(0.203636 0.0111823 0)
(0.204141 0.00957461 0)
(0.203242 0.00861697 0)
(0.201611 0.0077122 0)
(0.199448 0.00681105 0)
(0.196603 0.00601676 0)
(0.193224 0.00534155 0)
(0.189268 0.00474738 0)
(0.185 0.00421821 0)
(0.18034 0.00374244 0)
(0.175595 0.00332307 0)
(0.170605 0.00294812 0)
(0.165726 0.00262219 0)
(0.160684 0.00232986 0)
(0.155909 0.00207946 0)
(0.150983 0.00185196 0)
(0.146453 0.00166074 0)
(0.14172 0.00148244 0)
(0.137512 0.00133697 0)
(0.132989 0.00119518 0)
(0.129145 0.00108526 0)
(0.124805 0.000970074 0)
(0.121358 0.000888475 0)
(0.117143 0.000792135 0)
(0.114132 0.000734276 0)
(0.109945 0.000650409 0)
(0.107438 0.000613937 0)
(0.103131 0.000536943 0)
(0.10125 0.000521747 0)
(0.0965867 0.000447282 0)
(0.095542 0.000452019 0)
(0.090161 0.000392518 0)
(0.194191 0.00995387 0)
(0.196269 0.0128914 0)
(0.199873 0.0128853 0)
(0.202886 0.0109643 0)
(0.204107 0.00940211 0)
(0.204253 0.00854112 0)
(0.203934 0.00784101 0)
(0.203449 0.00711497 0)
(0.202525 0.00644043 0)
(0.201273 0.00586496 0)
(0.199465 0.00535766 0)
(0.197362 0.00489847 0)
(0.194706 0.00446802 0)
(0.191853 0.00407422 0)
(0.188476 0.00370355 0)
(0.185049 0.00336925 0)
(0.181138 0.00305345 0)
(0.177349 0.00277461 0)
(0.173096 0.00250896 0)
(0.169153 0.00228113 0)
(0.164713 0.00205956 0)
(0.160787 0.00187701 0)
(0.156267 0.00169223 0)
(0.152492 0.00154894 0)
(0.14794 0.00139332 0)
(0.144426 0.00128402 0)
(0.139839 0.00115026 0)
(0.136685 0.00107131 0)
(0.132001 0.000952427 0)
(0.129325 0.00090209 0)
(0.124416 0.000791299 0)
(0.122382 0.00077025 0)
(0.117013 0.000662226 0)
(0.115868 0.000668864 0)
(0.109673 0.000579222 0)
(0.194644 0.00928039 0)
(0.196324 0.011571 0)
(0.199138 0.0120278 0)
(0.201893 0.0106682 0)
(0.203335 0.00919907 0)
(0.20385 0.00833933 0)
(0.203917 0.00774568 0)
(0.204034 0.00714432 0)
(0.2039 0.00655059 0)
(0.203716 0.0060389 0)
(0.203113 0.00559712 0)
(0.202445 0.00520856 0)
(0.201271 0.00484171 0)
(0.200054 0.00450596 0)
(0.198243 0.00417989 0)
(0.196452 0.00388305 0)
(0.193996 0.00358929 0)
(0.191678 0.00332651 0)
(0.188631 0.00306175 0)
(0.185893 0.00283243 0)
(0.182347 0.00259567 0)
(0.179334 0.00240031 0)
(0.175389 0.0021901 0)
(0.172258 0.00202866 0)
(0.167996 0.00184209 0)
(0.164904 0.00171398 0)
(0.160364 0.00154676 0)
(0.157465 0.00145165 0)
(0.15263 0.00129811 0)
(0.150093 0.0012366 0)
(0.144871 0.00109015 0)
(0.142901 0.00106471 0)
(0.13709 0.000920133 0)
(0.135965 0.00092937 0)
(0.129232 0.000805966 0)
(0.1949 0.00870987 0)
(0.196309 0.0104538 0)
(0.19849 0.0111102 0)
(0.200907 0.0102712 0)
(0.202399 0.00898975 0)
(0.203126 0.00811973 0)
(0.2033 0.00757116 0)
(0.203593 0.0070642 0)
(0.203672 0.00653401 0)
(0.203895 0.00605802 0)
(0.203752 0.00564616 0)
(0.203769 0.00529839 0)
(0.20333 0.00497356 0)
(0.203092 0.00468498 0)
(0.202273 0.00440108 0)
(0.201699 0.00414956 0)
(0.2004 0.00389243 0)
(0.19943 0.00366775 0)
(0.197582 0.00342862 0)
(0.1962 0.00322612 0)
(0.193774 0.00300122 0)
(0.192017 0.00282066 0)
(0.189022 0.00260885 0)
(0.186978 0.00245223 0)
(0.183445 0.00225287 0)
(0.18124 0.00212313 0)
(0.177196 0.00193475 0)
(0.174987 0.00183539 0)
(0.170429 0.00165473 0)
(0.168399 0.00158978 0)
(0.163267 0.0014118 0)
(0.161639 0.00138636 0)
(0.155781 0.00120751 0)
(0.154835 0.00122086 0)
(0.147992 0.00106513 0)
(0.195096 0.00819029 0)
(0.196295 0.00953176 0)
(0.197982 0.0102145 0)
(0.200042 0.00978684 0)
(0.201471 0.00876187 0)
(0.202356 0.0079147 0)
(0.202586 0.0073743 0)
(0.202947 0.00693621 0)
(0.203042 0.00646807 0)
(0.203409 0.00602419 0)
(0.203378 0.00562477 0)
(0.203663 0.00529556 0)
(0.203465 0.00498961 0)
(0.203677 0.00472797 0)
(0.203283 0.00446737 0)
(0.203381 0.00424721 0)
(0.202712 0.00401646 0)
(0.202634 0.00382645 0)
(0.201595 0.00361383 0)
(0.201281 0.00344547 0)
(0.19978 0.00324281 0)
(0.199191 0.00309209 0)
(0.197154 0.0028947 0)
(0.196291 0.00276137 0)
(0.193668 0.00256678 0)
(0.192577 0.00245351 0)
(0.189334 0.00226016 0)
(0.188108 0.0021719 0)
(0.184214 0.00197758 0)
(0.182992 0.00192067 0)
(0.178388 0.00172202 0)
(0.177355 0.00170365 0)
(0.171934 0.00149987 0)
(0.171321 0.00151946 0)
(0.164917 0.00134019 0)
(0.195327 0.00770837 0)
(0.196353 0.00876845 0)
(0.197657 0.00939436 0)
(0.199385 0.00924764 0)
(0.200668 0.00849706 0)
(0.201653 0.00772359 0)
(0.201929 0.00717984 0)
(0.202345 0.00678368 0)
(0.202403 0.00637394 0)
(0.202832 0.00596997 0)
(0.202797 0.00558212 0)
(0.203191 0.00526328 0)
(0.203025 0.00496406 0)
(0.203413 0.00471717 0)
(0.203128 0.00446566 0)
(0.203521 0.00426278 0)
(0.203081 0.00404351 0)
(0.203455 0.0038753 0)
(0.2028 0.00367772 0)
(0.203115 0.00353558 0)
(0.202163 0.00335 0)
(0.202372 0.00322789 0)
(0.201031 0.00304692 0)
(0.201096 0.00294199 0)
(0.199274 0.00276024 0)
(0.199177 0.00267288 0)
(0.196793 0.00248661 0)
(0.19655 0.00242049 0)
(0.193528 0.00222653 0)
(0.193193 0.00218766 0)
(0.189459 0.00198317 0)
(0.189129 0.00197855 0)
(0.184597 0.00176552 0)
(0.184395 0.00179284 0)
(0.178985 0.00160614 0)
(0.195632 0.00726561 0)
(0.196513 0.00812438 0)
(0.19752 0.00867025 0)
(0.198965 0.00869146 0)
(0.200062 0.00818726 0)
(0.201085 0.00753212 0)
(0.201398 0.00699732 0)
(0.201867 0.00662167 0)
(0.201887 0.00625888 0)
(0.202343 0.0059011 0)
(0.202281 0.0055315 0)
(0.202725 0.00522333 0)
(0.20254 0.00492679 0)
(0.202993 0.00468985 0)
(0.202706 0.00444159 0)
(0.203203 0.00424887 0)
(0.202812 0.00403236 0)
(0.203357 0.00387599 0)
(0.202833 0.00368313 0)
(0.203418 0.00355639 0)
(0.202716 0.00337841 0)
(0.203318 0.00327552 0)
(0.202375 0.00310469 0)
(0.20296 0.00302199 0)
(0.201699 0.00285169 0)
(0.202232 0.00278796 0)
(0.200569 0.00261278 0)
(0.20102 0.00256976 0)
(0.198868 0.00238523 0)
(0.199221 0.00236691 0)
(0.196499 0.00217013 0)
(0.196751 0.0021809 0)
(0.193389 0.00197618 0)
(0.193539 0.00200992 0)
(0.189505 0.00183505 0)
(0.196004 0.00686392 0)
(0.196762 0.0075702 0)
(0.197543 0.00803944 0)
(0.198753 0.0081496 0)
(0.199665 0.00783906 0)
(0.200667 0.00732477 0)
(0.201011 0.00682445 0)
(0.201526 0.00646091 0)
(0.201531 0.00613004 0)
(0.201989 0.00581788 0)
(0.201911 0.00547418 0)
(0.202369 0.00518082 0)
(0.202176 0.00488729 0)
(0.202637 0.00465843 0)
(0.202348 0.00441229 0)
(0.202853 0.0042271 0)
(0.202479 0.00401098 0)
(0.203044 0.00386133 0)
(0.202577 0.00366877 0)
(0.203207 0.00354987 0)
(0.20263 0.00337372 0)
(0.203322 0.00328075 0)
(0.202605 0.00311414 0)
(0.203344 0.00304377 0)
(0.202447 0.00288052 0)
(0.203205 0.00283119 0)
(0.202076 0.00266586 0)
(0.202816 0.00263818 0)
(0.201394 0.00246626 0)
(0.202068 0.00246219 0)
(0.200293 0.00228145 0)
(0.20084 0.00230201 0)
(0.198664 0.00211908 0)
(0.198997 0.00215422 0)
(0.196404 0.00200639 0)
(0.196412 0.00650115 0)
(0.19706 0.00708653 0)
(0.197674 0.00748862 0)
(0.198687 0.00764044 0)
(0.199441 0.0074675 0)
(0.200378 0.0070918 0)
(0.200747 0.00665153 0)
(0.201289 0.00630493 0)
(0.201314 0.00599435 0)
(0.201752 0.00572089 0)
(0.201686 0.00540801 0)
(0.202123 0.00513454 0)
(0.201957 0.00484743 0)
(0.202387 0.00462569 0)
(0.202132 0.00438257 0)
(0.202589 0.0042035 0)
(0.202263 0.00398883 0)
(0.202765 0.00384335 0)
(0.202371 0.00365115 0)
(0.202925 0.00353568 0)
(0.202462 0.00336035 0)
(0.203071 0.00327093 0)
(0.202531 0.00310663 0)
(0.20319 0.00304035 0)
(0.202562 0.00288184 0)
(0.203254 0.00283723 0)
(0.20252 0.00267999 0)
(0.203217 0.00265722 0)
(0.202352 0.00249788 0)
(0.203009 0.00249759 0)
(0.201986 0.0023357 0)
(0.202533 0.00235633 0)
(0.20133 0.00220089 0)
(0.201664 0.00223068 0)
(0.200261 0.00211557 0)
(0.196825 0.00617308 0)
(0.197369 0.00666005 0)
(0.197864 0.00700351 0)
(0.198706 0.00717034 0)
(0.19934 0.00708874 0)
(0.20018 0.00683229 0)
(0.200571 0.00646811 0)
(0.201113 0.00615033 0)
(0.201191 0.00585621 0)
(0.201592 0.00561199 0)
(0.201566 0.0053307 0)
(0.201954 0.00508083 0)
(0.201849 0.00480546 0)
(0.202219 0.00459083 0)
(0.202036 0.00435263 0)
(0.202411 0.00417834 0)
(0.202172 0.00396746 0)
(0.202568 0.0038245 0)
(0.202283 0.00363476 0)
(0.202706 0.00352002 0)
(0.20238 0.0033471 0)
(0.202833 0.00325738 0)
(0.202469 0.00309639 0)
(0.202948 0.00302901 0)
(0.202549 0.00287554 0)
(0.203046 0.00282905 0)
(0.202612 0.00267957 0)
(0.203109 0.00265382 0)
(0.202638 0.00250635 0)
(0.203105 0.00250112 0)
(0.202594 0.00235735 0)
(0.202981 0.00236967 0)
(0.202427 0.00224045 0)
(0.20266 0.00225976 0)
(0.202038 0.00217392 0)
(0.197222 0.00587617 0)
(0.197666 0.00628123 0)
(0.19808 0.00657282 0)
(0.198769 0.00673892 0)
(0.199317 0.00671539 0)
(0.200045 0.00655197 0)
(0.200453 0.00626757 0)
(0.200968 0.00599056 0)
(0.201115 0.00571638 0)
(0.201471 0.00549373 0)
(0.201506 0.00524147 0)
(0.201831 0.00501622 0)
(0.201803 0.00475806 0)
(0.202101 0.00455165 0)
(0.202011 0.00432082 0)
(0.202293 0.00415026 0)
(0.202159 0.0039455 0)
(0.202442 0.00380404 0)
(0.202278 0.00361915 0)
(0.202566 0.00350362 0)
(0.202379 0.00333517 0)
(0.202674 0.00324312 0)
(0.202471 0.00308713 0)
(0.202771 0.0030161 0)
(0.202559 0.00286883 0)
(0.202857 0.00281731 0)
(0.202641 0.00267596 0)
(0.20293 0.00264342 0)
(0.202713 0.00250718 0)
(0.202978 0.00249268 0)
(0.202767 0.00236493 0)
(0.202979 0.00236496 0)
(0.202775 0.00225726 0)
(0.202901 0.00226445 0)
(0.202681 0.00220015 0)
(0.197594 0.00560877 0)
(0.197945 0.00594379 0)
(0.198299 0.0061886 0)
(0.198857 0.00634381 0)
(0.199342 0.00635548 0)
(0.199957 0.0062597 0)
(0.200373 0.00604899 0)
(0.200844 0.00582014 0)
(0.201057 0.00557292 0)
(0.201372 0.00536847 0)
(0.201469 0.00514141 0)
(0.201734 0.00493926 0)
(0.20178 0.00470213 0)
(0.202013 0.00450594 0)
(0.202009 0.00428511 0)
(0.202214 0.00411799 0)
(0.202176 0.00392103 0)
(0.202366 0.00378074 0)
(0.202306 0.00360247 0)
(0.202488 0.00348574 0)
(0.202415 0.00332321 0)
(0.202589 0.00322819 0)
(0.202509 0.00307833 0)
(0.202678 0.00300294 0)
(0.202596 0.00286261 0)
(0.202755 0.00280526 0)
(0.202675 0.00267227 0)
(0.202823 0.00263203 0)
(0.202748 0.00250641 0)
(0.202876 0.00248177 0)
(0.202813 0.00236792 0)
(0.20291 0.00235547 0)
(0.202858 0.00226446 0)
(0.202914 0.00226058 0)
(0.202855 0.0022107 0)
(0.197937 0.00536985 0)
(0.198206 0.00564345 0)
(0.198511 0.00584487 0)
(0.198962 0.00598241 0)
(0.199395 0.00601314 0)
(0.199912 0.00596408 0)
(0.200321 0.00581556 0)
(0.200746 0.00563633 0)
(0.201006 0.00542261 0)
(0.20129 0.00523714 0)
(0.201438 0.00503228 0)
(0.201658 0.00485045 0)
(0.201759 0.00463578 0)
(0.201946 0.00445192 0)
(0.202007 0.00424358 0)
(0.202161 0.00408059 0)
(0.202192 0.00389249 0)
(0.202323 0.00375366 0)
(0.202335 0.00358305 0)
(0.202452 0.00346547 0)
(0.202452 0.00330968 0)
(0.202558 0.00321192 0)
(0.202552 0.0030687 0)
(0.202647 0.00298914 0)
(0.202639 0.00285606 0)
(0.202725 0.00279307 0)
(0.202716 0.00266847 0)
(0.202791 0.0026208 0)
(0.202783 0.00250531 0)
(0.202845 0.00247117 0)
(0.202842 0.00236954 0)
(0.202885 0.00234616 0)
(0.202883 0.00226826 0)
(0.202909 0.00225545 0)
(0.202897 0.00221529 0)
(0.198249 0.00515794 0)
(0.198448 0.0053768 0)
(0.198709 0.00553713 0)
(0.199078 0.00565256 0)
(0.199465 0.00569054 0)
(0.199905 0.00567196 0)
(0.200294 0.00557248 0)
(0.200677 0.00543931 0)
(0.20096 0.00526278 0)
(0.201226 0.00509903 0)
(0.201406 0.00491528 0)
(0.201601 0.00475107 0)
(0.201735 0.00455835 0)
(0.201896 0.00438823 0)
(0.201998 0.0041945 0)
(0.202127 0.004037 0)
(0.202199 0.00385869 0)
(0.202303 0.00372193 0)
(0.202355 0.00355968 0)
(0.202442 0.00344193 0)
(0.202482 0.00329344 0)
(0.202557 0.0031935 0)
(0.202588 0.00305727 0)
(0.202653 0.00297396 0)
(0.202679 0.00284832 0)
(0.202735 0.00278009 0)
(0.202757 0.00266392 0)
(0.202804 0.00260933 0)
(0.202823 0.00250358 0)
(0.202861 0.00246096 0)
(0.202878 0.00237025 0)
(0.202903 0.00233789 0)
(0.202915 0.00227053 0)
(0.202931 0.00225099 0)
(0.202931 0.00221783 0)
(0.198531 0.0049698 0)
(0.198669 0.00514022 0)
(0.198889 0.00526206 0)
(0.199198 0.00535303 0)
(0.199546 0.00539002 0)
(0.199929 0.00538945 0)
(0.200291 0.00532664 0)
(0.200638 0.00523272 0)
(0.200924 0.00509351 0)
(0.201177 0.0049539 0)
(0.201375 0.00479172 0)
(0.201559 0.00464332 0)
(0.20171 0.00447103 0)
(0.201861 0.00431491 0)
(0.201983 0.0041372 0)
(0.202105 0.00398665 0)
(0.202199 0.0038191 0)
(0.202296 0.00368515 0)
(0.202369 0.00353179 0)
(0.202447 0.00341453 0)
(0.202506 0.00327387 0)
(0.202571 0.00317233 0)
(0.202619 0.00304342 0)
(0.202676 0.00295683 0)
(0.202716 0.00283882 0)
(0.202764 0.0027658 0)
(0.202798 0.00265799 0)
(0.202838 0.00259718 0)
(0.202868 0.00250063 0)
(0.202898 0.00245079 0)
(0.202924 0.00236967 0)
(0.202945 0.00233034 0)
(0.202961 0.00227147 0)
(0.202974 0.00224718 0)
(0.202979 0.00221926 0)
(0.198784 0.00479444 0)
(0.198866 0.00492402 0)
(0.199048 0.00501198 0)
(0.199316 0.00507879 0)
(0.199632 0.00511008 0)
(0.199975 0.00511865 0)
(0.200309 0.00508222 0)
(0.200625 0.00501973 0)
(0.200902 0.00491514 0)
(0.201144 0.00480076 0)
(0.201347 0.00466132 0)
(0.201528 0.00452825 0)
(0.201686 0.00437502 0)
(0.201835 0.00423243 0)
(0.201967 0.00407139 0)
(0.20209 0.00392913 0)
(0.202197 0.00377334 0)
(0.202295 0.0036431 0)
(0.20238 0.00349914 0)
(0.202459 0.0033831 0)
(0.202527 0.00325065 0)
(0.202593 0.00314821 0)
(0.20265 0.00302686 0)
(0.202705 0.0029376 0)
(0.202753 0.00282714 0)
(0.2028 0.00275009 0)
(0.202841 0.00265021 0)
(0.20288 0.00258422 0)
(0.202916 0.00249598 0)
(0.202945 0.00244047 0)
(0.202975 0.00236743 0)
(0.202995 0.00232319 0)
(0.203017 0.00227094 0)
(0.203028 0.00224361 0)
(0.20304 0.00221959 0)
(0.19901 0.00461773 0)
(0.199038 0.00471546 0)
(0.199184 0.00477643 0)
(0.199425 0.00482216 0)
(0.199719 0.00484613 0)
(0.200034 0.0048582 0)
(0.200344 0.0048401 0)
(0.200634 0.00480167 0)
(0.200894 0.00472731 0)
(0.201124 0.00463761 0)
(0.201325 0.0045218 0)
(0.201503 0.00440462 0)
(0.201665 0.00426974 0)
(0.201813 0.00414022 0)
(0.201952 0.00399587 0)
(0.202078 0.00386305 0)
(0.202194 0.00371995 0)
(0.202296 0.00359466 0)
(0.202389 0.00346061 0)
(0.202471 0.00334681 0)
(0.202548 0.00322287 0)
(0.202615 0.00312061 0)
(0.202679 0.00300683 0)
(0.202736 0.00291601 0)
(0.20279 0.00281269 0)
(0.202838 0.00273282 0)
(0.202885 0.00264008 0)
(0.202924 0.00257038 0)
(0.202966 0.00248924 0)
(0.202995 0.00242987 0)
(0.20303 0.0023633 0)
(0.20305 0.00231614 0)
(0.203077 0.00226885 0)
(0.203087 0.00223994 0)
(0.203106 0.00221877 0)
(0.199213 0.00443438 0)
(0.199185 0.00450906 0)
(0.1993 0.00455082 0)
(0.199521 0.00458034 0)
(0.199801 0.00459744 0)
(0.2001 0.00460971 0)
(0.200391 0.00460363 0)
(0.200659 0.00458263 0)
(0.200901 0.00453308 0)
(0.201116 0.00446585 0)
(0.201309 0.00437331 0)
(0.201483 0.0042727 0)
(0.201645 0.00415579 0)
(0.201794 0.00403909 0)
(0.201937 0.00391083 0)
(0.202066 0.0037882 0)
(0.202189 0.00365816 0)
(0.202296 0.00353917 0)
(0.202396 0.00341527 0)
(0.202482 0.00330502 0)
(0.202565 0.00318955 0)
(0.202636 0.00308886 0)
(0.202706 0.00298237 0)
(0.202765 0.00289148 0)
(0.202826 0.00279465 0)
(0.202875 0.00271347 0)
(0.202928 0.00262691 0)
(0.202967 0.00255519 0)
(0.203014 0.00247989 0)
(0.203044 0.00241855 0)
(0.203085 0.002357 0)
(0.203104 0.00230863 0)
(0.203138 0.00226505 0)
(0.203147 0.00223564 0)
(0.203174 0.00221661 0)
(0.199396 0.0042431 0)
(0.199312 0.00430228 0)
(0.199397 0.00433217 0)
(0.199603 0.00435103 0)
(0.199877 0.00436305 0)
(0.200166 0.00437416 0)
(0.200445 0.00437551 0)
(0.200695 0.00436649 0)
(0.200919 0.00433618 0)
(0.201116 0.00428826 0)
(0.201299 0.00421728 0)
(0.201465 0.00413354 0)
(0.201625 0.00403422 0)
(0.201774 0.00393051 0)
(0.20192 0.00381742 0)
(0.202051 0.00370551 0)
(0.20218 0.00358832 0)
(0.202291 0.00347695 0)
(0.202398 0.00336316 0)
(0.202488 0.00325791 0)
(0.202578 0.00315069 0)
(0.202652 0.0030531 0)
(0.202728 0.00295348 0)
(0.202789 0.00286406 0)
(0.202856 0.00277307 0)
(0.202906 0.00269207 0)
(0.202966 0.0026107 0)
(0.203005 0.00253857 0)
(0.203059 0.00246795 0)
(0.203089 0.00240623 0)
(0.203137 0.00234863 0)
(0.203156 0.00230031 0)
(0.203196 0.00225956 0)
(0.203205 0.00223042 0)
(0.203239 0.002213 0)
(0.199563 0.00404091 0)
(0.199424 0.00409062 0)
(0.19948 0.00411461 0)
(0.199674 0.00412807 0)
(0.199944 0.0041375 0)
(0.200229 0.0041477 0)
(0.2005 0.00415374 0)
(0.200736 0.00415298 0)
(0.200944 0.00413719 0)
(0.201124 0.00410542 0)
(0.201294 0.00405365 0)
(0.20145 0.00398667 0)
(0.201606 0.00390454 0)
(0.201752 0.00381436 0)
(0.201899 0.00371573 0)
(0.202032 0.00361499 0)
(0.202165 0.00351021 0)
(0.20228 0.00340754 0)
(0.202394 0.00330374 0)
(0.202488 0.00320482 0)
(0.202584 0.00310573 0)
(0.20266 0.00301261 0)
(0.202743 0.00291964 0)
(0.202806 0.00283311 0)
(0.202879 0.00274752 0)
(0.202931 0.00266811 0)
(0.202996 0.00259118 0)
(0.203037 0.00252006 0)
(0.203097 0.00245336 0)
(0.203127 0.00239254 0)
(0.203182 0.00233825 0)
(0.203201 0.00229095 0)
(0.203248 0.0022524 0)
(0.203257 0.00222413 0)
(0.203299 0.0022079 0)
(0.199717 0.00382975 0)
(0.199526 0.00387378 0)
(0.199553 0.00389553 0)
(0.199736 0.00390721 0)
(0.200005 0.00391614 0)
(0.200288 0.0039263 0)
(0.200555 0.00393557 0)
(0.20078 0.00394072 0)
(0.200974 0.00393578 0)
(0.201138 0.00391732 0)
(0.201293 0.00388214 0)
(0.201437 0.0038312 0)
(0.201586 0.00376564 0)
(0.201727 0.00368947 0)
(0.201875 0.00360491 0)
(0.202009 0.00351575 0)
(0.202146 0.00342297 0)
(0.202263 0.00332981 0)
(0.202382 0.00323596 0)
(0.202479 0.00314452 0)
(0.202582 0.00305361 0)
(0.202661 0.00296628 0)
(0.20275 0.00287994 0)
(0.202815 0.00279761 0)
(0.202894 0.00271716 0)
(0.202946 0.00264064 0)
(0.203018 0.00256767 0)
(0.203059 0.00249861 0)
(0.203126 0.00243546 0)
(0.203157 0.00237652 0)
(0.203218 0.00232524 0)
(0.203237 0.00227978 0)
(0.203293 0.00224321 0)
(0.2033 0.00221615 0)
(0.203352 0.00220115 0)
(0.199859 0.00361902 0)
(0.19962 0.00365851 0)
(0.19962 0.00367893 0)
(0.199792 0.00369009 0)
(0.200059 0.00369921 0)
(0.200343 0.00370966 0)
(0.200607 0.00372112 0)
(0.200824 0.00373047 0)
(0.201007 0.00373353 0)
(0.201156 0.00372579 0)
(0.201297 0.00370454 0)
(0.201427 0.00366833 0)
(0.201568 0.00361835 0)
(0.201702 0.00355636 0)
(0.201848 0.00348556 0)
(0.20198 0.00340835 0)
(0.20212 0.00332725 0)
(0.202239 0.00324413 0)
(0.202364 0.00316015 0)
(0.202463 0.00307702 0)
(0.202571 0.00299442 0)
(0.202652 0.00291393 0)
(0.202748 0.0028344 0)
(0.202814 0.00275733 0)
(0.202899 0.00268213 0)
(0.202952 0.00260935 0)
(0.203031 0.00254043 0)
(0.203072 0.00247394 0)
(0.203146 0.00241427 0)
(0.203177 0.00235765 0)
(0.203246 0.00230938 0)
(0.203265 0.00226593 0)
(0.203328 0.00223156 0)
(0.203335 0.00220548 0)
(0.203395 0.00219203 0)
(0.199989 0.00341804 0)
(0.199704 0.00345256 0)
(0.19968 0.0034708 0)
(0.199841 0.0034808 0)
(0.200107 0.00348939 0)
(0.200392 0.00349952 0)
(0.200656 0.00351193 0)
(0.200868 0.00352388 0)
(0.201042 0.0035325 0)
(0.201177 0.003533 0)
(0.201305 0.00352303 0)
(0.20142 0.00349971 0)
(0.201551 0.00346387 0)
(0.201676 0.00341559 0)
(0.201819 0.00335816 0)
(0.201948 0.003293 0)
(0.20209 0.00322341 0)
(0.202209 0.00315055 0)
(0.202339 0.00307647 0)
(0.20244 0.00300208 0)
(0.202553 0.00292803 0)
(0.202636 0.00285499 0)
(0.202736 0.0027827 0)
(0.202803 0.00271158 0)
(0.202895 0.00264209 0)
(0.202948 0.00257362 0)
(0.203033 0.00250916 0)
(0.203075 0.00244584 0)
(0.203155 0.00238977 0)
(0.203187 0.00233593 0)
(0.203263 0.00229081 0)
(0.203282 0.00224954 0)
(0.203352 0.00221749 0)
(0.203359 0.00219248 0)
(0.203427 0.00218031 0)
(0.200105 0.0032287 0)
(0.199777 0.00325885 0)
(0.199729 0.00327436 0)
(0.19988 0.00328242 0)
(0.200147 0.00328954 0)
(0.200433 0.00329858 0)
(0.2007 0.00331081 0)
(0.200909 0.00332403 0)
(0.201077 0.00333611 0)
(0.2012 0.00334266 0)
(0.201316 0.00334138 0)
(0.201416 0.00332889 0)
(0.201536 0.00330534 0)
(0.201651 0.00326988 0)
(0.201788 0.00322516 0)
(0.201913 0.00317207 0)
(0.202056 0.00311385 0)
(0.202174 0.00305163 0)
(0.202307 0.00298752 0)
(0.202409 0.00292249 0)
(0.202528 0.00285712 0)
(0.202611 0.00279226 0)
(0.202717 0.00272739 0)
(0.202784 0.00266307 0)
(0.20288 0.00259943 0)
(0.202935 0.00253613 0)
(0.203025 0.002476 0)
(0.203068 0.00241675 0)
(0.203155 0.00236391 0)
(0.203187 0.00231348 0)
(0.203269 0.00227106 0)
(0.203288 0.00223261 0)
(0.203366 0.00220219 0)
(0.203373 0.00217913 0)
(0.203449 0.00216717 0)
(0.200211 0.00303132 0)
(0.19984 0.00305986 0)
(0.199768 0.00307418 0)
(0.199909 0.00308134 0)
(0.200177 0.00308758 0)
(0.200467 0.00309595 0)
(0.200738 0.00310785 0)
(0.200946 0.00312174 0)
(0.201111 0.00313591 0)
(0.201224 0.00314655 0)
(0.201329 0.00315149 0)
(0.201416 0.00314738 0)
(0.201524 0.00313386 0)
(0.201628 0.00310965 0)
(0.201759 0.0030766 0)
(0.201878 0.00303529 0)
(0.202019 0.00298844 0)
(0.202136 0.00293731 0)
(0.202271 0.00288369 0)
(0.202374 0.0028288 0)
(0.202496 0.00277291 0)
(0.20258 0.00271708 0)
(0.20269 0.00266055 0)
(0.202758 0.00260401 0)
(0.202858 0.00254741 0)
(0.202912 0.00249052 0)
(0.203008 0.00243599 0)
(0.203051 0.0023819 0)
(0.203144 0.00233346 0)
(0.203177 0.002287 0)
(0.203266 0.0022479 0)
(0.203285 0.00221255 0)
(0.20337 0.00218423 0)
(0.203376 0.00216318 0)
(0.203461 0.00215209 0)
(0.200455 0.00255281 0)
(0.199976 0.00257921 0)
(0.199843 0.00259728 0)
(0.199959 0.00261093 0)
(0.200229 0.00262425 0)
(0.200528 0.00263871 0)
(0.20081 0.00265565 0)
(0.20102 0.00267365 0)
(0.201179 0.00269226 0)
(0.201275 0.00270842 0)
(0.201358 0.00272141 0)
(0.201415 0.00272812 0)
(0.201498 0.00272906 0)
(0.201575 0.00272203 0)
(0.201689 0.00270918 0)
(0.201791 0.00268933 0)
(0.201928 0.00266563 0)
(0.202039 0.00263725 0)
(0.202179 0.0026071 0)
(0.20228 0.00257405 0)
(0.20241 0.00254014 0)
(0.202494 0.00250389 0)
(0.202612 0.002467 0)
(0.202678 0.00242762 0)
(0.202787 0.00238862 0)
(0.20284 0.00234711 0)
(0.202946 0.00230842 0)
(0.20299 0.00226776 0)
(0.203097 0.00223284 0)
(0.20313 0.00219716 0)
(0.203235 0.00216838 0)
(0.203252 0.00214072 0)
(0.203353 0.00212 0)
(0.203357 0.00210324 0)
(0.20346 0.00209727 0)
(0.200501 0.00189352 0)
(0.199977 0.0019185 0)
(0.199815 0.00194279 0)
(0.199916 0.00196676 0)
(0.20018 0.00199124 0)
(0.200475 0.00201605 0)
(0.200754 0.00204161 0)
(0.200955 0.00206693 0)
(0.201104 0.00209225 0)
(0.201179 0.0021159 0)
(0.20124 0.00213841 0)
(0.20127 0.00215769 0)
(0.201328 0.00217505 0)
(0.201377 0.00218809 0)
(0.201471 0.00219917 0)
(0.201553 0.00220563 0)
(0.201679 0.00221077 0)
(0.201776 0.0022115 0)
(0.201911 0.00221148 0)
(0.202003 0.00220702 0)
(0.20213 0.00220172 0)
(0.202204 0.00219153 0)
(0.202322 0.00218049 0)
(0.20238 0.00216442 0)
(0.202492 0.00214886 0)
(0.20254 0.00212872 0)
(0.202655 0.00211165 0)
(0.202696 0.0020902 0)
(0.202815 0.00207378 0)
(0.202847 0.00205311 0)
(0.202965 0.00203801 0)
(0.202981 0.00202055 0)
(0.203097 0.00200968 0)
(0.203101 0.00199885 0)
(0.203223 0.0019988 0)
(0.200417 0.00135913 0)
(0.19989 0.00138478 0)
(0.199724 0.00141307 0)
(0.199818 0.0014432 0)
(0.200074 0.00147451 0)
(0.200357 0.00150617 0)
(0.200624 0.00153789 0)
(0.200808 0.00156878 0)
(0.200942 0.00159913 0)
(0.200998 0.00162803 0)
(0.201044 0.00165659 0)
(0.201055 0.00168361 0)
(0.201098 0.00171099 0)
(0.201128 0.00173677 0)
(0.201209 0.00176323 0)
(0.201274 0.00178731 0)
(0.201389 0.0018116 0)
(0.20147 0.00183222 0)
(0.201595 0.00185211 0)
(0.201669 0.00186727 0)
(0.201786 0.00188113 0)
(0.201843 0.00189009 0)
(0.201953 0.00189797 0)
(0.201997 0.0019013 0)
(0.202108 0.00190463 0)
(0.202147 0.00190371 0)
(0.202265 0.00190487 0)
(0.2023 0.00190154 0)
(0.202424 0.0019012 0)
(0.20245 0.00189545 0)
(0.202575 0.00189262 0)
(0.202588 0.00188604 0)
(0.202714 0.00188396 0)
(0.202718 0.00187994 0)
(0.202855 0.00188437 0)
(0.200219 0.000842471 0)
(0.199727 0.000881183 0)
(0.199582 0.000929295 0)
(0.199679 0.000981578 0)
(0.199929 0.00103375 0)
(0.200196 0.00108266 0)
(0.200445 0.00112724 0)
(0.200606 0.00116707 0)
(0.20072 0.00120361 0)
(0.200756 0.00123758 0)
(0.20079 0.00127155 0)
(0.200789 0.00130555 0)
(0.200828 0.00134193 0)
(0.20085 0.00137894 0)
(0.200927 0.00141841 0)
(0.200979 0.00145671 0)
(0.201082 0.0014954 0)
(0.201144 0.00153001 0)
(0.201253 0.0015629 0)
(0.201306 0.00159031 0)
(0.201412 0.0016158 0)
(0.201453 0.00163663 0)
(0.201556 0.00165665 0)
(0.201588 0.00167301 0)
(0.201697 0.00168947 0)
(0.201727 0.00170174 0)
(0.201846 0.0017148 0)
(0.201873 0.00172254 0)
(0.201998 0.00173137 0)
(0.202016 0.00173437 0)
(0.202145 0.00173817 0)
(0.202152 0.00173827 0)
(0.202287 0.00174009 0)
(0.202289 0.00174048 0)
(0.202437 0.00174435 0)
(0.200161 -0.00011582 0)
(0.199861 -3.34258e-05 0)
(0.199794 7.89037e-05 0)
(0.199874 0.000198128 0)
(0.200045 0.00030771 0)
(0.200208 0.000399103 0)
(0.200356 0.000471832 0)
(0.200436 0.000529572 0)
(0.200495 0.000579292 0)
(0.200503 0.000626538 0)
(0.200529 0.000676941 0)
(0.200531 0.000731507 0)
(0.200575 0.000791799 0)
(0.2006 0.000854396 0)
(0.200672 0.000919256 0)
(0.20071 0.00098147 0)
(0.200792 0.0010421 0)
(0.200827 0.00109692 0)
(0.200911 0.00114908 0)
(0.200939 0.00119543 0)