/*--------------------------------*- C++ -*----------------------------------*\
| =========                 |                                                 |
| \\      /  F ield         | OpenFOAM: The Open Source CFD Toolbox           |
|  \\    /   O peration     | Version:  5.x                                   |
|   \\  /    A nd           | Web:      www.OpenFOAM.org                      |
|    \\/     M anipulation  |                                                 |
\*---------------------------------------------------------------------------*/
FoamFile
{
    version     2.0;
    format      ascii;
    class       volScalarField;
    location    "0.3";
    object      p;
}
// * * * * * * * * * * * * * * * * * * * * * * * * * * * * * * * * * * * * * //

dimensions      [0 2 -2 0 0 0 0];

internalField   nonuniform List<scalar> 
21600
(
0.014971631
0.0097279926
0.0043026185
0.0009141914
-0.00022550192
-9.1505739e-05
0.00031869735
0.00061553762
0.00076223567
0.00082009295
0.00084230246
0.00085423764
0.00086361358
0.00087134589
0.00087697151
0.00088029446
0.00088150691
0.00088096919
0.00087904163
0.00087601737
0.00087211581
0.00086749773
0.00086228284
0.00085656296
0.00085041113
0.00084388685
0.00083703958
0.00082991069
0.00082253504
0.00081494201
0.00080715651
0.00079919955
0.000791089
0.00078283993
0.00077446528
0.000765976
0.00075738161
0.00074869022
0.00073990901
0.00073104403
0.00072210065
0.00071308336
0.00070399621
0.00069484261
0.00068562576
0.00067634832
0.00066701281
0.00065762123
0.00064817557
0.00063867747
0.00062912865
0.00061953053
0.00060988465
0.00060019221
0.00059045463
0.0005806731
0.00057084915
0.00056098403
0.00055107935
0.00054113644
0.00053115709
0.00052114288
0.00051109588
0.00050101796
0.00049091153
0.00048077879
0.00047062258
0.00046044556
0.0004502511
0.00044004227
0.00042982295
0.0004195968
0.00040936836
0.00039914186
0.00038892251
0.00037871517
0.00036852582
0.00035836005
0.0003482246
0.00033812574
0.00032807103
0.00031806747
0.00030812345
0.00029824672
0.00028844646
0.00027873106
0.00026911054
0.00025959395
0.00025019201
0.00024091436
0.00023177235
0.000222776
0.0002139374
0.0002052668
0.00019677656
0.00018847718
0.00018038102
0.00017249851
0.00016484186
0.00015742105
0.0001502478
0.00014333159
0.00013668346
0.00013031222
0.00012422779
0.00011843808
0.00011295126
0.00010777369
0.0001029112
9.8367905e-05
9.4146642e-05
9.0248826e-05
8.6673913e-05
8.3420249e-05
8.0483732e-05
7.7859452e-05
7.5539623e-05
7.3515877e-05
7.1776569e-05
7.0309595e-05
6.9099255e-05
6.8129616e-05
6.7380918e-05
6.6833475e-05
6.6463738e-05
6.6248648e-05
6.6161468e-05
6.6176382e-05
6.6264523e-05
6.6398304e-05
6.6548402e-05
6.6687104e-05
6.6787215e-05
6.6823533e-05
6.6774601e-05
6.6621163e-05
6.6351363e-05
6.5955187e-05
6.5433286e-05
6.4786491e-05
6.4028168e-05
6.3168579e-05
6.2230537e-05
6.1229259e-05
6.0191047e-05
5.9130028e-05
5.8069321e-05
5.7016726e-05
5.5987531e-05
5.4980852e-05
5.400296e-05
5.3045167e-05
5.2106928e-05
5.1174924e-05
5.0246041e-05
4.9305877e-05
4.8353022e-05
4.7374464e-05
4.6373269e-05
4.53385e-05
4.4278476e-05
4.3183554e-05
4.2066448e-05
4.0917404e-05
3.9752054e-05
3.8559336e-05
3.7356572e-05
3.6130768e-05
3.490038e-05
3.365022e-05
3.240006e-05
3.113239e-05
2.9868836e-05
2.8589267e-05
2.7317768e-05
2.603134e-05
2.4756973e-05
2.3468663e-05
2.2196734e-05
2.0912052e-05
1.9648702e-05
1.837435e-05
1.712719e-05
1.5871697e-05
1.4650045e-05
1.3424314e-05
1.2238966e-05
1.1056133e-05
9.9195115e-06
8.7933457e-06
7.7213286e-06
6.6638588e-06
5.6766786e-06
4.701137e-06
3.8175023e-06
2.9465442e-06
2.1843367e-06
1.4420504e-06
8.3233075e-07
2.1005691e-07
0.013724361
0.009533738
0.004438323
0.0011177392
-6.9349357e-05
5.390936e-06
0.00038014028
0.00065571692
0.00079007414
0.00084130005
0.00085986618
0.00086945481
0.00087702675
0.0008832637
0.00088763578
0.00088990726
0.00089023269
0.00088893934
0.0008863612
0.00088277133
0.00087837393
0.00087331806
0.00086771425
0.00086164697
0.00085518329
0.00084837779
0.00084127587
0.00083391547
0.0008263286
0.00081854222
0.00081057916
0.00080245868
0.00079419713
0.00078580826
0.00077730387
0.00076869391
0.00075998703
0.00075119057
0.00074231104
0.00073335389
0.00072432394
0.0007152252
0.00070606131
0.00069683529
0.00068754999
0.00067820778
0.00066881087
0.00065936102
0.00064986
0.00064030923
0.00063071024
0.00062106426
0.00061137269
0.00060163658
0.00059185721
0.00058203564
0.00057217329
0.00056227131
0.0005523312
0.00054235422
0.00053234206
0.00052229621
0.00051221869
0.00050211129
0.00049197636
0.00048181603
0.00047163311
0.00046143019
0.00045121059
0.00044097734
0.00043073428
0.00042048503
0.00041023408
0.00039998564
0.00038974487
0.00037951663
0.00036930684
0.00035912108
0.00034896604
0.00033884801
0.00032877448
0.00031875247
0.00030879032
0.00029889578
0.000289078
0.00027934538
0.00026970789
0.0002601746
0.0002507562
0.00024146231
0.00023230429
0.00022329216
0.00021443797
0.000205752
0.00019724657
0.00018893221
0.00018082126
0.00017292415
0.00016525309
0.00015781806
0.00015063079
0.00014370075
0.00013703898
0.00013065432
0.00012455665
0.00011875393
0.0001132543
0.00010806417
0.00010318934
9.8633977e-05
9.4400889e-05
9.0491545e-05
8.6905375e-05
8.3640772e-05
8.0693612e-05
7.8059028e-05
7.5729219e-05
7.3695851e-05
7.1947276e-05
7.0471416e-05
6.9252572e-05
6.8274831e-05
6.7518439e-05
6.6963723e-05
6.6587138e-05
6.6365635e-05
6.6272487e-05
6.6281866e-05
6.6364929e-05
6.6494054e-05
6.6639951e-05
6.6774837e-05
6.6871556e-05
6.6904796e-05
6.6853139e-05
6.6697184e-05
6.642511e-05
6.6026734e-05
6.5502747e-05
6.485382e-05
6.4093365e-05
6.3231524e-05
6.2291166e-05
6.1287452e-05
6.0246733e-05
5.918316e-05
5.8119871e-05
5.7064754e-05
5.6033063e-05
5.5024053e-05
5.4043899e-05
5.3084068e-05
5.2143877e-05
5.1210148e-05
5.027962e-05
4.9337993e-05
4.838374e-05
4.74039e-05
4.6401478e-05
4.5365539e-05
4.4304391e-05
4.3208376e-05
4.2090214e-05
4.0940145e-05
3.9773794e-05
3.8580127e-05
3.737642e-05
3.6149748e-05
3.4918485e-05
3.3667541e-05
3.2416576e-05
3.1148201e-05
2.9883922e-05
2.8603725e-05
2.7331577e-05
2.60446e-05
2.4769658e-05
2.3480874e-05
2.2208434e-05
2.0923352e-05
1.9659548e-05
1.8384863e-05
1.7137297e-05
1.5881541e-05
1.465951e-05
1.3433612e-05
1.2247885e-05
1.1065006e-05
9.9280237e-06
8.8018625e-06
7.7296715e-06
6.6720465e-06
5.6850723e-06
4.7092247e-06
3.8259181e-06
2.9549306e-06
2.1929769e-06
1.4508379e-06
8.4285681e-07
2.1998769e-07
0.012728315
0.0093717451
0.0047035983
0.001454429
0.00016014377
0.00012894584
0.00044903237
0.00070159277
0.00082403691
0.00086748494
0.00088080915
0.00088682671
0.00089178746
0.00089597688
0.00089869572
0.00089962729
0.00089886464
0.00089667992
0.0008933616
0.00088914817
0.00088421852
0.00087870323
0.00087269911
0.00086628019
0.00085950541
0.00085242299
0.00084507317
0.00083748971
0.00082970122
0.00082173179
0.00081360191
0.00080532883
0.00079692723
0.00078840943
0.000779786
0.00077106585
0.0007622567
0.00075336511
0.00074439689
0.00073535687
0.00072624936
0.00071707788
0.00070784564
0.00069855529
0.00068920935
0.00067980988
0.00067035884
0.00066085773
0.0006513081
0.00064171117
0.0006320683
0.00062238055
0.00061264915
0.00060287504
0.00059305936
0.00058320307
0.00057330745
0.00056337358
0.00055340288
0.00054339649
0.00053335605
0.00052328297
0.0005131792
0.00050304647
0.00049288708
0.0004827031
0.00047249728
0.00046227218
0.00045203106
0.00044177692
0.00043151356
0.00042124455
0.00041097438
0.00040070719
0.00039044813
0.00038020202
0.00036997478
0.00035977193
0.00034960017
0.00033946573
0.00032937612
0.00031933831
0.00030936065
0.00029945085
0.00028961806
0.00027987064
0.0002702186
0.00026067095
0.00025123839
0.00024193054
0.00023275873
0.00022373298
0.00021486535
0.00020616609
0.00019764755
0.00018932023
0.00018119648
0.00017328673
0.00016560319
0.00015815585
0.00015095642
0.00014401441
0.00013734082
0.00013094453
0.0001248354
0.00011902143
0.00011351075
0.0001083098
0.00010342435
9.8858654e-05
9.4615454e-05
9.0696297e-05
8.7100565e-05
8.3826726e-05
8.0870603e-05
7.8227402e-05
7.5889277e-05
7.3847961e-05
7.2091764e-05
7.0608673e-05
6.9382947e-05
6.8398734e-05
6.7636235e-05
6.7075834e-05
6.6693936e-05
6.6467542e-05
6.6369876e-05
6.6375141e-05
6.6454457e-05
6.6580193e-05
6.6723046e-05
6.6855163e-05
6.6949407e-05
6.6980327e-05
6.6926564e-05
6.6768508e-05
6.6494451e-05
6.6093956e-05
6.5567881e-05
6.4916637e-05
6.4153859e-05
6.3289454e-05
6.2346553e-05
6.1340126e-05
6.0296783e-05
5.923055e-05
5.8164761e-05
5.7107242e-05
5.6073343e-05
5.5062315e-05
5.4080324e-05
5.3118869e-05
5.2177187e-05
5.1242133e-05
5.031037e-05
4.9367583e-05
4.8412244e-05
4.7431293e-05
4.6427856e-05
4.5390798e-05
4.432867e-05
4.3231533e-05
4.2112427e-05
4.0961266e-05
3.9794026e-05
3.8599332e-05
3.7394803e-05
3.6167184e-05
3.4935176e-05
3.3683359e-05
3.2431732e-05
3.1162544e-05
2.989769e-05
2.861673e-05
2.7344093e-05
2.6056397e-05
2.4781045e-05
2.3491581e-05
2.22188e-05
2.0933067e-05
1.9668981e-05
1.839366e-05
1.7145863e-05
1.5889493e-05
1.4667247e-05
1.3440802e-05
1.2254821e-05
1.1071515e-05
9.9342433e-06
8.8076749e-06
7.7354192e-06
6.6770283e-06
5.6905554e-06
4.7135177e-06
3.830884e-06
2.9589181e-06
2.1973426e-06
1.4542912e-06
8.4761819e-07
2.2383997e-07
0.011880381
0.0091840854
0.0049791385
0.0018355203
0.00044503875
0.0002927912
0.00054756118
0.00077082063
0.00087601302
0.00090668964
0.00091094454
0.00091091848
0.0009118307
0.00091308591
0.00091350242
0.00091256017
0.0009102568
0.00090679773
0.00090241618
0.0008973065
0.00089161398
0.00088544386
0.00087887357
0.00087196192
0.00086475576
0.00085729346
0.00084960729
0.00084172449
0.00083366828
0.0008254583
0.00081711138
0.00080864166
0.00080006125
0.00079138028
0.00078260747
0.00077375015
0.00076481467
0.00075580643
0.00074673021
0.00073758998
0.00072838926
0.0007191309
0.00070981752
0.00070045124
0.00069103411
0.00068156777
0.00067205383
0.00066249345
0.00065288788
0.00064323807
0.00063354516
0.00062380997
0.00061403355
0.00060421664
0.00059436024
0.00058446515
0.00057453252
0.0005645633
0.00055455878
0.00054452003
0.00053444857
0.00052434572
0.00051421336
0.00050405312
0.00049386725
0.00048365774
0.0004734273
0.0004631784
0.00045291427
0.00044263785
0.0004323529
0.00042206294
0.00041177241
0.00040148543
0.0003912071
0.0003809422
0.00037069663
0.00036047589
0.00035028663
0.00034013505
0.00033002867
0.00031997439
0.00030998059
0.00030005491
0.00029020651
0.00028044373
0.00027077656
0.00026121398
0.00025176671
0.00024244432
0.00023325818
0.00022421824
0.00021533662
0.00020662349
0.00019809125
0.00018975037
0.00018161322
0.00017369021
0.00016599356
0.00015853324
0.000151321
0.00014436632
0.00013768021
0.00013127159
0.00012515027
0.00011932431
0.00011380181
0.00010858928
0.00010369243
9.9115617e-05
9.4861504e-05
9.0931751e-05
8.732565e-05
8.404179e-05
8.1075899e-05
7.8423302e-05
7.6076069e-05
7.4026044e-05
7.2261457e-05
7.0770402e-05
6.9537058e-05
6.8545677e-05
6.7776376e-05
6.7209639e-05
6.6821777e-05
6.6589883e-05
6.6487095e-05
6.6487675e-05
6.6562675e-05
6.6684474e-05
6.6823736e-05
6.6952539e-05
6.7043767e-05
6.7071802e-05
6.7015377e-05
6.6854624e-05
6.6578005e-05
6.6174758e-05
6.5645999e-05
6.4991793e-05
6.4226104e-05
6.3358516e-05
6.2412528e-05
6.1402842e-05
6.0356411e-05
5.9287077e-05
5.8218421e-05
5.7158174e-05
5.6121786e-05
5.5108511e-05
5.4124458e-05
5.3161202e-05
5.2217827e-05
5.1281282e-05
5.0348075e-05
4.9403936e-05
4.8447284e-05
4.7464991e-05
4.6460296e-05
4.5421857e-05
4.4358503e-05
4.3259968e-05
4.2139683e-05
4.0987162e-05
3.981881e-05
3.8622841e-05
3.7417283e-05
3.6188488e-05
3.4955538e-05
3.3702634e-05
3.2450156e-05
3.1179944e-05
2.9914338e-05
2.8632403e-05
2.735911e-05
2.607048e-05
2.4794561e-05
2.3504196e-05
2.2230919e-05
2.0944303e-05
1.9679779e-05
1.8403574e-05
1.7155384e-05
1.589813e-05
1.4675494e-05
1.3448223e-05
1.2261777e-05
1.1077774e-05
9.9399593e-06
8.8126761e-06
7.7401513e-06
6.6805002e-06
5.6944844e-06
4.7155409e-06
3.8335249e-06
2.9598639e-06
2.1983356e-06
1.4537154e-06
8.4743721e-07
2.2313898e-07
0.01110878
0.0089399822
0.0052108191
0.0022062472
0.0007422822
0.00047349657
0.00066074676
0.00085430159
0.00094230813
0.00095873815
0.00095159556
0.00094355118
0.00093902921
0.00093635858
0.00093368064
0.0009301859
0.00092575718
0.00092052802
0.00091466639
0.00090830888
0.00090155431
0.00089447214
0.00088711235
0.00087951282
0.00087170377
0.0008637102
0.00085555352
0.0008472521
0.00083882184
0.00083027632
0.00082162727
0.00081288455
0.00080405666
0.00079515062
0.00078617254
0.00077712746
0.00076801982
0.00075885331
0.00074963124
0.00074035629
0.00073103086
0.00072165683
0.00071223593
0.00070276951
0.00069325897
0.00068370532
0.00067410962
0.00066447259
0.00065479502
0.0006450775
0.00063532081
0.00062552546
0.00061569221
0.00060582155
0.00059591425
0.0005859709
0.00057599246
0.00056597969
0.00055593374
0.0005458555
0.00053574638
0.00052560758
0.00051544085
0.00050524772
0.00049503033
0.00048479059
0.00047453112
0.00046425432
0.00045396334
0.00044366104
0.00043335113
0.00042303706
0.00041272322
0.00040241368
0.00039211348
0.00038182735
0.00037156117
0.00036132035
0.00035111156
0.00034094092
0.00033081593
0.00032074345
0.00031073184
0.00030078869
0.00029092316
0.00028114354
0.00027145982
0.00026188093
0.0002524176
0.00024307934
0.00023387755
0.00022482212
0.00021592519
0.00020719688
0.00019864963
0.00019029385
0.00018214194
0.00017420427
0.00016649309
0.00015901834
0.00015179178
0.00014482289
0.00013812266
0.00013170005
0.00012556484
0.00011972514
0.000114189
0.00010896302
0.00010405283
9.9462903e-05
9.5195804e-05
9.1253336e-05
8.7634672e-05
8.4338559e-05
8.13606e-05
7.8696276e-05
7.6337544e-05
7.4276396e-05
7.2500957e-05
7.0999466e-05
6.9755997e-05
6.8754946e-05
6.797632e-05
6.7400744e-05
6.7004413e-05
6.6764553e-05
6.665419e-05
6.6647691e-05
6.6716018e-05
6.6831598e-05
6.6965057e-05
6.7088423e-05
6.7174619e-05
6.7197864e-05
6.7137017e-05
6.6971936e-05
6.6691298e-05
6.6283978e-05
6.5751396e-05
6.5093208e-05
6.4323752e-05
6.3452208e-05
6.2502477e-05
6.1488915e-05
6.0438835e-05
5.9365837e-05
5.8293746e-05
5.7230188e-05
5.6190676e-05
5.5174513e-05
5.4187689e-05
5.3221942e-05
5.2276119e-05
5.1337375e-05
5.0401973e-05
4.9455793e-05
4.8497123e-05
4.7512843e-05
4.6506254e-05
4.5465845e-05
4.4400699e-05
4.3300234e-05
4.2178263e-05
4.1023899e-05
3.9853968e-05
3.8656281e-05
3.7449249e-05
3.6218864e-05
3.498454e-05
3.3730151e-05
3.2476402e-05
3.1204782e-05
2.9938015e-05
2.8654732e-05
2.738039e-05
2.6090464e-05
2.4813597e-05
2.3521978e-05
2.2247832e-05
2.0959983e-05
1.9694656e-05
1.8417205e-05
1.7168258e-05
1.5909745e-05
1.4686348e-05
1.3457858e-05
1.227056e-05
1.1085451e-05
9.9466845e-06
8.8182226e-06
7.7450596e-06
6.6835181e-06
5.6976873e-06
4.7160287e-06
3.8343072e-06
2.9581133e-06
2.1960396e-06
1.44912e-06
8.4203668e-07
2.1741798e-07
0.010410803
0.008648615
0.0053905603
0.0025540725
0.0010387468
0.00065862623
0.00077617941
0.00094043326
0.0010138763
0.0010177031
0.00099911881
0.00098234288
0.00097174433
0.00096469979
0.00095856275
0.00095215671
0.00094524256
0.00093789966
0.00093024294
0.00092235362
0.00091428175
0.000906058
0.00089770248
0.00088922959
0.00088065069
0.00087197533
0.00086321217
0.00085436905
0.0008454531
0.00083647054
0.00082742692
0.00081832684
0.00080917433
0.00079997259
0.00079072443
0.00078143203
0.00077209741
0.00076272214
0.00075330767
0.00074385505
0.00073436523
0.00072483881
0.00071527645
0.00070567847
0.00069604537
0.00068637738
0.00067667486
0.00066693787
0.00065716668
0.00064736133
0.00063752214
0.00062764922
0.00061774293
0.00060780341
0.00059783116
0.00058782645
0.00057779
0.00056772231
0.00055762432
0.00054749671
0.00053734073
0.0005271574
0.00051694832
0.00050671486
0.00049645903
0.00048618262
0.00047588814
0.00046557788
0.00045525488
0.00044492189
0.00043458256
0.00042424025
0.00041389929
0.00040356364
0.00039323829
0.0003829279
0.00037263829
0.00036237481
0.00035214408
0.00034195215
0.00033180649
0.00032171389
0.0003116827
0.00030172041
0.0002918362
0.00028203826
0.0002723366
0.00026274006
0.00025325939
0.00024390402
0.00023468535
0.00022561321
0.00021669977
0.00020795506
0.00019939154
0.00019101957
0.00018285155
0.00017489783
0.00016717064
0.0001596799
0.00015243737
0.00014545254
0.00013873634
0.00013229779
0.00012614659
0.00012029093
0.00011473878
0.00010949684
0.00010457063
9.9964776e-05
9.56817e-05
9.1723377e-05
8.8088833e-05
8.4777011e-05
8.1783366e-05
7.9103565e-05
7.6729428e-05
7.4653137e-05
7.2862687e-05
7.1346508e-05
7.0088548e-05
6.9073393e-05
6.8280924e-05
6.7691964e-05
6.7282572e-05
6.7030167e-05
6.6907653e-05
6.6889562e-05
6.6946766e-05
6.7051797e-05
6.7175257e-05
6.7289181e-05
6.7366554e-05
6.7381485e-05
6.7312994e-05
6.7140688e-05
6.68535e-05
6.6439924e-05
6.5901707e-05
6.5238038e-05
6.4463626e-05
6.3587154e-05
6.2632892e-05
6.1614757e-05
6.0560371e-05
5.9483024e-05
5.8406734e-05
5.7339005e-05
5.6295369e-05
5.527522e-05
5.4284387e-05
5.3314871e-05
5.2365225e-05
5.1422941e-05
5.0483969e-05
4.9534462e-05
4.8572506e-05
4.7585084e-05
4.6575494e-05
4.5532115e-05
4.4464228e-05
4.3360969e-05
4.2236482e-05
4.107951e-05
3.9907246e-05
3.8707138e-05
3.7497916e-05
3.6265272e-05
3.5028876e-05
3.3772356e-05
3.251665e-05
3.1242995e-05
2.9974398e-05
2.8689162e-05
2.7413122e-05
2.6121317e-05
2.4842875e-05
2.3549441e-05
2.2273817e-05
2.0984183e-05
1.9717457e-05
1.8438209e-05
1.718792e-05
1.5927578e-05
1.4702846e-05
1.3472536e-05
1.2283811e-05
1.1096952e-05
9.9566614e-06
8.8262971e-06
7.751945e-06
6.6876479e-06
5.7014705e-06
4.7160935e-06
3.8340341e-06
2.9542559e-06
2.1907163e-06
1.4405861e-06
8.3137809e-07
2.0605062e-07
0.0097900467
0.0083321092
0.0055196544
0.0028753626
0.0013316858
0.00084631759
0.00089143057
0.0010256199
0.0010867566
0.0010802162
0.0010507952
0.0010248899
0.0010077314
0.00099606625
0.00098638024
0.00097699908
0.00096751002
0.00095794209
0.00094837184
0.00093883283
0.00092932787
0.00091984887
0.00091038637
0.00090093208
0.00089147926
0.00088202256
0.00087255825
0.00086308373
0.00085359737
0.00084409796
0.00083458469
0.00082505675
0.00081551346
0.00080595399
0.00079637761
0.00078678347
0.00077717088
0.00076753908
0.00075788744
0.00074821519
0.00073852165
0.00072880598
0.00071906755
0.00070930555
0.00069951946
0.00068970856
0.0006798724
0.00067001028
0.00066012183
0.00065020648
0.00064026399
0.00063029394
0.00062029627
0.0006102707
0.00060021734
0.00059013613
0.00058002749
0.0005698916
0.00055972913
0.00054954051
0.00053932679
0.00052908876
0.00051882785
0.00050854521
0.0004982427
0.00048792195
0.00047758534
0.000467235
0.00045687387
0.00044650455
0.00043613058
0.00042575522
0.00041538271
0.00040501689
0.00039466268
0.00038432463
0.0003740085
0.00036371956
0.00035346435
0.00034324882
0.0003330804
0.0003229658
0.00031291332
0.00030293037
0.00029302609
0.00028320856
0.00027348781
0.00026387256
0.00025437355
0.00024500012
0.00023576367
0.00022667391
0.00021774305
0.000208981
0.00020040023
0.00019201103
0.00018382578
0.00017585476
0.00016811023
0.00016060202
0.00015334188
0.00014633932
0.00013960517
0.0001331485
0.00012697893
0.0001211047
0.00011553368
0.00011027268
0.00010532705
0.0001007016
9.6398582e-05
9.2420172e-05
8.8765217e-05
8.5432877e-05
8.2418447e-05
7.9717813e-05
7.7322646e-05
7.5225341e-05
7.341376e-05
7.1876562e-05
7.0597569e-05
6.9561607e-05
6.8748423e-05
6.8139106e-05
6.7709581e-05
6.7437535e-05
6.7295754e-05
6.7259024e-05
6.7298139e-05
6.738583e-05
6.7492703e-05
6.7590898e-05
6.7653506e-05
6.7654611e-05
6.7573446e-05
6.7389424e-05
6.7091769e-05
6.6668604e-05
6.6121995e-05
6.5450617e-05
6.4669493e-05
6.3786704e-05
6.2826806e-05
6.1803137e-05
6.074354e-05
5.9660882e-05
5.85793e-05
5.7506131e-05
5.6456876e-05
5.5431059e-05
5.4434322e-05
5.3459033e-05
5.2503432e-05
5.1555484e-05
5.0610797e-05
4.9655926e-05
4.8688708e-05
4.7696327e-05
4.6682016e-05
4.5634114e-05
4.4562022e-05
4.3454641e-05
4.2326371e-05
4.1165623e-05
3.9989878e-05
3.8786278e-05
3.757378e-05
3.6337859e-05
3.509833e-05
3.3838697e-05
3.2579994e-05
3.130335e-05
3.0031906e-05
2.8743795e-05
2.7465073e-05
2.6170507e-05
2.4889538e-05
2.3593441e-05
2.2315419e-05
2.1023179e-05
1.9754162e-05
1.8472302e-05
1.7219801e-05
1.5956802e-05
1.4729892e-05
1.3496888e-05
1.2305923e-05
1.111637e-05
9.9737581e-06
8.8404586e-06
7.764108e-06
6.6959277e-06
5.7085203e-06
4.7182065e-06
3.8347737e-06
2.9501301e-06
2.1838018e-06
1.4292708e-06
8.1661838e-07
1.8953686e-07
0.0092446077
0.0080083366
0.0055996472
0.0031660432
0.0016185442
0.0010367867
0.0010069989
0.0011091993
0.0011594161
0.0011447742
0.0011054605
0.0010701575
0.0010458861
0.0010292724
0.0010159455
0.0010035852
0.00099151223
0.00097968812
0.00096816362
0.000956935
0.00094595991
0.00093518965
0.00092458344
0.00091410963
0.00090374352
0.00089346526
0.00088325906
0.00087311214
0.00086301436
0.00085295727
0.00084293396
0.00083293836
0.00082296529
0.00081300999
0.00080306833
0.00079313647
0.00078321114
0.00077328922
0.00076336806
0.00075344504
0.00074351789
0.00073358432
0.00072364239
0.00071369013
0.00070372598
0.00069374826
0.00068375563
0.00067374665
0.00066372025
0.00065367522
0.00064361075
0.00063352585
0.00062341997
0.0006132924
0.00060314285
0.00059297088
0.00058277656
0.00057255975
0.0005623208
0.00055205988
0.00054177779
0.00053147511
0.00052115302
0.00051081247
0.00050045514
0.00049008244
0.00047969665
0.0004692997
0.00045889438
0.00044848314
0.00043806942
0.00042765631
0.00041724797
0.0004068481
0.00039646153
0.00038609266
0.0003757472
0.00036543029
0.00035514839
0.00034490735
0.00033471451
0.00032457648
0.00031450149
0.00030449685
0.00029457164
0.00028473383
0.0002749934
0.00026535898
0.00025584124
0.00024644942
0.00023719489
0.00022808724
0.00021913866
0.00021035894
0.00020176051
0.00019335358
0.00018515049
0.00017716143
0.00016939863
0.00016187184
0.00015459277
0.00014757091
0.000140817
0.00013434011
0.00012814978
0.00012225425
0.00011666126
0.00011137774
0.00010640885
0.00010175954
9.74319e-05
9.34283e-05
8.9747405e-05
8.6388596e-05
8.3347e-05
8.0618746e-05
7.8195354e-05
7.6069467e-05
7.4228802e-05
7.2662291e-05
7.135364e-05
7.0287973e-05
6.9444917e-05
6.8805888e-05
6.8346707e-05
6.8045411e-05
6.7874707e-05
6.7809731e-05
6.7821246e-05
6.7882291e-05
6.7963539e-05
6.8037353e-05
6.8077006e-05
6.8056668e-05
6.7955856e-05
6.7753874e-05
6.7440273e-05
6.7002831e-05
6.644392e-05
6.5761636e-05
6.4971248e-05
6.4080098e-05
6.3112908e-05
6.2082269e-05
6.1016119e-05
5.9926742e-05
5.8838309e-05
5.7757899e-05
5.6700958e-05
5.5667125e-05
5.4661881e-05
5.3678027e-05
5.2713537e-05
5.1756955e-05
5.0803578e-05
4.9840476e-05
4.8865228e-05
4.7865315e-05
4.6843854e-05
4.5789212e-05
4.4710836e-05
4.3597433e-05
4.2463572e-05
4.1297376e-05
4.011652e-05
3.8907896e-05
3.7690586e-05
3.6449932e-05
3.5205782e-05
3.3941627e-05
3.2678472e-05
3.1397475e-05
3.0121766e-05
2.8829466e-05
2.7546687e-05
2.62481e-05
2.4963278e-05
2.3663312e-05
2.2381612e-05
2.10856e-05
1.9813055e-05
1.852744e-05
1.7271531e-05
1.6004721e-05
1.4774483e-05
1.3537581e-05
1.2343274e-05
1.1149743e-05
1.0003728e-05
8.8661346e-06
7.7866399e-06
6.7131815e-06
5.7232385e-06
4.7265325e-06
3.8402373e-06
2.9491854e-06
2.1783268e-06
1.4178297e-06
8.0027692e-07
1.6972018e-07
0.0087665817
0.0076901245
0.0056334304
0.003421789
0.0018954849
0.0012300727
0.0011240548
0.0011912914
0.0012309416
0.0012103223
0.0011624702
0.0011177902
0.0010858669
0.0010638742
0.0010467386
0.0010313748
0.0010167139
0.0010026083
0.00098909046
0.00097613453
0.00096365938
0.00095157477
0.00093980565
0.00092829489
0.00091699894
0.00090588316
0.0008949195
0.00088408486
0.00087336039
0.00086273027
0.00085218137
0.00084170235
0.00083128352
0.00082091622
0.00081059297
0.00080030698
0.00079005242
0.00077982391
0.00076961679
0.00075942667
0.00074924973
0.00073908228
0.00072892111
0.00071876315
0.00070860578
0.00069844643
0.00068828293
0.00067811305
0.00066793507
0.00065774717
0.00064754796
0.00063733591
0.00062710999
0.00061686902
0.00060661236
0.00059633919
0.00058604923
0.00057574198
0.00056541752
0.00055507573
0.00054471718
0.00053434217
0.00052395172
0.00051354652
0.00050312804
0.00049269753
0.0004822571
0.00047180851
0.00046135439
0.00045089702
0.00044043971
0.00042998541
0.00041953816
0.00040910152
0.00039868021
0.00038827848
0.00037790196
0.00036755566
0.00035724595
0.00034697853
0.00033676066
0.00032659881
0.00031650115
0.00030647487
0.00029652894
0.00028667121
0.00027691161
0.00026725861
0.00025772282
0.00024831335
0.00023904152
0.00022991674
0.00022095118
0.00021215447
0.00020353898
0.00019511481
0.00018689423
0.00017888728
0.00017110616
0.00016356051
0.00015626195
0.00014921996
0.00014244512
0.00013594649
0.00012973347
0.00012381433
0.0001181966
0.0001128873
0.0001078914
0.00010321396
9.8856878e-05
9.4822714e-05
9.1109953e-05
8.7718203e-05
8.4642415e-05
8.1878956e-05
7.9419212e-05
7.7256102e-05
7.5377215e-05
7.3771774e-05
7.2423394e-05
7.131755e-05
7.0433795e-05
6.9753928e-05
6.9253714e-05
6.8911623e-05
6.8700355e-05
6.8595492e-05
6.8567855e-05
6.8590897e-05
6.8635462e-05
6.8674262e-05
6.8680864e-05
6.8629642e-05
6.8500501e-05
6.827272e-05
6.7936245e-05
6.7478519e-05
6.6902226e-05
6.6204802e-05
6.54017e-05
6.4499346e-05
6.3522521e-05
6.2482837e-05
6.1408224e-05
6.0310152e-05
5.9212777e-05
5.8122743e-05
5.7055468e-05
5.6010619e-05
5.4993611e-05
5.3997671e-05
5.3020634e-05
5.2051668e-05
5.1085869e-05
5.0110883e-05
4.9124091e-05
4.8113325e-05
4.7081586e-05
4.6017307e-05
4.4929931e-05
4.3807997e-05
4.2666168e-05
4.14923e-05
4.0304187e-05
3.9088498e-05
3.7864363e-05
3.661704e-05
3.5366329e-05
3.4095784e-05
3.2826291e-05
3.1539134e-05
3.025732e-05
2.8959089e-05
2.7670472e-05
2.6366193e-05
2.5075801e-05
2.377036e-05
2.248333e-05
2.1181999e-05
1.9904328e-05
1.8613449e-05
1.7352588e-05
1.6080461e-05
1.4845409e-05
1.3603063e-05
1.2403985e-05
1.1204856e-05
1.005402e-05
8.9104667e-06
7.8263002e-06
6.745899e-06
5.7516889e-06
4.7468734e-06
3.855759e-06
2.9565078e-06
2.1789118e-06
1.4105332e-06
7.8610969e-07
1.497176e-07
0.0083454049
0.0073860737
0.0056268985
0.003639572
0.0021584146
0.0014257003
0.0012439211
0.0012724957
0.001300759
0.0012759017
0.0012212509
0.00116764
0.0011276615
0.0010997952
0.0010785936
0.001060161
0.0010429039
0.0010264927
0.0010109357
0.00099620159
0.0009821828
0.00096875003
0.00095579155
0.00094322198
0.00093097727
0.00091900732
0.00090727158
0.0008957364
0.00088437388
0.00087316057
0.00086207685
0.00085110586
0.00084023323
0.00082944631
0.00081873413
0.00080808688
0.00079749608
0.00078695407
0.00077645416
0.00076599014
0.00075555661
0.00074514849
0.00073476134
0.00072439093
0.00071403364
0.00070368596
0.00069334495
0.00068300764
0.00067267161
0.00066233443
0.0006519942
0.00064164887
0.00063129691
0.0006209367
0.00061056724
0.00060018738
0.00058979649
0.00057939374
0.00056897891
0.00055855162
0.00054811221
0.00053766078
0.00052719809
0.00051672463
0.00050624168
0.00049575032
0.00048525248
0.00047474975
0.00046424463
0.00045373921
0.00044323668
0.00043273985
0.00042225262
0.00041177842
0.00040132185
0.00039088704
0.00038047947
0.00037010404
0.00035976703
0.00034947397
0.00033923202
0.00032904753
0.00031892856
0.00030888216
0.0002989172
0.00028904138
0.00027926453
0.00026959499
0.00026004325
0.00025061828
0.00024133131
0.00023219156
0.00022321114
0.00021439948
0.00020576887
0.00019732927
0.00018909283
0.00018106944
0.00017327119
0.00016570761
0.0001583902
0.00015132835
0.00014453251
0.00013801165
0.00013177503
0.00012583086
0.00012018648
0.00011484892
0.00010982297
0.00010511375
0.00010072297
9.6653331e-05
9.2903138e-05
8.9472219e-05
8.6355382e-05
8.3549206e-05
8.1044943e-05
7.88358e-05
7.6909294e-05
7.5254949e-05
7.3856323e-05
7.2699261e-05
7.176332e-05
7.1030734e-05
7.0477299e-05
7.0081957e-05
6.9817521e-05
6.9660096e-05
6.9580699e-05
6.9553277e-05
6.9548994e-05
6.9541013e-05
6.9503357e-05
6.9410699e-05
6.9243479e-05
6.8981007e-05
6.8613737e-05
6.8128757e-05
6.7529114e-05
6.6811458e-05
6.5991414e-05
6.5074267e-05
6.4084801e-05
6.3033353e-05
6.1947799e-05
6.0838487e-05
5.9729572e-05
5.8627002e-05
5.7546273e-05
5.6486885e-05
5.5454372e-05
5.444228e-05
5.3448525e-05
5.246285e-05
5.148035e-05
5.0489238e-05
4.9486817e-05
4.8461289e-05
4.7415578e-05
4.6338197e-05
4.5238567e-05
4.4105056e-05
4.2952379e-05
4.1768117e-05
4.0570136e-05
3.9344875e-05
3.8111476e-05
3.68551e-05
3.5595489e-05
3.4316257e-05
3.3038158e-05
3.1742618e-05
3.0452495e-05
2.9146189e-05
2.7849596e-05
2.6537565e-05
2.5239538e-05
2.3926645e-05
2.2632287e-05
2.1323732e-05
2.0039e-05
1.8741008e-05
1.7473313e-05
1.619404e-05
1.4952352e-05
1.3702714e-05
1.2497085e-05
1.1290471e-05
1.013303e-05
8.9815979e-06
7.8908722e-06
6.801598e-06
5.8010157e-06
4.7861554e-06
3.8877677e-06
2.978405e-06
2.1913198e-06
1.4129328e-06
7.7878005e-07
1.3366633e-07
0.0079704612
0.0071012233
0.005588267
0.0038184254
0.0024034983
0.0016223729
0.0013677104
0.0013538003
0.0013686667
0.0013406563
0.001281162
0.0012195434
0.0011713551
0.0011371151
0.0011114995
0.0010898746
0.0010700039
0.001051273
0.0010336356
0.0010170671
0.0010014503
0.0009866243
0.0009724405
0.00095878241
0.00094556317
0.00093271614
0.00092018794
0.00090793421
0.00089591786
0.00088410751
0.00087247681
0.00086100314
0.00084966722
0.00083845221
0.00082734354
0.00081632826
0.00080539514
0.00079453409
0.00078373633
0.00077299379
0.00076229942
0.00075164666
0.00074102981
0.00073044347
0.00071988298
0.00070934386
0.00069882235
0.00068831477
0.00067781798
0.00066732893
0.00065684517
0.00064636415
0.00063588388
0.00062540227
0.00061491795
0.00060442942
0.00059393576
0.0005834358
0.00057292902
0.00056241477
0.0005518932
0.00054136417
0.00053082825
0.00052028568
0.0005097376
0.00049918488
0.00048862932
0.00047807235
0.0004675163
0.0004569631
0.00044641582
0.00043587712
0.00042535081
0.00041484014
0.00040434961
0.0003938832
0.00038344629
0.00037304365
0.00036268144
0.00035236504
0.00034210149
0.00033189699
0.00032175952
0.00031169595
0.00030171505
0.00029182434
0.00028203356
0.00027235087
0.00026278663
0.00025334964
0.00024405103
0.00023489982
0.00022590797
0.00021708476
0.00020844231
0.00019999043
0.00019174114
0.00018370408
0.00017589127
0.00016831206
0.00016097777
0.0001538977
0.00014708215
0.0001405399
0.00013428007
0.00012831077
0.00012263912