/*--------------------------------*- C++ -*----------------------------------*\
| =========                 |                                                 |
| \\      /  F ield         | OpenFOAM: The Open Source CFD Toolbox           |
|  \\    /   O peration     | Version:  5.x                                   |
|   \\  /    A nd           | Web:      www.OpenFOAM.org                      |
|    \\/     M anipulation  |                                                 |
\*---------------------------------------------------------------------------*/
FoamFile
{
    version     2.0;
    format      ascii;
    class       surfaceScalarField;
    location    "0.3";
    object      phi;
}
// * * * * * * * * * * * * * * * * * * * * * * * * * * * * * * * * * * * * * //

dimensions      [0 3 -1 0 0 0 0];

internalField   nonuniform List<scalar> 
42870
(
2.9771807e-08
9.9455449e-09
-3.9717351e-08
2.0562239e-08
9.209568e-09
1.4208316e-08
6.3539225e-09
1.0640442e-08
3.5678744e-09
8.8237448e-09
1.816697e-09
7.8260978e-09
9.97647e-10
7.1965541e-09
6.2954364e-10
6.7352098e-09
4.6134428e-10
6.3586647e-09
3.7654517e-10
6.0354351e-09
3.2322956e-10
5.7536174e-09
2.8181768e-10
5.5068478e-09
2.4676966e-10
5.2896937e-09
2.1715404e-10
5.0971461e-09
1.9254764e-10
4.9249155e-09
1.7223061e-10
4.7695574e-09
1.5535807e-10
4.6283875e-09
1.4116988e-10
4.4993146e-09
1.2907291e-10
4.3806821e-09
1.1863255e-10
4.2711488e-09
1.0953328e-10
4.1696083e-09
1.0154053e-10
4.0751344e-09
9.4473911e-11
3.9869441e-09
8.8190294e-11
3.9043701e-09
8.2574013e-11
3.8268401e-09
7.7530015e-11
3.7538603e-09
7.2979715e-11
3.6850027e-09
6.8857586e-11
3.6198939e-09
6.5108893e-11
3.5582064e-09
6.168747e-11
3.499652e-09
5.8554362e-11
3.4439758e-09
5.5676288e-11
3.3909509e-09
5.3024898e-11
3.3403752e-09
5.0575668e-11
3.2920676e-09
4.8307525e-11
3.2458656e-09
4.6201997e-11
3.2016225e-09
4.4243107e-11
3.1592059e-09
4.2416695e-11
3.1184954e-09
4.0710445e-11
3.0793821e-09
3.9113311e-11
3.0417664e-09
3.7615685e-11
3.0055576e-09
3.6208839e-11
2.9706724e-09
3.4885172e-11
2.9370347e-09
3.3637682e-11
2.9045744e-09
3.2460285e-11
2.8732271e-09
3.1347292e-11
2.8429333e-09
3.0293816e-11
2.8136381e-09
2.9295217e-11
2.7852906e-09
2.834753e-11
2.7578437e-09
2.7446881e-11
2.7312537e-09
2.6589991e-11
2.7054801e-09
2.5773597e-11
2.6804851e-09
2.4995025e-11
2.6562335e-09
2.4251542e-11
2.6326926e-09
2.3540959e-11
2.6098317e-09
2.2860914e-11
2.5876221e-09
2.2209549e-11
2.5660373e-09
2.1584794e-11
2.5450522e-09
2.0985138e-11
2.5246434e-09
2.0408821e-11
2.5047888e-09
1.9854609e-11
2.4854679e-09
1.9320904e-11
2.4666612e-09
1.880665e-11
2.4483508e-09
1.8310409e-11
2.4305195e-09
1.783135e-11
2.4131512e-09
1.7368208e-11
2.3962309e-09
1.692032e-11
2.3797445e-09
1.6486484e-11
2.3636783e-09
1.6066144e-11
2.3480201e-09
1.5658201e-11
2.3327578e-09
1.5262285e-11
2.3178804e-09
1.4877372e-11
2.3033773e-09
1.4503177e-11
2.2892386e-09
1.4138692e-11
2.2754548e-09
1.3783756e-11
2.2620174e-09
1.3437428e-11
2.2489177e-09
1.309966e-11
2.2361482e-09
1.276951e-11
2.2237012e-09
1.2447016e-11
2.21157e-09
1.2131247e-11
2.1997476e-09
1.182237e-11
2.1882281e-09
1.1519455e-11
2.1770054e-09
1.1222765e-11
2.166074e-09
1.093133e-11
2.1554285e-09
1.0645535e-11
2.1450641e-09
1.036438e-11
2.1349757e-09
1.0088397e-11
2.1251592e-09
9.8165354e-12
2.1156098e-09
9.5494013e-12
2.1063239e-09
9.2859077e-12
2.097297e-09
9.0268442e-12
2.088526e-09
8.770999e-12
2.0800067e-09
8.5193261e-12
2.0717362e-09
8.2705308e-12
2.0637105e-09
8.0256583e-12
2.0559271e-09
7.7833972e-12
2.0483822e-09
7.5449749e-12
2.0410732e-09
7.3089072e-12
2.0339966e-09
7.0766126e-12
2.0271501e-09
6.8465608e-12
2.0205298e-09
6.6202457e-12
2.0141337e-09
6.3961559e-12
2.0079579e-09
6.1757708e-12
2.0020002e-09
5.9576592e-12
1.9962571e-09
5.7431557e-12
1.990726e-09
5.5310514e-12
1.9854035e-09
5.3225013e-12
1.980287e-09
5.1165383e-12
1.9753729e-09
4.9141402e-12
1.9706582e-09
4.7146713e-12
1.9661394e-09
4.5188339e-12
1.961813e-09
4.326388e-12
1.9576753e-09
4.1377154e-12
1.9537223e-09
3.9529442e-12
1.9499502e-09
3.7721153e-12
1.9463545e-09
3.5957269e-12
1.942931e-09
3.4234694e-12
1.9396748e-09
3.2561397e-12
1.9365817e-09
3.09316e-12
1.9336461e-09
2.9356019e-12
1.9308634e-09
2.7826575e-12
1.9282278e-09
2.63564e-12
1.9257342e-09
2.4935446e-12
1.9233764e-09
2.3578865e-12
1.9211489e-09
2.2274735e-12
1.9190449e-09
2.1040025e-12
1.9170588e-09
1.9861024e-12
1.9151832e-09
1.8755997e-12
1.9134121e-09
1.7710364e-12
1.9117379e-09
1.6742412e-12
1.9101541e-09
1.5837884e-12
1.9086528e-09
1.501298e-12
1.9072272e-09
1.4255781e-12
1.9058696e-09
1.3576408e-12
1.9045729e-09
1.296704e-12
1.9033302e-09
1.2427201e-12
1.9021347e-09
1.1955178e-12
1.9009811e-09
1.1535455e-12
1.8998636e-09
1.1174805e-12
1.8987796e-09
1.0840295e-12
1.8977245e-09
1.0550469e-12
1.896699e-09
1.0255674e-12
1.8957e-09
9.9900506e-13
1.8947309e-09
9.6904375e-13
1.89379e-09
9.4093387e-13
1.8928825e-09
9.074697e-13
1.8920068e-09
8.7571495e-13
1.8911688e-09
8.3803872e-13
1.8903659e-09
8.0291537e-13
1.8896033e-09
7.625594e-13
1.8888772e-09
7.2613408e-13
1.8881913e-09
6.858983e-13
1.8875403e-09
6.50985e-13
1.8869266e-09
6.1363957e-13
1.8863441e-09
5.8257852e-13
1.8857942e-09
5.4982591e-13
1.8852704e-09
5.2380858e-13
1.8847745e-09
4.9589613e-13
1.8842996e-09
4.7488966e-13
1.8838487e-09
4.5092495e-13
1.8834146e-09
4.3408797e-13
1.8830019e-09
4.1268897e-13
1.882603e-09
3.989311e-13
1.8822241e-09
3.7887405e-13
1.8818568e-09
3.6732524e-13
1.8815089e-09
3.4787017e-13
1.8811709e-09
3.3804147e-13
1.880852e-09
3.1893293e-13
1.8805413e-09
3.1067519e-13
1.8802494e-09
2.9193203e-13
1.879964e-09
2.8532587e-13
1.879697e-09
2.6701966e-13
1.8794348e-09
2.6222404e-13
1.8791904e-09
2.4434479e-13
1.8789489e-09
2.415627e-13
1.8787248e-09
2.2403308e-13
1.8785014e-09
2.2344252e-13
1.8782953e-09
2.0615612e-13
1.8780874e-09
2.0788932e-13
1.8778966e-09
1.9073785e-13
1.8777018e-09
1.9486794e-13
1.877524e-09
1.7773802e-13
1.8773397e-09
1.8431989e-13
1.8771726e-09
1.6708154e-13
1.8769965e-09
1.7609622e-13
1.8768377e-09
1.5878495e-13
1.8766678e-09
1.6993021e-13
1.8765148e-09
1.5303804e-13
1.8763492e-09
1.6556796e-13
1.8761991e-09
1.501007e-13
1.8760358e-09
1.6333091e-13
1.8758863e-09
1.4945914e-13
1.8757213e-09
1.6503108e-13
1.8755715e-09
1.4974544e-13
1.8753991e-09
1.7242958e-13
1.8752469e-09
1.5219833e-13
1.8750633e-09
1.8360993e-13
1.874902e-09
1.6127746e-13
1.8747057e-09
1.9629322e-13
1.8745358e-09
1.6992401e-13
2.2908278e-13
4.1945849e-08
1.0465461e-08
-4.2465764e-08
3.8699797e-08
1.245562e-08
3.4617341e-08
1.0436378e-08
3.0801489e-08
7.3837262e-09
2.7653725e-08
4.9644613e-09
2.5120528e-08
3.5308439e-09
2.3096477e-08
2.6535947e-09
2.1482772e-08
2.0750489e-09
2.0182723e-08
1.6765948e-09
1.911025e-08
1.395702e-09
1.8202166e-08
1.1899023e-09
1.7417156e-08
1.0317798e-09
1.6728327e-08
9.059831e-10
1.611716e-08
8.0371426e-10
1.5570016e-08
7.193748e-10
1.5076388e-08
6.4898544e-10
1.4628011e-08
5.8954744e-10
1.4218298e-08
5.3878547e-10
1.3841947e-08
4.949842e-10
1.3494631e-08
4.568489e-10
1.3172782e-08
4.2338986e-10
1.2873419e-08
3.9383642e-10
1.2594033e-08
3.6757659e-10
1.2332489e-08
3.4411762e-10
1.2086962e-08
3.2305698e-10
1.1855879e-08
3.0406328e-10
1.1637875e-08
2.8686124e-10
1.1431763e-08
2.7122115e-10
1.1236501e-08
2.5694962e-10
1.1051172e-08
2.4388336e-10
1.0874965e-08
2.3188312e-10
1.070716e-08
2.2083004e-10
1.0547114e-08
2.1062155e-10
1.0394252e-08
2.0116928e-10
1.0248058e-08
1.9239605e-10
1.0108066e-08
1.8423487e-10
9.9738562e-09
1.7662665e-10
9.8450469e-09
1.6951976e-10
9.721292e-09
1.6286822e-10
9.602276e-09
1.5663169e-10
9.487711e-09
1.5077388e-10
9.3773333e-09
1.4526287e-10
9.2709014e-09
1.4006958e-10
9.1681932e-09
1.3516844e-10
9.0690046e-09
1.3053594e-10
8.9731469e-09
1.2615145e-10
8.8804463e-09
1.2199581e-10
8.7907417e-09
1.1805221e-10
8.7038838e-09
1.1430473e-10
8.6197343e-09
1.1073947e-10
8.5381648e-09
1.0734311e-10
8.4590556e-09
1.0410422e-10
8.3822955e-09
1.0101163e-10
8.3077806e-09
9.8055882e-11
8.2354141e-09
9.5227433e-11
8.1651054e-09
9.2518253e-11
8.0967701e-09
8.9920082e-11
8.030329e-09
8.7426246e-11
7.9657081e-09
8.5029711e-11
7.9028378e-09
8.2724906e-11
7.8416531e-09
8.0505592e-11
7.7820928e-09
7.8366981e-11
7.7240997e-09
7.6303524e-11
7.6676198e-09
7.4311259e-11
7.6126026e-09
7.2385336e-11
7.5590005e-09
7.0522465e-11
7.5067688e-09
6.8718189e-11
7.4558653e-09
6.6969679e-11
7.4062506e-09
6.52729e-11
7.3578872e-09
6.3625634e-11
7.3107404e-09
6.2024219e-11
7.2647767e-09
6.0466822e-11
7.2199654e-09
5.8949965e-11
7.176277e-09
5.7472212e-11
7.1336841e-09
5.6030356e-11
7.0921603e-09
5.4623377e-11
7.0516817e-09
5.3248203e-11
7.0122245e-09
5.1904128e-11
6.9737676e-09
5.058818e-11
6.9362899e-09
4.9300031e-11
6.8997726e-09
4.8036832e-11
6.8641967e-09
4.6798607e-11
6.8295456e-09
4.5582485e-11
6.7958023e-09
4.4388825e-11
6.7629519e-09
4.321478e-11
6.7309791e-09
4.2061135e-11
6.6998707e-09
4.0924992e-11
6.6696126e-09
3.9807457e-11
6.640193e-09
3.8705538e-11
6.6115991e-09
3.7620782e-11
6.5838199e-09
3.6550137e-11
6.5568437e-09
3.5495513e-11
6.5306606e-09
3.4453667e-11
6.5052593e-09
3.3427002e-11
6.4806306e-09
3.2412086e-11
6.4567637e-09
3.1411852e-11
6.4336499e-09
3.0422728e-11
6.4112785e-09
2.9447941e-11
6.3896412e-09
2.8483921e-11
6.3687272e-09
2.753422e-11
6.3485281e-09
2.6595246e-11
6.3290333e-09
2.567062e-11
6.310234e-09
2.4756978e-11
6.2921194e-09
2.3857716e-11
6.2746805e-09
2.2969956e-11
6.2579061e-09
2.2096871e-11
6.2417865e-09
2.1236164e-11
6.22631e-09
2.0390657e-11
6.2114657e-09
1.9558918e-11
6.1972414e-09
1.8743183e-11
6.1836248e-09
1.7942977e-11
6.1706027e-09
1.7159767e-11
6.1581616e-09
1.6394042e-11
6.1462874e-09
1.5646396e-11
6.1349648e-09
1.4918249e-11
6.124179e-09
1.4209314e-11
6.1139133e-09
1.3521802e-11
6.1041518e-09
1.28547e-11
6.0948764e-09
1.2210955e-11
6.0860702e-09
1.1588904e-11
6.0777137e-09
1.0992102e-11
6.069789e-09
1.0418302e-11
6.0622753e-09
9.8715688e-12
6.0551537e-09
9.3490469e-12
6.0484025e-09
8.8552038e-12
6.042002e-09
8.3866055e-12
6.0359296e-09
7.9479714e-12
6.0301653e-09
7.5354113e-12
6.0246859e-09
7.15357e-12
6.0194714e-09
6.7983244e-12
6.014499e-09
6.4736632e-12
6.009749e-09
6.1755706e-12
6.0052003e-09
5.906381e-12
6.0008345e-09
5.6625257e-12
5.9966336e-09
5.4435902e-12
5.9925821e-09
5.2469843e-12
5.9886671e-09
5.0685903e-12
5.984877e-09
4.9075908e-12
5.9812052e-09
4.7558493e-12
5.9776447e-09
4.6154755e-12
5.9741956e-09
4.4747362e-12
5.9708546e-09
4.3399615e-12
5.9676269e-09
4.1967723e-12
5.9645112e-09
4.0565701e-12
5.9615153e-09
3.9033781e-12
5.9586374e-09
3.7536263e-12
5.9558849e-09
3.5905554e-12
5.9532534e-09
3.4343921e-12
5.9507481e-09
3.267912e-12
5.9483611e-09
3.1131223e-12
5.9460945e-09
2.9524953e-12
5.9439376e-09
2.8078311e-12
5.9418902e-09
2.6611205e-12
5.9399399e-09
2.5328354e-12
5.9380855e-09
2.4041859e-12
5.9363148e-09
2.2945437e-12
5.9346271e-09
2.1836028e-12
5.9330108e-09
2.0912351e-12
5.9314671e-09
1.9945367e-12
5.9299852e-09
1.9160682e-12
5.9285688e-09
1.82909e-12
5.9272068e-09
1.760911e-12
5.9259057e-09
1.6799153e-12
5.9246537e-09
1.6194075e-12
5.9234593e-09
1.5422212e-12
5.9223093e-09
1.4880454e-12
5.9212143e-09
1.4139344e-12
5.9201592e-09
1.3657282e-12
5.9191564e-09
1.2947616e-12
5.918189e-09
1.2527459e-12
5.9172709e-09
1.185133e-12
5.9163834e-09
1.1496623e-12
5.9155424e-09
1.0853861e-12
5.9147271e-09
1.0568983e-12
5.9139554e-09
9.9570769e-13
5.9132043e-09
9.7452919e-13
5.9124944e-09
9.1608042e-13
5.9117999e-09
9.0239588e-13
5.9111443e-09
8.4629601e-13
5.910499e-09
8.4018329e-13
5.9098907e-09
7.8602338e-13
5.9092875e-09
7.8750423e-13
5.9087197e-09
7.3489464e-13
5.908152e-09
7.4386075e-13
5.907618e-09
6.9279428e-13
5.9070793e-09
7.0859705e-13
5.9065722e-09
6.6015189e-13
5.9060566e-09
6.8115204e-13
5.9055689e-09
6.3774771e-13
5.90507e-09
6.6226879e-13
5.9045946e-09
6.248993e-13
5.9041036e-09
6.5600267e-13
5.9036342e-09
6.1909747e-13
5.90314e-09
6.6671169e-13
5.9026688e-09
6.2336994e-13
5.9021619e-09
6.905085e-13
5.9016739e-09
6.4925276e-13
5.9011498e-09
7.2045197e-13
5.9006359e-09
6.8373047e-13
8.0371458e-13
4.4986669e-08
9.3756487e-09
-4.3896857e-08
4.4927536e-08
1.2514753e-08
4.3805774e-08
1.155814e-08
4.2102564e-08
9.0869362e-09
4.0238608e-08
6.828417e-09
3.8383446e-08
5.3860061e-09
3.6588649e-08
4.4483923e-09
3.4907238e-08
3.7564601e-09
3.3370752e-08
3.2130802e-09
3.198156e-08
2.7848938e-09
3.0727117e-08
2.4443462e-09
2.9592148e-08
2.1667483e-09
2.8562652e-08
1.9354794e-09
2.7626283e-08
1.7400833e-09
2.677197e-08
1.5736871e-09
2.5989775e-08
1.4311807e-09
2.527091e-08
1.3084121e-09
2.4607742e-08
1.2019539e-09
2.3993713e-08
1.1090137e-09
2.3423217e-08
1.0273443e-09
2.2891466e-08
9.5514137e-10
2.2394352e-08
8.9095032e-10
2.192834e-08
8.3358788e-10
2.1490373e-08
7.8208502e-10
2.107779e-08
7.3564005e-10
2.0688268e-08
6.9358575e-10
2.0319766e-08
6.5536262e-10
1.9970488e-08
6.2049935e-10
1.9638842e-08
5.8859591e-10
1.9323413e-08
5.5931163e-10
1.9022942e-08
5.3235409e-10
1.8736301e-08
5.0747181e-10
1.8462476e-08
4.8444668e-10
1.8200555e-08
4.6308954e-10
1.7949717e-08
4.4323465e-10
1.7709214e-08
4.2473726e-10
1.7478371e-08
4.0746946e-10
1.7256572e-08
3.9131883e-10
1.7043255e-08
3.7618519e-10
1.6837907e-08
3.6198011e-10
1.6640057e-08
3.4862409e-10
1.6449273e-08
3.3604669e-10
1.6265159e-08
3.2418398e-10
1.6087348e-08
3.1297924e-10
1.5915503e-08
3.0238056e-10
1.5749313e-08
2.9234193e-10
1.5588488e-08
2.8282087e-10
1.543276e-08
2.7377969e-10
1.5281882e-08
2.651831e-10
1.5135621e-08
2.569998e-10
1.4993764e-08
2.4920024e-10
1.485611e-08
2.4175847e-10
1.4722472e-08
2.3464967e-10
1.4592676e-08
2.2785221e-10
1.4466558e-08
2.2134493e-10
1.4343967e-08
2.1510943e-10
1.422476e-08
2.0912745e-10
1.4108802e-08
2.0338351e-10
1.399597e-08
1.9786202e-10
1.3886145e-08
1.9254992e-10
1.3779217e-08
1.8743349e-10
1.3675083e-08
1.8250149e-10
1.3573644e-08
1.7774176e-10
1.3474811e-08
1.731448e-10
1.3378496e-08
1.687e-10
1.3284619e-08
1.6439931e-10
1.3193104e-08
1.6023315e-10
1.310388e-08
1.5619454e-10
1.3016878e-08
1.5227482e-10
1.2932035e-08
1.4846824e-10
1.2849292e-08
1.4476705e-10
1.2768593e-08
1.4116637e-10
1.2689884e-08
1.3765896e-10
1.2613115e-08
1.3424078e-10
1.253824e-08
1.309052e-10
1.2465215e-08
1.2764903e-10
1.2393997e-08
1.2446608e-10
1.2324547e-08
1.2135382e-10
1.2256829e-08
1.1830637e-10
1.2190807e-08
1.1532192e-10
1.2126449e-08
1.1239496e-10
1.2063723e-08
1.0952442e-10
1.2002601e-08
1.0670489e-10
1.1943053e-08
1.0393592e-10
1.1885056e-08
1.0121228e-10
1.1828583e-08
9.8534328e-11
1.1773611e-08
9.5896883e-11
1.1720117e-08
9.330096e-11
1.1668082e-08
9.0741341e-11
1.1617483e-08
8.8219779e-11
1.1568302e-08
8.5731152e-11
1.1520519e-08
8.3277932e-11
1.1474118e-08
8.0854727e-11
1.142908e-08
7.8464993e-11
1.1385389e-08
7.6103137e-11
1.1343027e-08
7.3773467e-11
1.130198e-08
7.1470436e-11
1.1262229e-08
6.919887e-11
1.1223759e-08
6.6953271e-11
1.1186555e-08
6.473915e-11
1.1150599e-08
6.2551054e-11
1.1115875e-08
6.0394665e-11
1.1082367e-08
5.8265029e-11
1.1050057e-08
5.6167611e-11
1.1018928e-08
5.4098293e-11
1.0988963e-08
5.2062336e-11
1.0960142e-08
5.0056694e-11
1.0932447e-08
4.8086129e-11
1.0905857e-08
4.6149102e-11
1.088035e-08
4.4249515e-11
1.0855906e-08
4.238743e-11
1.08325e-08
4.0565522e-11
1.0810109e-08
3.8785479e-11
1.0788707e-08
3.7048558e-11
1.0768267e-08
3.5357973e-11
1.0748763e-08
3.3713546e-11
1.0730165e-08
3.2119808e-11
1.0712444e-08
3.0575348e-11
1.0695569e-08
2.9085903e-11
1.0679509e-08
2.7648915e-11
1.066423e-08
2.6271075e-11
1.06497e-08
2.4948731e-11
1.0635882e-08
2.3689336e-11
1.0622743e-08
2.2488041e-11
1.0610245e-08
2.1352827e-11
1.0598354e-08
2.0277637e-11
1.0587031e-08
1.9270691e-11
1.0576242e-08
1.8324804e-11
1.0565948e-08
1.7447848e-11
1.0556114e-08
1.6631775e-11
1.0546705e-08
1.5883088e-11
1.0537687e-08
1.5193283e-11
1.0529028e-08
1.4565866e-11
1.0520698e-08
1.3992383e-11
1.051267e-08
1.3471644e-11
1.0504921e-08
1.2996216e-11
1.049743e-08
1.2558936e-11
1.0490183e-08
1.2154965e-11
1.0483168e-08
1.177107e-11
1.0476376e-08
1.1407272e-11
1.0469805e-08
1.1045353e-11
1.0463453e-08
1.0692614e-11
1.0457322e-08
1.032764e-11
1.0451412e-08
9.9664891e-12
1.0445729e-08
9.5861972e-12
1.0440271e-08
9.2113394e-12
1.0435043e-08
8.8184068e-12
1.043004e-08
8.4380896e-12
1.0425261e-08
8.0464545e-12
1.0420698e-08
7.6766495e-12
1.0416346e-08
7.3042465e-12
1.0412192e-08
6.9613414e-12
1.0408231e-08
6.6226545e-12
1.0404446e-08
6.3172836e-12
1.0400832e-08
6.0187666e-12
1.0397373e-08
5.7536168e-12
1.0394063e-08
5.4932985e-12
1.039089e-08
5.2643942e-12
1.038785e-08
5.0348632e-12
1.0384931e-08
4.8349337e-12
1.0382132e-08
4.627296e-12
1.0379444e-08
4.4491438e-12
1.0376868e-08
4.2563066e-12
1.0374392e-08
4.0949039e-12
1.0372022e-08
3.912822e-12
1.0369744e-08
3.7656531e-12
1.0367565e-08
3.5929465e-12
1.0365472e-08
3.4593073e-12
1.036347e-08
3.2960527e-12
1.0361547e-08
3.1762297e-12
1.0359709e-08
3.0227252e-12
1.0357942e-08
2.9171898e-12
1.0356254e-08
2.7733208e-12
1.0354628e-08
2.6826166e-12
1.0353076e-08
2.547835e-12
1.0351578e-08
2.4722655e-12
1.0350148e-08
2.34584e-12
1.0348765e-08
2.2854597e-12
1.0347445e-08
2.1665636e-12
1.0346164e-08
2.1212761e-12
1.0344941e-08
2.0090774e-12
1.034375e-08
1.9787069e-12
1.0342612e-08
1.8724652e-12
1.0341499e-08
1.8566837e-12
1.0340436e-08
1.7562909e-12
1.033939e-08
1.7540108e-12
1.0338389e-08
1.6611323e-12
1.0337401e-08
1.6697413e-12
1.033645e-08
1.5882799e-12
1.0335508e-08
1.6050229e-12
1.0334595e-08
1.5369985e-12
1.0333685e-08
1.5661105e-12
1.03328e-08
1.5040618e-12
1.0331907e-08
1.5596306e-12
1.0331036e-08
1.4952778e-12
1.0330147e-08
1.5790348e-12
1.0329267e-08
1.5294649e-12
1.0328373e-08
1.6139159e-12
1.0327478e-08
1.5787209e-12
1.7419727e-12
4.6709602e-08
8.4200795e-09
-4.5754033e-08
4.7420457e-08
1.1803898e-08
4.7562137e-08
1.141646e-08
4.7202711e-08
9.4463628e-09
4.6554763e-08
7.4763643e-09
4.574748e-08
6.1932893e-09
4.4817947e-08
5.3779252e-09
4.3811586e-08
4.7628215e-09
4.2776329e-08
4.248337e-09
4.1743689e-08
3.8175339e-09
4.0729338e-08
3.458697e-09
3.9741629e-08
3.1544577e-09
3.8786545e-08
2.8905626e-09
3.7868538e-08
2.6580905e-09
3.6990384e-08
2.451841e-09
3.6153254e-08
2.2683114e-09
3.5357043e-08
2.1046229e-09
3.4600769e-08
1.9582282e-09
3.3882893e-08
1.8268892e-09
3.3201559e-08
1.7086786e-09
3.2554749e-08
1.6019515e-09
3.1940395e-08
1.5053041e-09
3.1356451e-08
1.4175314e-09
3.0800939e-08
1.3375969e-09
3.0271976e-08
1.264603e-09
2.9767791e-08
1.1977714e-09
2.9286728e-08
1.1364251e-09
2.8827253e-08
1.0799748e-09
2.8387943e-08
1.0279056e-09
2.7967487e-08
9.7976786e-10
2.7564674e-08
9.3516653e-10
2.7178391e-08
8.937551e-10
2.680761e-08
8.5522755e-10
2.6451386e-08
8.1931412e-10
2.6108845e-08
7.857751e-10
2.5779184e-08
7.5439822e-10
2.546166e-08
7.2499378e-10
2.5155586e-08
6.9739314e-10
2.4860326e-08
6.7144457e-10
2.4575294e-08
6.4701277e-10
2.4299943e-08
6.2397522e-10
2.4033767e-08
6.0222229e-10
2.3776297e-08
5.8165403e-10
2.3527095e-08
5.6218084e-10
2.3285755e-08
5.4372048e-10
2.3051898e-08
5.2619931e-10
2.282517e-08
5.0954927e-10
2.260524e-08
4.937093e-10
2.2391801e-08
4.7862234e-10
2.2184563e-08
4.6423726e-10
2.1983258e-08
4.5050585e-10
2.1787631e-08
4.3738523e-10
2.1597446e-08
4.2483463e-10
2.141248e-08
4.1281791e-10
2.1232525e-08
4.0130014e-10
2.1057384e-08
3.9025042e-10
2.0886873e-08
3.7963845e-10
2.0720819e-08
3.6943797e-10
2.0559058e-08
3.5962291e-10
2.0401437e-08
3.5017089e-10
2.0247811e-08
3.4105901e-10
2.0098045e-08
3.3226783e-10
1.995201e-08
3.2377708e-10
1.9809584e-08
3.1557008e-10
1.9670655e-08
3.0762906e-10
1.9535115e-08
2.9993975e-10
1.9402862e-08
2.9248613e-10
1.9273801e-08
2.8525573e-10
1.9147841e-08
2.7823413e-10
1.9024899e-08
2.7141078e-10
1.8904893e-08
2.6477274e-10
1.8787749e-08
2.5831097e-10
1.8673394e-08
2.5201352e-10
1.8561762e-08
2.4587265e-10
1.845279e-08
2.3987746e-10
1.8346417e-08
2.340216e-10
1.8242588e-08
2.28295e-10
1.814125e-08
2.2269238e-10
1.8042352e-08
2.1720427e-10
1.7945847e-08
2.1182658e-10
1.7851692e-08
2.065505e-10
1.7759843e-08
2.013731e-10
1.7670262e-08
1.9628593e-10
1.7582911e-08
1.9128704e-10
1.7497755e-08
1.8636837e-10
1.741476e-08
1.8152925e-10
1.7333895e-08
1.7676183e-10
1.7255129e-08
1.7206645e-10
1.7178435e-08
1.6743548e-10
1.7103785e-08
1.6287031e-10
1.7031152e-08
1.5836358e-10
1.6960512e-08
1.5391793e-10
1.6891841e-08
1.4952571e-10
1.6825115e-08
1.4519105e-10
1.6760312e-08
1.4090627e-10
1.6697409e-08
1.3667666e-10
1.6636385e-08
1.3249485e-10
1.6577216e-08
1.2836705e-10
1.6519884e-08
1.24286e-10
1.6464364e-08
1.2025899e-10
1.6410636e-08
1.1627906e-10
1.6358677e-08
1.1235378e-10
1.6308465e-08
1.0847705e-10
1.6259976e-08
1.0465636e-10
1.6213187e-08
1.0088687e-10
1.6168074e-08
9.7175898e-11
1.612461e-08
9.3520357e-11
1.6082769e-08
8.9926926e-11
1.6042524e-08
8.6394765e-11
1.6003844e-08
8.2929448e-11
1.5966699e-08
7.9532497e-11
1.5931056e-08
7.620778e-11
1.5896883e-08
7.2959191e-11
1.5864143e-08
6.9788628e-11
1.5832798e-08
6.6702151e-11
1.5802812e-08
6.3699634e-11
1.5774143e-08
6.0789035e-11
1.574675e-08
5.7968421e-11
1.5720588e-08
5.5247437e-11
1.5695615e-08
5.2622419e-11
1.5671782e-08
5.0104311e-11
1.5649043e-08
4.7687691e-11
1.5627348e-08
4.5384481e-11
1.5606648e-08
4.3187289e-11
1.5586893e-08
4.1108615e-11
1.5568031e-08
3.9138952e-11
1.5550011e-08
3.7290927e-11
1.5532783e-08
3.5552889e-11
1.5516294e-08
3.3936693e-11
1.5500497e-08
3.2428797e-11
1.5485341e-08
3.1038811e-11
1.5470783e-08
2.9751751e-11
1.5456776e-08
2.8572737e-11
1.5443282e-08
2.7486059e-11
1.5430264e-08
2.6490124e-11
1.541769e-08
2.5569996e-11
1.5405533e-08
2.4715939e-11
1.5393772e-08
2.3916292e-11
1.5382389e-08
2.315349e-11
1.5371374e-08
2.2422676e-11
1.5360719e-08
2.1700422e-11
1.5350419e-08
2.0992294e-11
1.5340475e-08
2.027178e-11
1.5330885e-08
1.9556965e-11
1.532165e-08
1.8820562e-11
1.5312769e-08
1.8092581e-11
1.5304241e-08
1.7346124e-11
1.529606e-08
1.6619305e-11
1.5288221e-08
1.5885466e-11
1.5280712e-08
1.5185258e-11
1.5273525e-08
1.4491895e-11
1.5266643e-08
1.38433e-11
1.5260053e-08
1.3212026e-11
1.525374e-08
1.2630389e-11
1.5247689e-08
1.2069937e-11
1.5241885e-08
1.1557988e-11
1.5236314e-08
1.1064133e-11
1.5230964e-08
1.0614447e-11
1.5225824e-08
1.0174877e-11
1.5220884e-08
9.775287e-12
1.5216135e-08
9.3757806e-12
1.521157e-08
9.0146001e-12
1.5207182e-08
8.6439602e-12
1.5202964e-08
8.3130859e-12
1.5198912e-08
7.9649128e-12
1.5195017e-08
7.6602103e-12
1.5191278e-08
7.3322001e-12
1.5187685e-08
7.0523545e-12
1.5184236e-08
6.7444329e-12
1.5180923e-08
6.4896044e-12
1.5177744e-08
6.2020147e-12
1.5174688e-08
5.9726309e-12
1.5171757e-08
5.7050144e-12
1.5168938e-08
5.5015302e-12
1.5166233e-08
5.2528931e-12
1.516363e-08
5.0753771e-12
1.5161131e-08
4.8444322e-12
1.5158724e-08
4.6925922e-12
1.5156412e-08
4.4779331e-12
1.5154182e-08
4.3512682e-12
1.515204e-08
4.1515162e-12
1.5149969e-08
4.04944e-12
1.5147978e-08
3.8634007e-12
1.514605e-08
3.7851784e-12
1.5144194e-08
3.6125663e-12
1.5142391e-08
3.5565048e-12
1.5140653e-08
3.3995363e-12
1.5138961e-08
3.3618909e-12
1.5137323e-08
3.2259619e-12
1.5135725e-08
3.202747e-12
1.5134171e-08
3.0909777e-12
1.513265e-08
3.0873832e-12
1.5131163e-08
2.9908001e-12
1.5129698e-08
3.0243052e-12
1.5128259e-08
2.9344678e-12
1.5126834e-08
3.0044082e-12
1.5125417e-08
2.9460613e-12
1.5124013e-08
3.0183806e-12
1.5122614e-08
2.9775029e-12
3.1568778e-12
4.8510068e-08
7.6794666e-09
-4.7769455e-08
4.9288081e-08
1.1025885e-08
4.9725201e-08
1.097934e-08
4.9838059e-08
9.3335044e-09
4.975158e-08
7.5628433e-09
4.9547071e-08
6.397798e-09
4.9233855e-08
5.691142e-09
4.8823049e-08
5.1736272e-09
4.8340613e-08
4.7307731e-09
4.7810156e-08
4.3479904e-09
4.724486e-08
4.0239927e-09
4.6652117e-08
3.7472013e-09
4.6038474e-08
3.5042055e-09
4.5410679e-08
3.2858858e-09
4.4775148e-08
3.0873713e-09
4.4137454e-08
2.9060057e-09
4.3502171e-08
2.7399059e-09
4.2872957e-08
2.5874421e-09
4.2252687e-08
2.4471592e-09
4.1643577e-08
2.3177885e-09
4.1047289e-08
2.1982395e-09
4.0465021e-08
2.087572e-09
3.9897588e-08
1.984965e-09
3.934549e-08
1.8896947e-09
3.8808978e-08
1.801115e-09
3.8288103e-08
1.7186461e-09
3.7782763e-08
1.6417653e-09
3.7292737e-08
1.5700013e-09
3.6817715e-08
1.5029269e-09
3.6357327e-08
1.440156e-09
3.5911156e-08
1.3813382e-09
3.5478755e-08
1.3261557e-09
3.5059663e-08
1.2743198e-09
3.4653408e-08
1.2255684e-09
3.4259521e-08
1.1796625e-09
3.3877534e-08
1.1363851e-09
3.350699e-08
1.0955377e-09
3.3147443e-08
1.0569404e-09
3.279846e-08
1.0204276e-09
3.2459623e-08
9.8584925e-10
3.2130532e-08
9.530669e-10
3.1810799e-08
9.2195479e-10
3.1500057e-08
8.9239648e-10
3.1197952e-08
8.6428613e-10
3.0904147e-08
8.3752533e-10
3.0618321e-08
8.1202486e-10
3.0340169e-08
7.877013e-10
3.0069399e-08
7.64479e-10
2.9805735e-08
7.4228661e-10
2.9548913e-08
7.2105948e-10
2.9298683e-08
7.0073626e-10
2.9054806e-08
6.8126169e-10
2.8817058e-08
6.6258299e-10
2.8585223e-08
6.4465283e-10
2.8359098e-08
6.2742537e-10
2.8138488e-08
6.1085954e-10
2.7923212e-08
5.9491513e-10
2.7713093e-08
5.7955667e-10
2.7507967e-08
5.6474911e-10
2.7307676e-08
5.5046181e-10
2.7112071e-08
5.3666372e-10
2.6921011e-08
5.2332796e-10
2.6734361e-08
5.1042678e-10
2.6551995e-08
4.9793678e-10
2.637379e-08
4.8583342e-10
2.6199634e-08
4.740964e-10
2.6029416e-08
4.6270355e-10
2.5863035e-08
4.5163691e-10
2.5700393e-08
4.4087641e-10
2.5541397e-08
4.3040659e-10
2.538596e-08
4.2020938e-10
2.5234e-08
4.1027131e-10
2.5085438e-08
4.0057572e-10
2.49402e-08
3.9111089e-10
2.4798216e-08
3.8186157e-10
2.4659419e-08
3.7281789e-10
2.4523748e-08
3.6396579e-10
2.4391144e-08
3.552969e-10
2.426155e-08
3.4679805e-10
2.4134914e-08
3.3846242e-10
2.4011187e-08
3.3027784e-10
2.3890321e-08
3.2223906e-10
2.3772272e-08
3.1433454e-10
2.3656999e-08
3.065604e-10
2.3544462e-08
2.9890566e-10
2.3434623e-08
2.9136822e-10
2.3327447e-08
2.8393754e-10
2.3222901e-08
2.7661284e-10
2.3120952e-08
2.6938414e-10
2.302157e-08
2.6225208e-10
2.2924727e-08
2.5520706e-10
2.2830393e-08
2.4825161e-10
2.2738543e-08
2.4137588e-10
2.264915e-08
2.3458434e-10
2.2562188e-08
2.2786749e-10
2.2477634e-08
2.2123124e-10
2.2395462e-08
2.146666e-10
2.2315648e-08
2.0818098e-10
2.2238168e-08
2.0176569e-10
2.2162998e-08
1.954295e-10
2.2090113e-08
1.8916446e-10
2.2019487e-08
1.8297979e-10
2.1951095e-08
1.7686879e-10
2.188491e-08
1.708408e-10
2.1820906e-08
1.6489097e-10
2.1759054e-08
1.5902841e-10
2.1699323e-08
1.5325085e-10
2.1641683e-08
1.4756667e-10
2.1586102e-08
1.4197666e-10
2.1532543e-08
1.3648785e-10
2.1480971e-08
1.3110429e-10
2.1431348e-08
1.2583082e-10
2.1383633e-08
1.2067468e-10
2.1337783e-08
1.1563819e-10
2.1293754e-08
1.107315e-10
2.1251499e-08
1.0595422e-10
2.1210969e-08
1.0131908e-10
2.1172115e-08
9.6823231e-11
2.113488e-08
9.2481612e-11
2.1099214e-08
8.8288963e-11
2.1065056e-08
8.4261905e-11
2.1032351e-08
8.0392604e-11
2.1001037e-08
7.6698911e-11
2.0971054e-08
7.3170035e-11
2.0942338e-08
6.9824499e-11
2.0914829e-08
6.6648172e-11
2.088846e-08
6.3659629e-11
2.0863172e-08
6.0841199e-11
2.0838898e-08
5.8210282e-11
2.0815581e-08
5.5745844e-11
2.0793158e-08
5.3462215e-11
2.0771574e-08
5.1335484e-11
2.0750773e-08
4.9374098e-11
2.0730707e-08
4.7552224e-11
2.0711327e-08
4.5869766e-11
2.0692596e-08
4.4301024e-11
2.0674476e-08
4.2835886e-11
2.065694e-08
4.1452229e-11
2.0639963e-08
4.0130739e-11
2.0623528e-08
3.8857648e-11
2.0607621e-08
3.7607396e-11
2.0592234e-08
3.6379354e-11
2.057736e-08
3.5145608e-11
2.0562996e-08
3.3921343e-11
2.0549137e-08
3.2679434e-11
2.053578e-08
3.1449843e-11
2.0522918e-08
3.0207727e-11
2.0510545e-08
2.8992473e-11
2.0498649e-08
2.7781237e-11
2.0487219e-08
2.6615166e-11
2.0476238e-08
2.5472839e-11
2.0465692e-08
2.4389924e-11
2.0455558e-08
2.3345749e-11
2.0445822e-08
2.2366499e-11
2.043646e-08
2.143188e-11
2.0427458e-08
2.0559275e-11
2.0418795e-08
1.9727776e-11
2.0410458e-08
1.895077e-11
2.0402429e-08
1.8204828e-11
2.0394698e-08
1.7505829e-11
2.0387248e-08
1.6825278e-11
2.0380076e-08
1.6187385e-11
2.0373163e-08
1.5556233e-11
2.0366509e-08
1.4967548e-11
2.0360097e-08
1.4376448e-11
2.0353927e-08
1.3830604e-11
2.0347983e-08
1.3275881e-11
2.0342265e-08
1.2770504e-11
2.0336758e-08
1.2251629e-11
2.0331461e-08
1.1786436e-11
2.032636e-08
1.1303376e-11
2.0321454e-08
1.0878504e-11
2.0316728e-08
1.0430498e-11
2.0312184e-08
1.0046073e-11
2.0307805e-08
9.6315466e-12
2.0303593e-08
9.2871658e-12
2.0299534e-08
8.904134e-12
2.0295627e-08
8.5988997e-12
2.029186e-08
8.2452672e-12
2.0288233e-08
7.9779867e-12
2.0284733e-08
7.6517158e-12
2.0281362e-08
7.4211241e-12
2.0278104e-08
7.120451e-12
2.0274965e-08
6.9251639e-12
2.0271928e-08
6.6495206e-12
2.0268997e-08
6.4870375e-12
2.0266157e-08
6.2390796e-12
2.0263415e-08
6.104383e-12
2.026075e-08
5.8908807e-12
2.0258174e-08
5.7786839e-12
2.0255661e-08
5.6037333e-12
2.0253229e-08
5.5201326e-12
2.0250846e-08
5.3733048e-12
2.0248532e-08
5.3387748e-12
2.0246254e-08
5.2119105e-12
2.0244035e-08
5.2235403e-12
2.0241834e-08
5.1466919e-12
2.0239683e-08
5.1695929e-12
2.0237547e-08
5.1132488e-12
5.2582604e-12
5.0435762e-08
7.1045943e-09
-4.986089e-08
5.1198137e-08
1.026351e-08
5.1672164e-08
1.0505313e-08
5.1884018e-08
9.1216504e-09
5.1958777e-08
7.4880848e-09
5.1972029e-08
6.3845453e-09
5.192781e-08
5.7353613e-09
5.1819959e-08
5.2814784e-09
5.1658044e-08
4.8926881e-09
5.1456701e-08
4.5493334e-09
5.1223383e-08
4.2573107e-09
5.09598e-08
4.0107841e-09
5.0666876e-08
3.7971294e-09
5.0346726e-08
3.6060365e-09
5.0002418e-08
3.4316785e-09
4.9637321e-08
3.2711031e-09
4.9254705e-08
3.1225217e-09
4.885763e-08
2.9845174e-09
4.8448928e-08
2.8558613e-09
4.8031205e-08
2.735511e-09
4.7606838e-08
2.6226072e-09
4.7177964e-08
2.5164458e-09
4.6746488e-08
2.4164411e-09
4.6314085e-08
2.3220971e-09
4.5882217e-08
2.2329832e-09
4.5452142e-08
2.1487205e-09
4.5024938e-08
2.0689701e-09
4.4601512e-08
1.9934271e-09
4.4182625e-08
1.9218138e-09
4.3768904e-08
1.8538768e-09
4.336086e-08
1.7893824e-09
4.29589e-08
1.7281155e-09
4.2563344e-08
1.6698761e-09
4.2174433e-08
1.6144792e-09
4.1792344e-08
1.5617518e-09
4.1417195e-08
1.5115334e-09
4.104906e-08
1.4636734e-09
4.0687968e-08
1.4180321e-09
4.0333918e-08
1.374478e-09
3.9986878e-08
1.3328891e-09
3.9646794e-08
1.2931502e-09
3.9313595e-08
1.2551546e-09
3.898719e-08
1.2188013e-09
3.8667479e-08
1.1839966e-09
3.8354353e-08
1.1506517e-09
3.8047693e-08
1.1186849e-09
3.7747376e-08
1.0880179e-09
3.7453276e-08
1.0585791e-09
3.7165263e-08
1.0302995e-09