/*--------------------------------*- C++ -*----------------------------------*\
| =========                 |                                                 |
| \\      /  F ield         | OpenFOAM: The Open Source CFD Toolbox           |
|  \\    /   O peration     | Version:  5.x                                   |
|   \\  /    A nd           | Web:      www.OpenFOAM.org                      |
|    \\/     M anipulation  |                                                 |
\*---------------------------------------------------------------------------*/
FoamFile
{
    version     2.0;
    format      ascii;
    class       volVectorField;
    location    "0.3";
    object      U;
}
// * * * * * * * * * * * * * * * * * * * * * * * * * * * * * * * * * * * * * //

dimensions      [0 1 -1 0 0 0 0];

internalField   nonuniform List<vector> 
21600
(
(0.40518687 0.012133181 0)
(0.28659749 0.01090538 0)
(0.19464319 0.0064225148 0)
(0.14038876 0.0024874618 0)
(0.1128184 0.00059982695 0)
(0.09747639 0.0001020243 0)
(0.088160041 2.6362524e-05 0)
(0.081864931 5.7518311e-05 0)
(0.077038336 9.7577016e-05 0)
(0.072991747 0.00011622454 0)
(0.069469478 0.00011543629 0)
(0.066378079 0.00010538406 0)
(0.063658265 9.3667114e-05 0)
(0.061253465 8.3298548e-05 0)
(0.059110822 7.4743704e-05 0)
(0.057185501 6.7689895e-05 0)
(0.055441805 6.1759085e-05 0)
(0.053851921 5.6672705e-05 0)
(0.052394041 5.2246497e-05 0)
(0.05105071 4.8357613e-05 0)
(0.049807664 4.4918498e-05 0)
(0.048653033 4.1861765e-05 0)
(0.047576827 3.9132615e-05 0)
(0.046570555 3.6685553e-05 0)
(0.045626959 3.4482094e-05 0)
(0.044739788 3.2489873e-05 0)
(0.043903637 3.0681533e-05 0)
(0.043113802 2.9034112e-05 0)
(0.042366171 2.7528072e-05 0)
(0.041657127 2.6146917e-05 0)
(0.04098348 2.4876438e-05 0)
(0.040342397 2.3704568e-05 0)
(0.039731359 2.2620773e-05 0)
(0.03914811 2.1616052e-05 0)
(0.038590631 2.0682422e-05 0)
(0.038057101 1.9813045e-05 0)
(0.037545879 1.9001761e-05 0)
(0.037055477 1.8243274e-05 0)
(0.036584547 1.753274e-05 0)
(0.036131858 1.6866033e-05 0)
(0.035696294 1.6239306e-05 0)
(0.035276825 1.5649296e-05 0)
(0.034872518 1.5092894e-05 0)
(0.034482506 1.4567497e-05 0)
(0.034106003 1.4070551e-05 0)
(0.033742273 1.3599978e-05 0)
(0.033390647 1.3153689e-05 0)
(0.033050497 1.2730016e-05 0)
(0.03272125 1.2327182e-05 0)
(0.032402367 1.1943812e-05 0)
(0.032093356 1.1578389e-05 0)
(0.03179375 1.122982e-05 0)
(0.031503125 1.0896829e-05 0)
(0.031221074 1.0578546e-05 0)
(0.03094723 1.0273837e-05 0)
(0.030681237 9.9819625e-06 0)
(0.030422776 9.7019036e-06 0)
(0.030171534 9.4331029e-06 0)
(0.029927234 9.1746956e-06 0)
(0.029689599 8.9262523e-06 0)
(0.029458388 8.6869421e-06 0)
(0.029233355 8.4564074e-06 0)
(0.029014289 8.2338868e-06 0)
(0.028800972 8.0191567e-06 0)
(0.028593221 7.8115339e-06 0)
(0.028390839 7.6108701e-06 0)
(0.028193665 7.4164705e-06 0)
(0.028001526 7.2282351e-06 0)
(0.02781428 7.0455236e-06 0)
(0.027631772 6.8683614e-06 0)
(0.027453878 6.6961228e-06 0)
(0.027280456 6.5288561e-06 0)
(0.027111401 6.3659105e-06 0)
(0.026946583 6.207427e-06 0)
(0.026785912 6.0527883e-06 0)
(0.02662927 5.9022033e-06 0)
(0.026476578 5.7550062e-06 0)
(0.026327729 5.6114565e-06 0)
(0.026182656 5.4708813e-06 0)
(0.026041259 5.3336437e-06 0)
(0.025903484 5.1990409e-06 0)
(0.025769236 5.0674855e-06 0)
(0.025638471 4.9382135e-06 0)
(0.025511101 4.8117424e-06 0)
(0.025387089 4.6872588e-06 0)
(0.025266353 4.5654004e-06 0)
(0.025148864 4.4452746e-06 0)
(0.025034542 4.3275533e-06 0)
(0.024923367 4.2113113e-06 0)
(0.024815261 4.0973894e-06 0)
(0.024710211 3.984698e-06 0)
(0.024608139 3.8742225e-06 0)
(0.024509039 3.7647761e-06 0)
(0.024412835 3.6573892e-06 0)
(0.024319526 3.5508884e-06 0)
(0.024229033 3.446432e-06 0)
(0.024141364 3.3426357e-06 0)
(0.024056436 3.2408697e-06 0)
(0.023974263 3.1396534e-06 0)
(0.023894758 3.0404284e-06 0)
(0.023817938 2.9417544e-06 0)
(0.023743715 2.8449712e-06 0)
(0.02367211 2.7487566e-06 0)
(0.023603028 2.6542844e-06 0)
(0.023536497 2.5603977e-06 0)
(0.023472417 2.4681022e-06 0)
(0.023410818 2.3764486e-06 0)
(0.023351595 2.2862331e-06 0)
(0.023294782 2.1968332e-06 0)
(0.023240265 2.1087507e-06 0)
(0.023188079 2.0217371e-06 0)
(0.023138105 1.9359798e-06 0)
(0.023090376 1.8515837e-06 0)
(0.023044765 1.7684107e-06 0)
(0.023001305 1.6869012e-06 0)
(0.022959861 1.6066054e-06 0)
(0.022920466 1.5282238e-06 0)
(0.022882978 1.4510714e-06 0)
(0.022847427 1.3760885e-06 0)
(0.022813664 1.3024058e-06 0)
(0.022781719 1.2311749e-06 0)
(0.022751434 1.1613806e-06 0)
(0.022722837 1.0943565e-06 0)
(0.022695763 1.0289495e-06 0)
(0.022670237 9.6667313e-07 0)
(0.022646087 9.0625798e-07 0)
(0.022623335 8.493514e-07 0)
(0.022601802 7.9466622e-07 0)
(0.02258151 7.4388595e-07 0)
(0.02256227 6.9584773e-07 0)
(0.022544104 6.5208433e-07 0)
(0.022526816 6.1178771e-07 0)
(0.022510431 5.7598655e-07 0)
(0.022494748 5.4441642e-07 0)
(0.022479801 5.1716538e-07 0)
(0.022465386 4.9468806e-07 0)
(0.022451561 4.756688e-07 0)
(0.022438126 4.6143377e-07 0)
(0.022425169 4.4896096e-07 0)
(0.022412504 4.4064552e-07 0)
(0.022400261 4.3174352e-07 0)
(0.022388264 4.2598417e-07 0)
(0.022376688 4.1716576e-07 0)
(0.022365362 4.105483e-07 0)
(0.022354498 3.9894092e-07 0)
(0.022343916 3.8913196e-07 0)
(0.022333856 3.7347302e-07 0)
(0.022324109 3.5996056e-07 0)
(0.022314935 3.4086299e-07 0)
(0.022306082 3.2478326e-07 0)
(0.022297824 3.0417665e-07 0)
(0.02228986 2.8763769e-07 0)
(0.022282482 2.6777432e-07 0)
(0.02227534 2.5284417e-07 0)
(0.022268753 2.3535588e-07 0)
(0.022262323 2.2336623e-07 0)
(0.022256411 2.0877718e-07 0)
(0.022250576 2.0008462e-07 0)
(0.022245229 1.8793865e-07 0)
(0.022239886 1.8213261e-07 0)
(0.022235018 1.7145456e-07 0)
(0.022230093 1.6778373e-07 0)
(0.022225647 1.576317e-07 0)
(0.022221091 1.5540958e-07 0)
(0.022217033 1.4518811e-07 0)
(0.022212813 1.4399237e-07 0)
(0.022209119 1.3348933e-07 0)
(0.02220521 1.3316782e-07 0)
(0.02220186 1.2239659e-07 0)
(0.022198235 1.2301307e-07 0)
(0.022195208 1.1202835e-07 0)
(0.02219184 1.1373529e-07 0)
(0.022189112 1.0252665e-07 0)
(0.022185969 1.0553212e-07 0)
(0.022183514 9.4039743e-08 0)
(0.022180565 9.8542845e-08 0)
(0.022178358 8.6696505e-08 0)
(0.022175569 9.2855859e-08 0)
(0.022173584 8.0589133e-08 0)
(0.022170921 8.8508357e-08 0)
(0.022169133 7.5747186e-08 0)
(0.022166564 8.5504166e-08 0)
(0.022164949 7.2151524e-08 0)
(0.022162441 8.3739959e-08 0)
(0.022160976 6.9841936e-08 0)
(0.022158498 8.2961356e-08 0)
(0.02215716 6.8999345e-08 0)
(0.022154684 8.2890301e-08 0)
(0.02215345 6.9825545e-08 0)
(0.022150942 8.3806814e-08 0)
(0.022149789 7.168461e-08 0)
(0.022147208 8.7477537e-08 0)
(0.022146117 7.3015115e-08 0)
(0.022143406 9.5594401e-08 0)
(0.022142359 7.4867857e-08 0)
(0.022139442 1.0620337e-07 0)
(0.022138439 8.1478382e-08 0)
(0.022135169 1.1863474e-07 0)
(0.022134393 8.7628489e-08 0)
(0.02213035 1.4929768e-07 0)
(0.48431455 0.02253532 0)
(0.45687084 0.024514238 0)
(0.41447592 0.019498967 0)
(0.37042914 0.012617923 0)
(0.33190411 0.0073140824 0)
(0.29916279 0.0043276162 0)
(0.27270052 0.0027948212 0)
(0.25197965 0.0019944512 0)
(0.23568252 0.0015562106 0)
(0.22248319 0.0012940209 0)
(0.21142493 0.0011133754 0)
(0.20192265 0.00097236259 0)
(0.19362077 0.00085642844 0)
(0.1862838 0.00076039221 0)
(0.17973999 0.00068084763 0)
(0.17385661 0.00061456692 0)
(0.16852899 0.00055869669 0)
(0.16367387 0.00051098921 0)
(0.15922459 0.00046977796 0)
(0.15512714 0.00043383959 0)
(0.15133721 0.00040225731 0)
(0.14781804 0.00037432331 0)
(0.14453875 0.00034947503 0)
(0.1414732 0.00032725778 0)
(0.1385991 0.00030729806 0)
(0.13589729 0.00028928691 0)
(0.13335119 0.00027296662 0)
(0.13094642 0.00025812171 0)
(0.12867037 0.0002445704 0)
(0.126512 0.00023215911 0)
(0.12446154 0.00022075664 0)
(0.12251033 0.00021025108 0)
(0.12065067 0.00020054563 0)
(0.11887567 0.00019155699 0)
(0.11717917 0.0001832122 0)
(0.11555559 0.00017544803 0)
(0.11399994 0.00016820853 0)
(0.11250767 0.00016144494 0)
(0.11107467 0.00015511364 0)
(0.10969718 0.00014917652 0)
(0.1083718 0.00014359911 0)
(0.10709539 0.00013835124 0)
(0.10586511 0.00013340525 0)
(0.10467831 0.00012873697 0)
(0.1035326 0.00012432396 0)
(0.10242573 0.0001201468 0)
(0.10135566 0.00011618716 0)
(0.10032048 0.00011242925 0)
(0.099318455 0.0001088578 0)
(0.098347928 0.00010545972 0)
(0.09740741 0.0001022222 0)
(0.096495473 9.9134551e-05 0)
(0.09561083 9.6186023e-05 0)
(0.09475224 9.3367817e-05 0)
(0.093918587 9.0670674e-05 0)
(0.093108785 8.808713e-05 0)
(0.092321868 8.5609114e-05 0)
(0.09155688 8.3230508e-05 0)
(0.090812981 8.0944445e-05 0)
(0.090089329 7.8745876e-05 0)
(0.089385189 7.6628615e-05 0)
(0.088699815 7.4588339e-05 0)
(0.088032567 7.2619509e-05 0)
(0.087382781 7.0718655e-05 0)
(0.086749901 6.888091e-05 0)
(0.086133332 6.7103456e-05 0)
(0.085532589 6.5381728e-05 0)
(0.08494714 6.3713344e-05 0)
(0.084376564 6.2094145e-05 0)
(0.083820381 6.0522415e-05 0)
(0.083278226 5.8994318e-05 0)
(0.082749666 5.750849e-05 0)
(0.082234386 5.6061207e-05 0)
(0.081731993 5.4651552e-05 0)
(0.081242216 5.327605e-05 0)
(0.080764698 5.1934217e-05 0)
(0.080299208 5.0622633e-05 0)
(0.079845417 4.9341144e-05 0)
(0.079403133 4.8086388e-05 0)
(0.07897205 4.6858653e-05 0)
(0.078552012 4.565463e-05 0)
(0.078142731 4.4474977e-05 0)
(0.077744081 4.3316282e-05 0)
(0.077355793 4.2179615e-05 0)
(0.076977769 4.1061504e-05 0)
(0.076609751 3.9963526e-05 0)
(0.076251667 3.8882062e-05 0)
(0.075903268 3.7819024e-05 0)
(0.075564506 3.6770639e-05 0)
(0.075235138 3.57394e-05 0)
(0.074915138 3.4721274e-05 0)
(0.074604264 3.3719242e-05 0)
(0.07430251 3.2728982e-05 0)
(0.074009635 3.1753961e-05 0)
(0.073725649 3.0789652e-05 0)
(0.073450307 2.9840179e-05 0)
(0.073183637 2.8900621e-05 0)
(0.072925383 2.7975577e-05 0)
(0.07267559 2.7060057e-05 0)
(0.072433989 2.6158975e-05 0)
(0.07220064 2.5267336e-05 0)
(0.071975259 2.4390083e-05 0)
(0.071757919 2.3522457e-05 0)
(0.07154832 2.2669005e-05 0)
(0.071346545 2.182565e-05 0)
(0.071152277 2.0996456e-05 0)
(0.070965608 2.0178132e-05 0)
(0.070786198 1.9374185e-05 0)
(0.070614144 1.8582449e-05 0)
(0.070449085 1.7805557e-05 0)
(0.070291117 1.7042645e-05 0)
(0.070139855 1.629528e-05 0)
(0.069995393 1.5563857e-05 0)
(0.069857322 1.4848786e-05 0)
(0.069725734 1.4151705e-05 0)
(0.069600194 1.3471836e-05 0)
(0.069480792 1.2811853e-05 0)
(0.069367069 1.2170048e-05 0)
(0.069259111 1.1550051e-05 0)
(0.069156436 1.0949344e-05 0)
(0.069059123 1.037238e-05 0)
(0.068966671 9.815944e-06 0)
(0.068879153 9.2851855e-06 0)
(0.068796046 8.7762019e-06 0)
(0.06871742 8.2947418e-06 0)
(0.068642735 7.8362594e-06 0)
(0.06857206 7.4069306e-06 0)
(0.068504838 7.0018171e-06 0)
(0.068441143 6.6270927e-06 0)
(0.068380404 6.2777979e-06 0)
(0.068322708 5.959376e-06 0)
(0.068267475 5.6674283e-06 0)
(0.068214819 5.4053237e-06 0)
(0.068164158 5.1697586e-06 0)
(0.068115652 4.9605157e-06 0)
(0.068068731 4.776065e-06 0)
(0.068023627 4.6111668e-06 0)
(0.06797979 4.4669526e-06 0)
(0.067937547 4.3324785e-06 0)
(0.067896371 4.2128059e-06 0)
(0.067856699 4.0916161e-06 0)
(0.067818011 3.9793556e-06 0)
(0.067780854 3.8554749e-06 0)
(0.067744683 3.7368286e-06 0)
(0.067710143 3.6001197e-06 0)
(0.067676622 3.4685729e-06 0)
(0.067644841 3.3175368e-06 0)
(0.067614085 3.1751561e-06 0)
(0.067585138 3.0161613e-06 0)
(0.067557155 2.871111e-06 0)
(0.067530984 2.7146209e-06 0)
(0.067505639 2.5771529e-06 0)
(0.06748205 2.4330151e-06 0)
(0.067459092 2.3111761e-06 0)
(0.067437803 2.185074e-06 0)
(0.067416925 2.0825415e-06 0)
(0.067397633 1.9748722e-06 0)
(0.067378538 1.8909489e-06 0)
(0.067360977 1.7981697e-06 0)
(0.067343417 1.72947e-06 0)
(0.067327383 1.6464704e-06 0)
(0.067311176 1.5889631e-06 0)
(0.067296529 1.5113519e-06 0)
(0.067281545 1.4619567e-06 0)
(0.067268186 1.3871241e-06 0)
(0.067254324 1.3441859e-06 0)
(0.067242175 1.2712535e-06 0)
(0.067229346 1.2343015e-06 0)
(0.067218334 1.1633617e-06 0)
(0.067206446 1.1326916e-06 0)
(0.067196497 1.0640194e-06 0)
(0.067185456 1.0401502e-06 0)
(0.067176491 9.7373309e-07 0)
(0.067166199 9.5733375e-07 0)
(0.06715814 8.9289856e-07 0)
(0.067148498 8.8452551e-07 0)
(0.067141269 8.2169738e-07 0)
(0.067132178 8.2174436e-07 0)
(0.067125706 7.6010882e-07 0)
(0.067117067 7.687937e-07 0)
(0.067111284 7.0791861e-07 0)
(0.067103005 7.2538233e-07 0)
(0.067097846 6.6480633e-07 0)
(0.067089835 6.9097633e-07 0)
(0.067085239 6.3076126e-07 0)
(0.067077407 6.647166e-07 0)
(0.067073315 6.0641579e-07 0)
(0.067065576 6.4581182e-07 0)
(0.067061921 5.9275384e-07 0)
(0.067054186 6.3530143e-07 0)
(0.067050903 5.8844951e-07 0)
(0.067043064 6.3901217e-07 0)
(0.067040102 5.8938333e-07 0)
(0.067032003 6.6305704e-07 0)
(0.067029342 5.9938155e-07 0)
(0.067020753 7.0188864e-07 0)
(0.067018455 6.3364477e-07 0)
(0.067008957 7.4641646e-07 0)
(0.067007482 6.7279317e-07 0)
(0.066996136 8.5688532e-07 0)
(0.48501953 0.020561384 0)
(0.48877845 0.026122621 0)
(0.48432043 0.023582761 0)
(0.47046094 0.017964884 0)
(0.45159663 0.01297995 0)
(0.43044886 0.0097473769 0)
(0.40944922 0.0076792928 0)
(0.38992928 0.0062013521 0)
(0.37227211 0.005088351 0)
(0.35637989 0.0042533581 0)
(0.34203451 0.0036244265 0)
(0.32904822 0.0031393291 0)
(0.31726986 0.0027539337 0)
(0.30656708 0.0024408376 0)
(0.29681717 0.0021828268 0)
(0.28790647 0.0019678152 0)
(0.27973259 0.0017866311 0)
(0.27220575 0.0016322342 0)
(0.2652486 0.0014992765 0)
(0.25879503 0.0013837092 0)
(0.25278866 0.001282438 0)
(0.24718123 0.0011930627 0)
(0.24193133 0.001113688 0)
(0.23700319 0.0010427968 0)
(0.23236577 0.00097915768 0)
(0.22799203 0.00092176182 0)
(0.22385828 0.00086977447 0)
(0.21994365 0.00082250045 0)
(0.21622974 0.00077935554 0)
(0.21270021 0.00073984673 0)
(0.20934052 0.00070355408 0)
(0.20613766 0.00067011913 0)
(0.20308001 0.00063923277 0)
(0.20015708 0.00061062853 0)
(0.19735944 0.00058407398 0)
(0.19467854 0.00055936705 0)
(0.19210666 0.00053632974 0)
(0.18963673 0.00051480634 0)
(0.18726237 0.0004946584 0)
(0.1849777 0.00047576424 0)
(0.18277738 0.00045801455 0)
(0.18065647 0.00044131291 0)
(0.17861049 0.00042557183 0)
(0.17663525 0.00041071404 0)
(0.17472694 0.00039666872 0)
(0.17288201 0.00038337348 0)
(0.1710972 0.0003707706 0)
(0.16936944 0.00035880919 0)
(0.16769597 0.00034744132 0)
(0.16607412 0.00033662487 0)
(0.16450151 0.00032631977 0)
(0.16297583 0.00031649127 0)
(0.16149502 0.00030710585 0)
(0.16005706 0.00029813465 0)
(0.15866015 0.00028954901 0)
(0.15730254 0.00028132447 0)
(0.15598265 0.0002734363 0)
(0.15469894 0.00026586406 0)
(0.15345004 0.00025858666 0)
(0.15223458 0.00025158698 0)
(0.15105136 0.00024484641 0)
(0.14989917 0.00023835019 0)
(0.14877697 0.00023208181 0)
(0.14768367 0.00022602896 0)
(0.14661836 0.00022017723 0)
(0.14558007 0.00021451632 0)
(0.144568 0.00020903307 0)
(0.14358129 0.00020371858 0)
(0.14261925 0.00019856099 0)
(0.14168109 0.00019355315 0)
(0.14076622 0.00018868435 0)
(0.13987391 0.00018394862 0)
(0.13900367 0.00017933587 0)
(0.13815483 0.00017484126 0)
(0.13732697 0.00017045556 0)
(0.13651949 0.00016617514 0)
(0.13573203 0.00016199123 0)
(0.13496402 0.00015790114 0)
(0.13421518 0.00015389644 0)
(0.13348499 0.0001499755 0)
(0.13277321 0.00014613035 0)
(0.13207935 0.00014236037 0)
(0.13140322 0.00013865761 0)
(0.13074437 0.00013502236 0)
(0.13010266 0.00013144686 0)
(0.12947765 0.00012793259 0)
(0.12886924 0.00012447171 0)
(0.12827701 0.00012106663 0)
(0.1277009 0.00011770934 0)
(0.12714049 0.00011440342 0)
(0.12659577 0.00011114084 0)
(0.12606633 0.00010792619 0)
(0.12555217 0.00010475096 0)
(0.12505288 0.00010162117 0)
(0.12456851 9.8527861e-05 0)
(0.12409862 9.5478422e-05 0)
(0.1236433 9.2463745e-05 0)
(0.12320209 8.9491964e-05 0)
(0.12277511 8.6553989e-05 0)
(0.12236188 8.3658943e-05 0)
(0.12196253 8.0797699e-05 0)
(0.12157657 7.7979579e-05 0)
(0.12120414 7.5196142e-05 0)
(0.12084472 7.2456244e-05 0)
(0.12049847 6.9752683e-05 0)
(0.12016484 6.7093911e-05 0)
(0.11984401 6.4474274e-05 0)
(0.11953538 6.190134e-05 0)
(0.11923913 5.9371792e-05 0)
(0.11895463 5.6891737e-05 0)
(0.11868206 5.4460338e-05 0)
(0.11842074 5.2081707e-05 0)
(0.11817086 4.9757558e-05 0)
(0.1179317 4.7489723e-05 0)
(0.11770343 4.5282341e-05 0)
(0.11748529 4.3134947e-05 0)
(0.11727745 4.1053759e-05 0)
(0.1170791 3.9036379e-05 0)
(0.11689042 3.7090964e-05 0)
(0.11671055 3.5213354e-05 0)
(0.11653965 3.3413265e-05 0)
(0.11637685 3.1684921e-05 0)
(0.1162223 3.0039334e-05 0)
(0.11607507 2.8468999e-05 0)
(0.11593533 2.6985903e-05 0)
(0.11580213 2.5580866e-05 0)
(0.11567561 2.4266423e-05 0)
(0.11555484 2.3031946e-05 0)
(0.11543996 2.1889629e-05 0)
(0.11533 2.08279e-05 0)
(0.11522517 1.9857029e-05 0)
(0.11512448 1.8965248e-05 0)
(0.1150282 1.8158304e-05 0)
(0.11493534 1.742508e-05 0)
(0.11484625 1.6764021e-05 0)
(0.11475997 1.6166142e-05 0)
(0.11467698 1.5620321e-05 0)
(0.11459634 1.5122021e-05 0)
(0.11451869 1.4650057e-05 0)
(0.11444309 1.4207658e-05 0)
(0.11437036 1.3764928e-05 0)
(0.11429955 1.3336481e-05 0)
(0.11423164 1.288631e-05 0)
(0.11416562 1.2442669e-05 0)
(0.11410261 1.1966044e-05 0)
(0.11404147 1.1498102e-05 0)
(0.11398347 1.0997629e-05 0)
(0.11392726 1.05162e-05 0)
(0.11387425 1.0011409e-05 0)
(0.11382286 9.5392491e-06 0)
(0.11377464 9.0562839e-06 0)
(0.11372777 8.6175838e-06 0)
(0.11368398 8.1782087e-06 0)
(0.11364119 7.7893169e-06 0)
(0.11360137 7.4038681e-06 0)
(0.11356218 7.0697282e-06 0)
(0.11352587 6.7361144e-06 0)
(0.11348983 6.4517871e-06 0)
(0.11345662 6.1596826e-06 0)
(0.11342336 5.9151247e-06 0)
(0.11339294 5.6517296e-06 0)
(0.11336216 5.4367224e-06 0)
(0.11333431 5.1917111e-06 0)
(0.1133058 4.9990403e-06 0)
(0.11328034 4.7665106e-06 0)
(0.11325392 4.5925857e-06 0)
(0.11323071 4.3705801e-06 0)
(0.1132062 4.2144647e-06 0)
(0.11318512 4.0031904e-06 0)
(0.11316236 3.8654575e-06 0)
(0.11314325 3.6654612e-06 0)
(0.11312207 3.5469797e-06 0)
(0.11310481 3.3581855e-06 0)
(0.11308503 3.2599974e-06 0)
(0.11306948 3.0816672e-06 0)
(0.11305094 3.0044824e-06 0)
(0.11303698 2.8356234e-06 0)
(0.11301949 2.7797696e-06 0)
(0.113007 2.6192378e-06 0)
(0.11299041 2.5848011e-06 0)
(0.11297927 2.4314211e-06 0)
(0.11296343 2.4183449e-06 0)
(0.11295354 2.2710463e-06 0)
(0.11293828 2.2789908e-06 0)
(0.11292955 2.1376851e-06 0)
(0.11291473 2.1650323e-06 0)
(0.11290706 2.0324406e-06 0)
(0.11289252 2.0750866e-06 0)
(0.11288581 1.9574565e-06 0)
(0.11287141 2.0111201e-06 0)
(0.11286556 1.9114177e-06 0)
(0.11285114 1.9834482e-06 0)
(0.11284607 1.8886226e-06 0)
(0.11283137 2.0032765e-06 0)
(0.11282708 1.8974775e-06 0)
(0.11281171 2.060603e-06 0)
(0.11280837 1.9688343e-06 0)
(0.1127917 2.1352911e-06 0)
(0.11278988 2.0671707e-06 0)
(0.11277096 2.3603578e-06 0)
(0.48432868 0.017834565 0)
(0.49043963 0.024334583 0)
(0.4974729 0.02334469 0)
(0.49890093 0.019095791 0)
(0.49462764 0.014928285 0)
(0.48640657 0.012194138 0)
(0.4762768 0.010412653 0)
(0.46549075 0.0090487529 0)
(0.45458148 0.0079120947 0)
(0.44372574 0.0069703742 0)
(0.43300207 0.006197086 0)
(0.42249253 0.0055540793 0)
(0.41228058 0.0050077944 0)
(0.40243361 0.0045365856 0)
(0.39299501 0.0041274834 0)
(0.38398579 0.0037713397 0)
(0.37541023 0.0034604484 0)
(0.36726131 0.0031880257 0)
(0.3595249 0.0029482329 0)
(0.35218259 0.002736166 0)
(0.34521369 0.0025477466 0)
(0.3385965 0.002379583 0)
(0.33230931 0.0022288491 0)
(0.32633086 0.0020931785 0)
(0.32064085 0.0019705819 0)
(0.31522005 0.0018593835 0)
(0.31005048 0.001758165 0)
(0.30511538 0.0016657234 0)
(0.30039924 0.0015810312 0)
(0.29588772 0.0015032099 0)
(0.2915676 0.0014315023 0)
(0.28742667 0.0013652557 0)
(0.28345375 0.0013039024 0)
(0.27963845 0.0012469492 0)
(0.27597128 0.0011939634 0)
(0.27244341 0.0011445663 0)
(0.26904677 0.0010984228 0)
(0.26577384 0.001055238 0)
(0.26261771 0.001014749 0)
(0.25957193 0.00097672315 0)
(0.25663061 0.00094095145 0)
(0.2537882 0.00090724823 0)
(0.25103961 0.00087544515 0)
(0.24838006 0.00084539245 0)
(0.24580515 0.00081695322 0)
(0.24331073 0.00079000568 0)
(0.24089299 0.0007644376 0)
(0.23854831 0.00074014903 0)
(0.23627339 0.0007170467 0)
(0.23406503 0.00069504755 0)
(0.23192038 0.00067407331 0)
(0.22983662 0.0006540549 0)
(0.22781125 0.0006349266 0)
(0.22584179 0.00061663067 0)
(0.22392606 0.00059911105 0)
(0.22206185 0.00058231861 0)
(0.22024723 0.00056620495 0)
(0.21848027 0.00055072865 0)
(0.21675927 0.00053584829 0)
(0.21508249 0.00052152879 0)
(0.21344845 0.00050773384 0)
(0.21185559 0.00049443314 0)
(0.21030262 0.00048159456 0)
(0.20878813 0.00046919234 0)
(0.20731098 0.00045719844 0)
(0.20586993 0.00044559098 0)
(0.20446397 0.00043434468 0)
(0.20309196 0.00042344047 0)
(0.20175305 0.00041285562 0)
(0.20044619 0.00040257425 0)
(0.19917065 0.00039257597 0)
(0.19792547 0.00038284727 0)
(0.19671003 0.00037336926 0)
(0.19552346 0.00036413053 0)
(0.19436521 0.00035511384 0)
(0.1932345 0.00034631003 0)
(0.19213086 0.00033770309 0)
(0.19105357 0.00032928559 0)
(0.19000225 0.0003210424 0)
(0.18897622 0.000312968 0)
(0.18797518 0.00030504826 0)
(0.18699848 0.00029727952 0)
(0.18604591 0.00028964811 0)
(0.18511683 0.00028215195 0)
(0.18421111 0.00027477793 0)
(0.18332813 0.00026752602 0)
(0.18246781 0.00026038332 0)
(0.18162956 0.00025335152 0)
(0.18081335 0.00024641779 0)
(0.1800186 0.0002395856 0)
(0.17924532 0.00023284253 0)
(0.17849295 0.00022619393 0)
(0.17776154 0.00021962677 0)
(0.17705051 0.00021314891 0)
(0.17635997 0.00020674701 0)
(0.17568932 0.00020043092 0)
(0.1750387 0.00019418764 0)
(0.17440749 0.0001880284 0)
(0.17379589 0.00018194032 0)
(0.17320322 0.00017593639 0)
(0.17262971 0.00017000399 0)
(0.17207466 0.00016415655 0)
(0.17153832 0.0001583828 0)
(0.17101995 0.0001526958 0)
(0.17051983 0.00014708632 0)
(0.17003716 0.0001415671 0)
(0.16957224 0.00013613163 0)
(0.1691242 0.00013079148 0)
(0.16869339 0.00012554381 0)
(0.16827885 0.00012039824 0)
(0.16788093 0.00011535582 0)
(0.16749863 0.00011042325 0)
(0.16713227 0.00010560549 0)
(0.16678082 0.00010090582 0)
(0.16644458 9.6332911e-05 0)
(0.16612244 9.1886598e-05 0)
(0.16581473 8.7578715e-05 0)
(0.16552026 8.340606e-05 0)
(0.16523934 7.9383351e-05 0)
(0.16497075 7.5504543e-05 0)
(0.16471478 7.1786599e-05 0)
(0.16447015 6.8220644e-05 0)
(0.16423715 6.482539e-05 0)
(0.16401446 6.1588855e-05 0)
(0.16380236 5.853087e-05 0)
(0.1635995 5.563623e-05 0)
(0.16340618 5.2925139e-05 0)
(0.163221 5.0379239e-05 0)
(0.16304429 4.801764e-05 0)
(0.16287465 4.5819362e-05 0)
(0.16271246 4.3799918e-05 0)
(0.1625563 4.1936562e-05 0)
(0.16240664 4.0237352e-05 0)
(0.16226207 3.8679011e-05 0)
(0.16212319 3.7258244e-05 0)
(0.16198859 3.5953758e-05 0)
(0.16185906 3.4748206e-05 0)
(0.1617332 3.3626382e-05 0)
(0.16161201 3.255707e-05 0)
(0.16149407 3.1536943e-05 0)
(0.16138064 3.0523841e-05 0)
(0.16127023 2.9532309e-05 0)
(0.16116434 2.8513646e-05 0)
(0.16106132 2.7503771e-05 0)
(0.16096295 2.6451227e-05 0)
(0.16086732 2.5412465e-05 0)
(0.16077646 2.433531e-05 0)
(0.16068816 2.3290591e-05 0)
(0.16060469 2.2225358e-05 0)
(0.16052346 2.1215727e-05 0)
(0.16044703 2.0207559e-05 0)
(0.16037244 1.9273643e-05 0)
(0.16030253 1.8357835e-05 0)
(0.16023397 1.7524882e-05 0)
(0.16016998 1.6716043e-05 0)
(0.1601068 1.5989092e-05 0)
(0.16004811 1.5280876e-05 0)
(0.15998972 1.4648574e-05 0)
(0.15993579 1.4021509e-05 0)
(0.15988168 1.3464805e-05 0)
(0.1598321 1.2896252e-05 0)
(0.15978185 1.2396802e-05 0)
(0.15973629 1.1868972e-05 0)
(0.15968958 1.1414137e-05 0)
(0.1596478 1.091697e-05 0)
(0.15960435 1.0500469e-05 0)
(0.15956612 1.0030523e-05 0)
(0.15952567 9.6505629e-06 0)
(0.1594908 9.2079657e-06 0)
(0.15945309 8.8651177e-06 0)
(0.15942136 8.4504889e-06 0)
(0.15938614 8.1457268e-06 0)
(0.15935736 7.7586545e-06 0)
(0.15932437 7.4930586e-06 0)
(0.15929835 7.1320559e-06 0)
(0.15926734 6.9060879e-06 0)
(0.15924389 6.5692094e-06 0)
(0.15921462 6.3827425e-06 0)
(0.15919358 6.0678108e-06 0)
(0.1591658 5.9203854e-06 0)
(0.15914702 5.6252469e-06 0)
(0.1591205 5.5162333e-06 0)
(0.15910384 5.239009e-06 0)
(0.15907835 5.1674876e-06 0)
(0.15906368 4.9078127e-06 0)
(0.159039 4.8711666e-06 0)
(0.15902619 4.63292e-06 0)
(0.1590021 4.6249794e-06 0)
(0.15899103 4.4174259e-06 0)
(0.15896732 4.4316191e-06 0)
(0.15895784 4.2599508e-06 0)
(0.15893429 4.3057021e-06 0)
(0.15892632 4.1536969e-06 0)
(0.15890256 4.262543e-06 0)
(0.15889613 4.1135657e-06 0)
(0.15887165 4.2862404e-06 0)
(0.15886696 4.1837776e-06 0)
(0.15884102 4.3545336e-06 0)
(0.15883859 4.2855994e-06 0)
(0.15881039 4.6508978e-06 0)
(0.48573278 0.016049667 0)
(0.49007066 0.022582246 0)
(0.49783613 0.022342735 0)
(0.5033806 0.018865566 0)
(0.50489635 0.01520589 0)
(0.50315315 0.012808764 0)
(0.49967105 0.011326977 0)
(0.49541091 0.010221011 0)
(0.49070455 0.0092698064 0)
(0.48560062 0.0084474636 0)
(0.48010544 0.0077508541 0)
(0.474266 0.0071549817 0)
(0.46815998 0.0066313942 0)
(0.4618707 0.0061615222 0)
(0.45547299 0.0057361076 0)
(0.44902912 0.0053502097 0)
(0.44258976 0.0049999936 0)
(0.43619563 0.0046818092 0)
(0.42987918 0.0043922318 0)
(0.42366575 0.0041281969 0)
(0.4175747 0.003887018 0)
(0.41162024 0.0036663358 0)
(0.40581238 0.0034640645 0)
(0.40015757 0.0032783484 0)
(0.39465949 0.0031075302 0)
(0.38931952 0.0029501323 0)
(0.38413733 0.0028048363 0)
(0.37911117 0.0026704677 0)
(0.37423833 0.0025459784 0)
(0.36951529 0.002430435 0)
(0.36493805 0.0023230034 0)
(0.36050219 0.0022229407 0)
(0.35620314 0.0021295821 0)
(0.35203613 0.0020423343 0)
(0.34799641 0.0019606648 0)
(0.34407922 0.001884098 0)
(0.34027991 0.0018122048 0)
(0.33659387 0.0017446011 0)
(0.33301671 0.0016809388 0)
(0.32954408 0.0016209058 0)
(0.32617189 0.0015642179 0)
(0.32289611 0.0015106197 0)
(0.31971298 0.0014598775 0)
(0.31661881 0.0014117807 0)
(0.31361016 0.0013661355 0)
(0.31068366 0.0013227679 0)
(0.30783621 0.0012815164 0)
(0.30506472 0.0012422356 0)
(0.3023664 0.0012047896 0)
(0.29973844 0.0011690563 0)
(0.29717834 0.0011349202 0)
(0.29468355 0.0011022782 0)
(0.2922518 0.0010710323 0)
(0.2898808 0.0010410953 0)
(0.28756851 0.001012383 0)
(0.28531284 0.00098482051 0)
(0.28311199 0.00095833469 0)
(0.28096404 0.00093286151 0)
(0.27886739 0.00090833787 0)
(0.27682029 0.00088470902 0)
(0.27482132 0.00086191943 0)
(0.27286889 0.00083992145 0)
(0.27096172 0.00081866581 0)
(0.26909838 0.00079811144 0)
(0.26727774 0.00077821506 0)
(0.26549847 0.00075894136 0)
(0.2637596 0.0007402514 0)
(0.26205991 0.00072211416 0)
(0.26039854 0.00070449458 0)
(0.25877437 0.00068736624 0)
(0.25718667 0.0006706977 0)
(0.2556344 0.00065446613 0)
(0.25411693 0.00063864259 0)
(0.25263329 0.00062320744 0)
(0.25118298 0.00060813425 0)
(0.24976507 0.00059340669 0)
(0.24837916 0.00057900043 0)
(0.24702438 0.00056490179 0)
(0.24570042 0.00055108796 0)
(0.24440646 0.00053754804 0)
(0.24314225 0.00052426095 0)
(0.24190704 0.00051121856 0)
(0.24070065 0.0004984008 0)
(0.23952233 0.00048580189 0)
(0.23837202 0.00047340276 0)
(0.23724896 0.00046120072 0)
(0.23615317 0.00044917732 0)
(0.2350839 0.00043733233 0)
(0.23404123 0.000425648 0)
(0.23302443 0.00041412651 0)
(0.23203363 0.00040275087 0)
(0.23106809 0.00039152644 0)
(0.23012801 0.00038043556 0)
(0.22921262 0.00036948709 0)
(0.22832218 0.00035866367 0)
(0.22745591 0.00034797673 0)
(0.22661411 0.0003374098 0)
(0.22579595 0.00032697665 0)
(0.2250018 0.00031666115 0)
(0.22423078 0.0003064796 0)
(0.2234833 0.00029641683 0)
(0.22275842 0.00028648983 0)
(0.2220566 0.00027668553 0)
(0.22137683 0.00026702101 0)
(0.22071962 0.00025748618 0)
(0.22008388 0.00024809774 0)
(0.21947015 0.00023884992 0)
(0.21887727 0.00022975804 0)
(0.21830579 0.00022082157 0)
(0.21775446 0.00021205333 0)
(0.21722387 0.00020345832 0)
(0.21671267 0.00019504552 0)
(0.21622144 0.00018682546 0)
(0.21574878 0.00017880256 0)
(0.21529524 0.0001709923 0)
(0.21485936 0.00016339447 0)
(0.21444167 0.00015602901 0)
(0.21404062 0.00014889142 0)
(0.21365677 0.00014200548 0)
(0.21328847 0.00013536254 0)
(0.21293627 0.00012898935 0)
(0.21259847 0.000122873 0)
(0.2122756 0.00011704235 0)
(0.21196591 0.00011147962 0)
(0.21166992 0.00010621483 0)
(0.21138583 0.00010122489 0)
(0.21111419 9.6539923e-05 0)
(0.21085317 9.2131247e-05 0)
(0.21060333 8.8026948e-05 0)
(0.21036282 8.4193271e-05 0)
(0.21013229 8.0652876e-05 0)
(0.20990984 7.7367867e-05 0)
(0.20969625 7.4350425e-05 0)
(0.20948961 7.1560217e-05 0)
(0.20929088 6.8994081e-05 0)
(0.20909809 6.6612891e-05 0)
(0.20891247 6.4395273e-05 0)
(0.20873201 6.2309326e-05 0)
(0.20855823 6.0316606e-05 0)
(0.20838901 5.8400829e-05 0)
(0.20822624 5.6511329e-05 0)
(0.20806764 5.4655855e-05 0)
(0.20791545 5.2778047e-05 0)
(0.20776714 5.091441e-05 0)
(0.20762534 4.9008118e-05 0)
(0.20748714 4.7122742e-05 0)
(0.20735559 4.5203431e-05 0)
(0.20722728 4.3331636e-05 0)
(0.20710571 4.1453897e-05 0)
(0.20698693 3.9656393e-05 0)
(0.20687489 3.7886051e-05 0)
(0.20676505 3.6221419e-05 0)
(0.20666189 3.4608655e-05 0)
(0.20656028 3.3111947e-05 0)
(0.20646527 3.1676066e-05 0)
(0.20637109 3.0352256e-05 0)
(0.20628349 2.9082027e-05 0)
(0.206196 2.7912274e-05 0)
(0.20611516 2.6777683e-05 0)
(0.2060337 2.5732304e-05 0)
(0.20595907 2.469921e-05 0)
(0.20588312 2.3750021e-05 0)
(0.20581428 2.2791682e-05 0)
(0.20574337 2.1919187e-05 0)
(0.20567997 2.1020297e-05 0)
(0.20561373 2.0214451e-05 0)
(0.20555546 1.9369373e-05 0)
(0.20549351 1.8626812e-05 0)
(0.20544011 1.7835154e-05 0)
(0.2053821 1.7155946e-05 0)
(0.20533328 1.6418036e-05 0)
(0.20527886 1.5802867e-05 0)
(0.20523438 1.5117642e-05 0)
(0.20518319 1.4567192e-05 0)
(0.20514279 1.3932121e-05 0)
(0.20509451 1.3446152e-05 0)
(0.20505795 1.2858006e-05 0)
(0.20501224 1.2435464e-05 0)
(0.20497932 1.1890765e-05 0)
(0.20493584 1.1530118e-05 0)
(0.20490637 1.1025501e-05 0)
(0.2048648 1.0725053e-05 0)
(0.2048386 1.0257617e-05 0)
(0.20479864 1.0015418e-05 0)
(0.20477555 9.5843556e-06 0)
(0.20473689 9.3963755e-06 0)
(0.20471676 9.0066099e-06 0)
(0.20467911 8.864225e-06 0)
(0.20466178 8.5279909e-06 0)
(0.20462486 8.4219831e-06 0)
(0.20461016 8.1467264e-06 0)
(0.20457366 8.0881858e-06 0)
(0.20456149 7.8549542e-06 0)
(0.20452498 7.8815648e-06 0)
(0.20451539 7.6741214e-06 0)
(0.2044782 7.7817985e-06 0)
(0.20447143 7.6557749e-06 0)
(0.20443277 7.7742165e-06 0)
(0.20442921 7.6796366e-06 0)
(0.2043883 8.0428141e-06 0)
(0.4871381 0.014784291 0)
(0.49047264 0.021075816 0)
(0.49713668 0.02139908 0)
(0.5029608 0.018454351 0)
(0.50592091 0.015079482 0)
(0.50632907 0.012820954 0)