/*--------------------------------*- C++ -*----------------------------------*\
| =========                 |                                                 |
| \\      /  F ield         | OpenFOAM: The Open Source CFD Toolbox           |
|  \\    /   O peration     | Version:  5.x                                   |
|   \\  /    A nd           | Web:      www.OpenFOAM.org                      |
|    \\/     M anipulation  |                                                 |
\*---------------------------------------------------------------------------*/
FoamFile
{
    version     2.0;
    format      ascii;
    class       volScalarField;
    location    "1";
    object      p;
}
// * * * * * * * * * * * * * * * * * * * * * * * * * * * * * * * * * * * * * //

dimensions      [0 2 -2 0 0 0 0];

internalField   nonuniform List<scalar> 
21600
(
0.044244221
0.041658423
0.03668026
0.031985262
0.028414179
0.025801342
0.023676188
0.021639452
0.019469143
0.01708575
0.014496139
0.011761376
0.0089848818
0.0063053648
0.0038850335
0.0018869539
0.00043311684
-0.00042743928
-0.00072812155
-0.00057108722
-9.4434161e-05
0.00056300773
0.0012855296
0.0019896853
0.0026236968
0.0031612896
0.0035944191
0.0039273397
0.0041717858
0.0043428452
0.0044559776
0.0045252552
0.0045626231
0.0045777119
0.0045779941
0.0045690349
0.0045548365
0.0045381359
0.0045207219
0.0045036609
0.0044875268
0.0044725346
0.0044586888
0.004445842
0.0044337874
0.0044222703
0.0044110471
0.0043998697
0.0043885303
0.0043768329
0.0043646317
0.0043517942
0.0043382369
0.0043238842
0.0043087056
0.0042926706
0.0042757888
0.004258062
0.0042395267
0.0042202048
0.0042001489
0.0041793906
0.0041579897
0.0041359804
0.0041134233
0.00409035
0.0040668183
0.0040428541
0.0040185105
0.0039938066
0.0039687899
0.0039434725
0.003917897
0.003892069
0.0038660268
0.0038397703
0.0038133345
0.0037867147
0.0037599436
0.0037330126
0.0037059528
0.0036787527
0.0036514425
0.0036240078
0.0035964786
0.0035688383
0.0035411168
0.0035132954
0.0034854041
0.0034574224
0.0034293806
0.0034012561
0.00337308
0.0033448274
0.0033165302
0.0032881616
0.003259754
0.0032312785
0.0032027686
0.0031741932
0.0031455868
0.0031169161
0.0030882168
0.0030594534
0.0030306628
0.0030018075
0.0029729256
0.0029439773
0.0029150025
0.0028859589
0.0028568882
0.0028277457
0.0027985752
0.002769329
0.0027400535
0.0027106982
0.0026813118
0.002651841
0.0026223372
0.0025927438
0.0025631157
0.0025333923
0.0025036322
0.0024737709
0.0024438711
0.0024138637
0.0023838162
0.0023536544
0.002323451
0.0022931264
0.0022627589
0.002232263
0.0022017234
0.0021710477
0.0021403282
0.0021094646
0.0020785575
0.0020474978
0.002016396
0.0019851327
0.0019538292
0.0019223551
0.0018908438
0.0018591521
0.0018274276
0.0017955122
0.0017635698
0.0017314253
0.0016992613
0.0016668832
0.0016344949
0.0016018797
0.0015692658
0.001536411
0.0015035716
0.0014704761
0.0014374132
0.0014040772
0.0013707945
0.0013372201
0.0013037235
0.0012699148
0.0012362131
0.0012021763
0.0011682813
0.0011340251
0.0010999518
0.0010654883
0.0010312566
0.00099660155
0.00096223575
0.00092740865
0.0008929393
0.00085796538
0.00082343014
0.00078834068
0.00075378583
0.00071861967
0.00068410243
0.0006489068
0.00061449714
0.00057933349
0.00054511894
0.00051005899
0.00047614713
0.00044128663
0.00040781424
0.00037326907
0.00034040844
0.00030633036
0.00027430587
0.0002408913
0.00020999859
0.00017750682
0.0001481518
0.00011693464
8.970128e-05
6.0217579e-05
3.6032475e-05
8.5570962e-06
0.039736041
0.038543601
0.035234116
0.031381395
0.028025098
0.025388954
0.023239097
0.021243725
0.019165489
0.016894475
0.014419119
0.011794785
0.0091235991
0.006543837
0.0042126419
0.0022761439
0.00084506088
-3.0092048e-05
-0.00037121236
-0.00026572324
0.00015967717
0.00077142186
0.0014543106
0.0021241811
0.0027300919
0.0032459968
0.003663069
0.0039846351
0.0042212947
0.0043870133
0.0044963762
0.0045628627
0.0045980376
0.0046112896
0.0046099423
0.0045994728
0.0045838374
0.0045657519
0.0045470003
0.0045286509
0.0045112842
0.0044951204
0.0044801686
0.0044662835
0.004453259
0.004440839
0.0044287775
0.0044168218
0.0044047598
0.0043923905
0.0043795639
0.0043661425
0.0043520395
0.0043371749
0.0043215155
0.0043050275
0.0042877182
0.0042695867
0.004250668
0.0042309816
0.0042105791
0.0041894902
0.0041677741
0.0041454632
0.004122618
0.0040992683
0.0040754721
0.0040512537
0.0040266665
0.0040017281
0.0039764864
0.0039509522
0.0039251685
0.0038991397
0.0038729044
0.0038464615
0.0038198465
0.0037930534
0.0037661156
0.0037390233
0.0037118083
0.0036844577
0.0036570026
0.0036294275
0.003601763
0.0035739913
0.0035461432
0.0035181987
0.0034901889
0.0034620917
0.0034339387
0.0034057058
0.0033774252
0.0033490707
0.0033206754
0.0032922107
0.0032637107
0.0032351447
0.0032065477
0.0031778869
0.0031491984
0.003120447
0.0030916702
0.0030628305
0.0030339667
0.0030050391
0.002976088
0.0029470712
0.0029180309
0.0028889223
0.0028597897
0.0028305855
0.0028013562
0.0027720515
0.0027427203
0.0027133092
0.0026838701
0.0026543461
0.0026247924
0.0025951483
0.0025654727
0.002535701
0.0025058959
0.0024759885
0.0024460459
0.0024159945
0.0023859063
0.0023557025
0.0023254604
0.0022950955
0.0022646914
0.0022341568
0.0022035824
0.0021728697
0.0021421171
0.0021112179
0.0020802794
0.0020491856
0.0020180539
0.0019867578
0.001955426
0.0019239202
0.0018923821
0.0018606599
0.00182891
0.0017969652
0.0017649986
0.0017328258
0.0017006388
0.0016682333
0.0016358234
0.0016031816
0.0015705473
0.0015376668
0.0015048081
0.0014716876
0.0014386065
0.0014052464
0.0013719465
0.0013383486
0.0013048359
0.0012710042
0.0012372874
0.0012032283
0.0011693192
0.0011350412
0.0011009548
0.0010664699
0.0010322261
0.00099755014
0.00096317316
0.00092832553
0.00089384595
0.00085885186
0.00082430734
0.00078919803
0.00075463482
0.00071944909
0.00068492445
0.0006497095
0.00061529339
0.00058011066
0.00054589061
0.00051081179
0.0004768954
0.00044201624
0.00040854033
0.00037397673
0.00034111358
0.00030701735
0.0002749914
0.00024155903
0.000210666
0.0001781569
0.00014880285
0.00011756902
9.0338388e-05
6.083841e-05
3.6657659e-05
9.1767441e-06
0.036511484
0.036035085
0.033922988
0.030895497
0.027823163
0.025156513
0.022917322
0.020900455
0.018881517
0.016723293
0.014390188
0.011925102
0.0094234614
0.0070128336
0.0048306121
0.003000589
0.0016157652
0.00072197386
0.00030816747
0.0003086598
0.00062004169
0.0011259552
0.0017201916
0.0023204144
0.0028709825
0.003343148
0.0037282897
0.0040289733
0.0042537055
0.0044137921
0.0045213894
0.0045881621
0.0046244983
0.0046390932
0.0046389015
0.0046292274
0.0046139754
0.0045958738
0.0045767574
0.0045577577
0.0045395242
0.0045223385
0.0045062659
0.0044912041
0.0044769839
0.0044633743
0.0044501515
0.0044370755
0.0044239463
0.0044105671
0.0043967923
0.0043824829
0.0043675526
0.0043519173
0.0043355425
0.0043183893
0.0043004633
0.004281758
0.0042623068
0.0042421239
0.0042212594
0.0041997382
0.0041776184
0.0041549282
0.0041317275
0.0041080423
0.0040839305
0.0040594131
0.0040345437
0.0040093369
0.0039838412
0.0039580646
0.0039320511
0.0039058022
0.003879358
0.0038527146
0.0038259089
0.0037989325
0.0037718201
0.0037445596
0.0037171845
0.0036896792
0.0036620768
0.003634359
0.0036065586
0.0035786551
0.0035506814
0.0035226148
0.0034944886
0.003466278
0.003438017
0.0034096787
0.0033812977
0.0033528449
0.0033243559
0.0032957994
0.003267212
0.0032385602
0.0032098814
0.0031811402
0.0031523751
0.0031235482
0.0030946995
0.0030657888
0.0030368576
0.0030078631
0.0029788486
0.0029497688
0.0029206689
0.0028915007
0.002862312
0.0028330514
0.0028037692
0.0027744111
0.00274503
0.0027155684
0.0026860821
0.0026565102
0.0026269118
0.0025972223
0.0025675045
0.0025376895
0.0025078444
0.0024778958
0.0024479155
0.0024178248
0.0023877008
0.0023574595
0.0023271836
0.0022967829
0.0022663467
0.0022357779
0.0022051731
0.0021744276
0.0021436462
0.0021127156
0.0020817498
0.0020506259
0.0020194683
0.0019881433
0.001956787
0.0019252535
0.0018936921
0.0018619432
0.0018301713
0.0017982007
0.0017662134
0.0017340157
0.0017018091
0.0016693796
0.0016369511
0.0016042861
0.0015716344
0.0015387313
0.0015058562
0.0014727138
0.0014396173
0.0014062358
0.0013729216
0.0013393029
0.0013057768
0.0012719248
0.0012381955
0.0012041165
0.0011701959
0.0011358983
0.0011018014
0.0010672973
0.0010330438
0.00099834895
0.0009639632
0.0009290969
0.00089460947
0.00085959688
0.00082504542
0.00078991773
0.00075534852
0.00072014447
0.00068561479
0.00065038153
0.00061596131
0.00058076025
0.0005465371
0.00051143983
0.00047752132
0.0004426236
0.00040914659
0.00037456422
0.00034170103
0.00030758579
0.00027556085
0.0002421092
0.00021121822
0.00017868953
0.00014933852
0.00011808487
9.0858132e-05
6.1339863e-05
3.7141382e-05
9.6269822e-06
0.03422405
0.034012308
0.032589081
0.030227811
0.027500861
0.02490158
0.022614797
0.020569938
0.018594669
0.016546412
0.014368427
0.01208533
0.0097771201
0.0075537119
0.0055319803
0.0038167106
0.0024868313
0.0015838862
0.0011048305
0.001002086
0.0011939005
0.0015823162
0.0020724896
0.0025864028
0.0030689943
0.0034895954
0.0038370209
0.0041115861
0.0043194605
0.0044695156
0.0045716765
0.0046358203
0.0046710646
0.0046852706
0.0046848874
0.0046749289
0.0046591566
0.0046402433
0.0046200294
0.0045996807
0.0045799011
0.0045610273
0.0045431817
0.0045263075
0.0045102768
0.0044948839
0.0044799289
0.0044651893
0.0044504816
0.0044356152
0.0044204507
0.0044048464
0.0043887157
0.0043719679
0.0043545656
0.0043364613
0.0043176568
0.0042981371
0.0042779319
0.0042570471
0.0042355302
0.0042133987
0.0041907088
0.0041674823
0.0041437782
0.0041196171
0.0040950567
0.0040701132
0.0040448409
0.0040192499
0.0039933902
0.0039672657
0.0039409219
0.0039143567
0.003887612
0.0038606804
0.0038336007
0.0038063613
0.0037789989
0.0037514981
0.0037238945
0.0036961695
0.0036683581
0.0036404391
0.0036124474
0.0035843595
0.0035562104
0.0035279744
0.0034996872
0.0034713209
0.0034429118
0.0034144299
0.0033859124
0.0033573271
0.0033287122
0.0033000331
0.0032713292
0.0032425637
0.0032137771
0.0031849303
0.003156065
0.00312714
0.0030981982
0.003069196
0.0030401782
0.0030110983
0.002982003
0.0029528433
0.0029236679
0.002894425
0.0028651657
0.0028358351
0.0028064868
0.0027770629
0.0027476199
0.0027180964
0.002688552
0.0026589218
0.0026292689
0.0025995244
0.0025697553
0.0025398885
0.0025099952
0.0024799976
0.0024499717
0.0024198347
0.0023896679
0.0023593826
0.0023290663
0.0022986239
0.0022681495
0.0022375411
0.0022069003
0.0021761172
0.0021453018
0.0021143353
0.0020833374
0.0020521793
0.0020209914
0.0019896337
0.0019582488
0.001926684
0.0018950956
0.0018633168
0.0018315193
0.0017995201
0.0017675086
0.0017352834
0.001703054
0.0016705981
0.0016381481
0.0016054577
0.0015727856
0.001539858
0.0015069639
0.0014737978
0.0014406833
0.001407279
0.0013739478
0.0013403069
0.001306765
0.0012728914
0.0012391474
0.0012050474
0.001171113
0.001136795
0.0011026852
0.0010681612
0.0010338958
0.00099918137
0.00096478461
0.00092989913
0.0008954016
0.00086037014
0.00082580946
0.00079066316
0.00075608559
0.00072086313
0.00068632594
0.00065107443
0.0006166475
0.0005814283
0.00054719924
0.00051208388
0.0004781602
0.00044324443
0.0004097629
0.00037516247
0.00034229529
0.00030816198
0.00027613335
0.00024266363
0.00021176889
0.0001792222
0.00014986659
0.0001185956
9.1360848e-05
6.1831957e-05
3.7570168e-05
1.0014479e-05
0.032399395
0.032266349
0.031218282
0.029346753
0.026989681
0.024555
0.02229595
0.020248473
0.018312575
0.016367173
0.01434371
0.012244602
0.010128956
0.0080870794
0.0062175032
0.0046100992
0.0033337838
0.0024273745
0.0018940522
0.001700462
0.0017828679
0.0020600016
0.0024486911
0.0028769325
0.0032916532
0.003660816
0.0039702745
0.0042176094
0.0044067562
0.004544616
0.0046393236
0.0046992051
0.0047321564
0.004745147
0.0047440277
0.00473343
0.0047168967
0.0046969869
0.004675506
0.0046536259
0.0046320901
0.0046112823
0.0045913812
0.004572378
0.0045541919
0.0045366522
0.0045195922
0.0045028103
0.0044861436
0.0044694105
0.004452481
0.0044352132
0.004417523
0.0043993143
0.0043805486
0.0043611704
0.0043411791
0.0043205507
0.004299312
0.00427746
0.0042550397
0.0042320601
0.0042085758
0.0041846008
0.0041601932
0.0041353666
0.0041101788
0.0040846397
0.0040588042
0.0040326771
0.0040063093
0.0039796997
0.0039528955
0.00392589
0.0038987268
0.0038713943
0.0038439334
0.0038163282
0.0037886179
0.0037607829
0.0037328612
0.0037048301
0.0036767275
0.0036485281
0.0036202694
0.0035919241
0.00356353
0.0035350576
0.0035065452
0.0034779612
0.0034493449
0.0034206624
0.0033919539
0.0033631835
0.0033343922
0.003305542
0.003276675
0.0032477511
0.0032188136
0.0031898199
0.0031608148
0.0031317534
0.0031026819
0.0030735529
0.0030444144
0.0030152166
0.0029860091
0.0029567396
0.0029274597
0.0028981144
0.0028687576
0.0028393313
0.0028098921
0.0027803788
0.0027508508
0.0027212435
0.0026916198
0.0026619111
0.0026321839
0.0026023658
0.0025725271
0.0025425911
0.0025126326
0.0024825699
0.0024524829
0.0024222847
0.0023920603
0.0023617174
0.0023313471
0.0023008503
0.0022703251
0.0022396654
0.0022089767
0.0021781451
0.0021472846
0.0021162722
0.0020852319
0.0020540303
0.0020228023
0.0019914034
0.0019599807
0.0019283768
0.0018967527
0.0018649367
0.0018331056
0.0018010709
0.0017690277
0.0017367687
0.0017045094
0.0016720213
0.001639543
0.0016068218
0.001574123
0.001541166
0.0015082466
0.0014750523
0.001441914
0.0014084826
0.001375129
0.0013414621
0.001307899
0.0012740005
0.0012402365
0.0012061124
0.0011721591
0.0011378179
0.0011036904
0.0010691438
0.0010348618
0.0010001255
0.00096571309
0.00093080638
0.00089629415
0.00086124204
0.00082666754
0.00079150111
0.00075691053
0.00072166841
0.00068711896
0.00065184823
0.00061740968
0.00058217166
0.00054793149
0.0005127977
0.00047886324
0.00044392944
0.00041043721
0.00037581915
0.00034294099
0.00030879054
0.00027675001
0.00024326378
0.00021235516
0.000179793
0.00015041933
0.0001191359
9.1871458e-05
6.2344983e-05
3.7958178e-05
1.0357463e-05
0.030823886
0.030702766
0.029863457
0.028339965
0.026329099
0.024122511
0.021963779
0.019953735
0.018064171
0.016211391
0.014328723
0.012401323
0.010465994
0.0085925689
0.0068630233
0.0053550525
0.0041300995
0.0032252718
0.0026485494
0.0023775125
0.0023630765
0.0025385799
0.002832178
0.0031786874
0.0035277322
0.0038465518
0.0041184096
0.0043381572
0.0045075682
0.0046318421
0.0047176522
0.0047720096
0.0048016901
0.0048127708
0.0048104557
0.0047989328
0.0047814734
0.0047604797
0.0047376915
0.0047142645
0.0046909664
0.0046682169
0.0046462444
0.0046250837
0.0046047005
0.0045849584
0.0045657255
0.00454682
0.0045281004
0.0045093939
0.0044905825
0.004471525
0.0044521427
0.0044323349
0.0044120646
0.0043912689
0.004369947
0.0043480658
0.0043256513
0.0043026912
0.0042792293
0.0042552656
0.0042308543
0.0042060006
0.004180763
0.0041551471
0.0041292116
0.0041029592
0.0040764464
0.0040496714
0.0040226871
0.0039954865
0.0039681193
0.003940573
0.0039128941
0.0038850656
0.0038571316
0.0038290709
0.0038009259
0.0037726719
0.0037443504
0.0037159338
0.0036874633
0.0036589086
0.0036303111
0.0036016383
0.0035729318
0.0035441572
0.0035153565
0.0034864935
0.0034576108
0.0034286703
0.0033997154
0.003370706
0.0033416865
0.0033126148
0.0032835364
0.0032544069
0.003225273
0.0031960883
0.0031669007
0.0031376616
0.0031084203
0.0030791259
0.0030498293
0.0030204772
0.0029911223
0.0029617088
0.0029322914
0.0029028116
0.0028733264
0.0028437743
0.0028142151
0.0027845841
0.0027549438
0.0027252263
0.0026954974
0.0026656854
0.0026358597
0.0026059448
0.0025760137
0.0025459868
0.0025159415
0.0024857935
0.002455625
0.0024253465
0.0023950457
0.0023646273
0.002334185
0.0023036172
0.0022730243
0.0022422976
0.0022115453
0.0021806505
0.0021497301
0.0021186581
0.0020875612
0.0020563034
0.0020250221
0.00199357
0.001962097
0.0019304428
0.0018987714
0.0018669077
0.0018350318
0.0018029521
0.0017708665
0.0017385648
0.0017062655
0.0016737367
0.0016412207
0.0016084609
0.0015757264
0.0015427327
0.0015097795
0.0014765503
0.00144338
0.0014099153
0.0013765314
0.0013428328
0.001309241
0.0012753121
0.0012415209
0.0012073678
0.0011733887
0.0011390198
0.0011048678
0.0010702947
0.0010359893
0.0010012275
0.00096679291
0.00093186175
0.00089732832
0.00086225271
0.0008276579
0.00079246886
0.0007578587
0.00072259483
0.00068802644
0.00065273481
0.00061827767
0.00058301956
0.00054876094
0.00051360794
0.00047965482
0.0004447027
0.00041119103
0.0003765557
0.00034365661
0.00030949016
0.00027742592
0.00024392538
0.0002129881
0.0001804145
0.00015100244
0.000119715
9.2387498e-05
6.288158e-05
3.8294999e-05
1.0647439e-05
0.029409731
0.029281105
0.028571859
0.027301634
0.025588028
0.023627241
0.021618715
0.019687479
0.017858075
0.016089493
0.014329318
0.012554026
0.010781354
0.0090614411
0.0074604443
0.0060450681
0.0048706798
0.0039730906
0.0033638593
0.0030288362
0.0029305953
0.0030149914
0.0032208864
0.0034902845
0.0037761
0.004045571
0.0042799993
0.0044717775
0.0046206067
0.0047301112
0.0048057022
0.0048532664
0.0048785784
0.0048868621
0.0048826635
0.0048696925
0.004850913
0.0048285386
0.0048042202
0.0047790777
0.0047538898
0.0047290999
0.0047049788
0.0046815972
0.0046589637
0.0046369715
0.0046155216
0.0045944489
0.0045736325
0.0045529066
0.0045321663
0.0045112702
0.0044901465
0.0044686895
0.0044468652
0.0044246028
0.0044019023
0.0043787209
0.0043550846
0.004330971
0.0043064237
0.0042814326
0.0042560522
0.004230278
0.0042041695
0.0041777233
0.0041509998
0.0041239934
0.0040967632
0.0040692994
0.0040416583
0.0040138254
0.0039858543
0.0039577253
0.0039294894
0.0039011227
0.0038726737
0.0038441147
0.0038154928
0.0037867771
0.0037580136
0.0037291686
0.003700288
0.0036713356
0.0036423575
0.0036133152
0.0035842551
0.003555137
0.0035260075
0.0034968249
0.0034676363
0.003438398
0.0034091582
0.0033798713
0.0033505863
0.0033212557
0.0032919295
0.0032625582
0.0032331929
0.0032037822
0.0031743784
0.0031449278
0.0031154842
0.0030859919
0.0030565059
0.0030269683
0.002997436
0.0029678486
0.0029382648
0.0029086219
0.0028789805
0.0028492753
0.0028195695
0.0027897946
0.0027600166
0.002730164
0.0027003055
0.0026703665
0.002640419
0.0026103844
0.0025803387
0.0025501992
0.002520046
0.002489792
0.0024595218
0.0024291434
0.0023987467
0.0023682341
0.0023377014
0.0023070447
0.0022763665
0.002245556
0.002214723
0.0021837491
0.0021527525
0.0021216058
0.0020904369
0.0020591085
0.0020277592
0.0019962403
0.0019647029
0.0019329856
0.0019012532
0.0018693298
0.0018373961
0.0018052598
0.0017731196
0.0017407643
0.0017084132
0.0016758337
0.0016432684
0.0016104605
0.0015776794
0.00154464
0.0015116426
0.0014783701
0.0014451577
0.0014116519
0.0013782279
0.0013444902
0.0013108603
0.0012768944
0.0012430668
0.0012088784
0.0011748646
0.0011404621
0.001106277
0.0010716718
0.0010373347
0.0010025425
0.00096807735
0.00093311719
0.00089855432
0.00086345113
0.00082882775
0.00079361247
0.00075897435
0.0007236856
0.00068908967
0.00065377457
0.00061928988
0.00058400959
0.00054972301
0.00051454944
0.00048056732
0.00044559621
0.00041205355
0.00037740125
0.00034446792
0.00031028697
0.00027818296
0.00024467141
0.00021368494
0.00018110631
0.00015162713
0.00012034836
9.291206e-05
6.3447416e-05
3.8580309e-05
1.0894598e-05
0.028119401
0.027981982
0.027365014
0.026286107
0.024817796
0.023090813
0.021256512
0.019436202
0.017684568
0.015997043
0.014342584
0.012698348
0.011069128
0.0094877944
0.008005431
0.0066781379
0.0055553813
0.0046713744
0.0040401383
0.0036538133
0.0034843082
0.0034881415
0.0036140225
0.0038111612
0.0040362635
0.004257313
0.0044543678
0.0046177783
0.0047453109
0.0048390646
0.0049032806
0.0049428519
0.0049626705
0.0049671759
0.0049602785
0.0049452011
0.0049245787
0.0049004115
0.0048742399
0.0048471288
0.0048198531
0.004792867
0.0047664741
0.0047407719
0.0047158064
0.0046914945
0.0046677666
0.0046444709
0.0046215061
0.0045987115
0.004575995
0.0045532144
0.0045303057
0.0045071574
0.0044837395
0.0044599724
0.0044358577
0.0044113424
0.0043864532
0.0043611563
0.0043354964
0.0043094519
0.0042830785
0.004256361
0.0042293607
0.0042020638
0.0041745338
0.0041467551
0.0041187906
0.004090621
0.0040623074
0.0040338263
0.0040052363
0.0039765094
0.0039477019
0.0039187817
0.0038898034
0.0038607311
0.003831618
0.0038024252
0.0037732052
0.0037439164
0.0037146109
0.0036852451
0.0036558712
0.0036264433
0.0035970141
0.0035675359
0.0035380619
0.0035085427
0.003479032
0.0034494788
0.0034199376
0.0033903556
0.0033607882
0.0033311808
0.0033015896
0.0032719585
0.0032423445
0.0032126895
0.0031830519
0.0031533716
0.003123708
0.0030939993
0.0030643062
0.0030345648
0.0030048373
0.0029750577
0.0029452899
0.0029154655
0.0028856506
0.0028557741
0.0028259043
0.0027959677
0.0027660348
0.0027360293
0.0027060246
0.002675941
0.0026458551
0.0026156838
0.0025855071
0.0025552383
0.0025249612
0.0024945847
0.0024641971
0.0024337029
0.002403195
0.0023725726
0.0023419344
0.0023111738
0.0022803956
0.0022494865
0.0022185588
0.0021874914
0.0021564049
0.0021251697
0.0020939154
0.0020625029
0.0020310725
0.001999474
0.0019678595
0.0019360666
0.0019042609
0.0018722658
0.0018402625
0.0018080581
0.0017758516
0.0017434317
0.0017110175
0.0016783767
0.0016457514
0.0016128852
0.0015800468
0.0015469521
0.0015139
0.001480575
0.0014473105
0.0014137547
0.0013802809
0.0013464958
0.0013128183
0.0012788073
0.0012449341
0.0012107028
0.0011766451
0.0011422019
0.0011079747
0.0010733309
0.0010389531
0.0010041242
0.00096961955
0.00093462468
0.00090002337
0.00086488738
0.0008302263
0.00079498008
0.00076030461
0.0007249868
0.00069035361
0.00065501153
0.00062048897
0.00058518363
0.00055085795
0.00051566183
0.00048163844
0.00044664732
0.00041305969
0.00037839069
0.00034540675
0.0003112133
0.00027904939
0.0002455314
0.00021446964
0.00018189475
0.00015231208
0.0001210575
9.3457775e-05
6.4052327e-05
3.8828853e-05
1.1125322e-05
0.026934716
0.026793585
0.026249471
0.025318623
0.024049923
0.022531515
0.020874895
0.019184397
0.017526807
0.015922763
0.014362759
0.012831406
0.011327306
0.0098702791
0.0084978494
0.007255545
0.006186391
0.0053222525
0.0046785876
0.0042523811
0.0040231466
0.0039564947
0.0040100061
0.0041398519
0.0043068961
0.004480559
0.0046403624
0.004775095
0.0048807817
0.0049580314
0.0050099396
0.0050404789
0.0050537585
0.0050535193
0.0050430848
0.0050252059
0.0050021811
0.004975779
0.0049474087
0.0049180605
0.0048884883
0.0048591428
0.004830349
0.0048022228
0.0047748397
0.0047481352
0.0047220646
0.0046964869
0.0046713186
0.0046464027
0.0046216594
0.0045969452
0.0045722037
0.0045473176
0.0045222614
0.0044969461
0.0044713759
0.0044454868
0.0044193067
0.0043927904
0.0043659837
0.0043388532
0.0043114564
0.0042837665
0.0042558474
0.0042276745
0.0041993142
0.0041707408
0.0041420211
0.0041131263
0.0040841221
0.0040549756
0.0040257509
0.0039964109
0.003967018
0.0039375312
0.0039080113
0.0038784138
0.0038487987
0.0038191182
0.003789432
0.0037596897
0.0037299506
0.0037001624
0.0036703847
0.0036405629
0.0036107571
0.003580911
0.0035510853
0.0035212219
0.0034913824
0.0034615068
0.0034316576
0.0034017733
0.003371917
0.0033420256
0.0033121632
0.0032822648
0.0032523957
0.003222489
0.0031926111
0.0031626933
0.0031328032
0.0031028703
0.0030729633
0.00304301
0.0030130804
0.0029831002
0.0029531413
0.002923127
0.0028931311
0.0028630747
0.0028330334
0.0028029261
0.0027728306
0.0027426631
0.002712504
0.0026822666
0.0026520341
0.0026217167
0.0025914008
0.002560993
0.0025305835
0.0025000748
0.0024695614
0.0024389413
0.0024083137
0.0023775716
0.0023468194
0.0023159447
0.0022850579
0.0022540403
0.002223009
0.0021918383
0.0021606531
0.0021293193
0.0020979709
0.0020664646
0.0020349443
0.0020032563
0.0019715562
0.0019396779
0.0019077904
0.001875714
0.0018436326
0.0018113506
0.0017790694
0.0017465756
0.00171409
0.0016813786
0.0016486849
0.0016157515
0.0015828477
0.0015496889
0.0015165742
0.001483188
0.0014498633
0.0014162492
0.0013827176
0.001348877
0.001315144
0.0012810801
0.0012471534
0.0012128716
0.0011787623
0.0011442711
0.0011099939
0.0010753046
0.0010408781
0.0010060059
0.00097145368
0.00093641793
0.00090176987
0.00086659533
0.00083188796
0.00079660553
0.00076188366
0.00072653205
0.000691852
0.00065647893
0.00062190803
0.0005865743
0.00055219798
0.00051697704
0.00048289929
0.00044788699
0.00041423912
0.0003795539
0.00034650102
0.00031229771
0.00028005095
0.00024653222
0.00021536528
0.0001828043
0.00015307743
0.00012186209
9.4042223e-05
6.4705192e-05
3.9064927e-05
1.1368663e-05
0.02584463
0.025706117
0.025222999
0.024409712
0.02330301
0.02196447
0.020476102
0.018922612
0.017370696
0.015855412
0.014384456
0.012952623
0.011557983
0.010212114
0.0089413493
0.0077810261
0.0067671361
0.0059283256
0.0052805323
0.0048244491
0.0045458596
0.0044181351
0.0044067317
0.0044743726
0.0045862756
0.0047138612
0.0048367541
0.0049426708
0.0050261395
0.0050863418
0.0051252296
0.0051458878
0.0051517147
0.0051458373
0.0051310574
0.0051096886
0.0050836992
0.005054617
0.0050237006
0.0049918468
0.0049597696
0.0049279024
0.0048965784
0.0048659232
0.0048360344
0.004806861
0.004778379
0.0047504564
0.0047230247
0.0046959306
0.0046691047
0.0046424026
0.0046157747
0.0045890987
0.0045623524
0.0045354392
0.0045083643
0.0044810541
0.0044535372
0.0044257575
0.0043977612
0.0043695044
0.0043410453
0.0043123465
0.0042834735
0.0042543915
0.0042251696
0.0041957722
0.0041662694
0.0041366234
0.0041069038
0.004077069
0.0040471877
0.0040172144
0.0039872168
0.0039571454
0.0039270668
0.0038969284
0.0038667961
0.0038366142
0.0038064483
0.0037762401
0.0037460556
0.0037158341
0.003685642
0.0036554164
0.0036252247
0.003595002
0.0035648163
0.003534601
0.0035044251
0.0034742202
0.0034440564
0.0034138633
0.0033837123
0.003353531
0.0033233919
0.003293221
0.0032630918
0.0032329285
0.0032028058
0.003172646
0.0031425252
0.0031123637
0.003082239
0.0030520695
0.0030219342
0.0029917493
0.0029615958
0.0029313875
0.0029012072
0.0028709667
0.0028407507
0.0028104685
0.0027802072
0.0027498734
0.0027195569
0.0026891612
0.002658779
0.0026283109
0.0025978526
0.0025673011
0.002536756
0.0025061103
0.0024754676
0.0024447169
0.0024139659
0.002383099
0.0023522292
0.0023212352
0.0022902362
0.0022591045
0.002227966
0.0021966861
0.0021653984
0.0021339603
0.0021025139
0.0020709076
0.0020392936
0.0020075099
0.0019757199
0.0019437502
0.0019117767
0.0018796125
0.0018474486
0.0018150826
0.0017827224
0.001750148
0.0017175865
0.001684798
0.0016520315
0.0016190241
0.0015860502
0.0015528206
0.0015196385
0.0014861846
0.0014527949
0.0014191158
0.0013855216
0.0013516188
0.0013178253
0.0012837019
0.0012497165
0.0012153779
0.0011812115
0.001146666
0.0011123333
0.0010775924
0.0010431114
0.00100819
0.0009735842
0.00093850184
0.00090380066
0.00086858218
0.00083382163
0.00079849803
0.00076372223
0.00072833233
0.0006935971
0.00065818925
0.00062356061
0.00058819541
0.00055375763
0.00051850991
0.00048436512
0.00044933093
0.00041560756
0.00038090716
0.0003477666
0.00031355674
0.00028120342
0.0002476902
0.00021638748
0.00018385003
0.00015393909
0.00012277336
9.4682715e-05
6.5410117e-05
3.931548e-05
1.1645185e-05
0.024840764
0.024710757
0.02428049
0.023562974
0.022588088
0.021401974
0.02006612
0.018647992
0.017207758
0.015786415
0.014403129
0.01306232
0.01176498
0.010518607
0.0093412167
0.0082590696
0.00730099
0.006491706
0.0058467434
0.0053694933
0.0050508698
0.0048708395
0.0048017738
0.0048124573
0.004872489
0.004955693
0.0050423335
0.0051195245
0.0051805826
0.0052233729
0.0052487206
0.0052588346
0.0052564471
0.0052441428
0.0052242692
0.0051987505
0.0051692445
0.0051370387
0.0051032271
0.0050685968
0.0050338031
0.0049992476
0.0049652587
0.0049319638
0.0048994743
0.0048677491
0.0048367799
0.0048064429
0.0047766816
0.0047473465
0.0047183766
0.0046896274
0.0046610542
0.0046325311
0.0046040379
0.0045754718
0.0045468378
0.0045180544
0.0044891491
0.0044600573
0.0044308237
0.0044013955
0.00437183
0.0043420813
0.0043122144
0.0042821864
0.0042520665
0.0042218119
0.0041914936
0.0041610666
0.0041306023
0.0041000527
0.0040694886
0.0040388584
0.0040082324
0.0039775553
0.003946897
0.0039161986
0.0038855301
0.0038548294
0.0038241668
0.0037934774
0.0037628319
0.0037321631
0.0037015426
0.0036709008
0.0036403104
0.0036096998
0.0035791425
0.0035485651
0.0035180425
0.0034874991
0.0034570112
0.0034265011
0.0033960467
0.0033655681
0.0033351446
0.0033046944
0.0032742982
0.0032438721
0.0032134983
0.003183091
0.0031527337
0.0031223386
0.0030919911
0.0030616008
0.0030312551
0.0030008614
0.002970509
0.0029401028
0.0029097344
0.0028793062
0.0028489119
0.0028184515
0.0027880212
0.0027575181
0.002727041
0.0026964842
0.0026659496
0.0026353279
0.0026047246
0.0025740267
0.0025433436
0.0025125582
0.0024817841
0.0024508997
0.0024200235
0.0023890289
0.0023580396
0.0023269235
0.0022958103
0.0022645616
0.002233314
0.0022019221
0.0021705301
0.0021389845
0.0021074384
0.002075729
0.0020440194
0.0020121367
0.0019802553
0.0019481904
0.0019161292
0.0018838736
0.0018516255
0.0018191717
0.0017867306
0.0017540718
0.0017214327
0.0016885629
0.0016557216
0.0016226361
0.0015895902
0.0015562855
0.001523034
0.0014895078
0.0014560511
0.0014223024
0.0013886432
0.0013546736
0.0013208172
0.0012866297
0.0012525831
0.0012181828
0.0011839566
0.0011493522
0.001114961
0.0010801637
0.0010456249
0.0010106498
0.00097598656
0.00094085329
0.00090609466
0.00087082821
0.00083600955
0.00080064106
0.00076580561
0.00073037414
0.00069557707
0.00066013183
0.00062543753
0.00059003889
0.00055553019
0.00052025483
0.00048603151
0.00045097571
0.0004171627
0.00038244903
0.00034920321
0.00031499058
0.00028250859
0.00024900657
0.00021754048
0.00018503314
0.00015490463
0.00012379046
9.5391478e-05
6.6164461e-05
3.9603181e-05
1.1959814e-05
0.023916261
0.023800144
0.023416858
0.022778759
0.021911881
0.020853789
0.01965252
0.018362119
0.017034375
0.015710215
0.014414993
0.013160429
0.0119516
0.010794825
0.0097026178
0.0086938935
0.0077908214
0.007013884
0.0063774359
0.0058866106
0.0055363886
0.0053122629
0.0051926111
0.0051517497
0.0051635514
0.0052044897
0.0052558928
0.0053047023
0.0053433337
0.0053684978
0.0053799426
0.0053790153
0.0053678053
0.0053484067
0.0053227718
0.0052924889
0.0052589343
0.0052231664
0.0051861082
0.005148425
0.0051106962
0.005073279
0.005036483
0.0050004303
0.0049652373
0.0049308704
0.0048973316