/*--------------------------------*- C++ -*----------------------------------*\
| =========                 |                                                 |
| \\      /  F ield         | OpenFOAM: The Open Source CFD Toolbox           |
|  \\    /   O peration     | Version:  5.x                                   |
|   \\  /    A nd           | Web:      www.OpenFOAM.org                      |
|    \\/     M anipulation  |                                                 |
\*---------------------------------------------------------------------------*/
FoamFile
{
    version     2.0;
    format      ascii;
    class       surfaceScalarField;
    location    "1";
    object      phi;
}
// * * * * * * * * * * * * * * * * * * * * * * * * * * * * * * * * * * * * * //

dimensions      [0 3 -1 0 0 0 0];

internalField   nonuniform List<scalar> 
42870
(
7.8542642e-08
2.93509e-09
-8.1477732e-08
7.4595009e-08
3.9476332e-09
7.0433497e-08
4.1615122e-09
6.6323901e-08
4.1095957e-09
6.2256313e-08
4.0675878e-09
5.8186972e-08
4.0693412e-09
5.4107913e-08
4.0790587e-09
5.003866e-08
4.0692535e-09
4.6019064e-08
4.0195953e-09
4.209825e-08
3.9208146e-09
3.8329094e-08
3.7691562e-09
3.4766718e-08
3.5623759e-09
3.1471691e-08
3.2950264e-09
2.8500588e-08
2.9711031e-09
2.5894015e-08
2.6065731e-09
2.3679938e-08
2.2140767e-09
2.1860908e-08
1.8190303e-09
2.0411983e-08
1.4489248e-09
1.9286523e-08
1.1254602e-09
1.842703e-08
8.5949284e-10
1.7774549e-08
6.5248064e-10
1.7275174e-08
4.9937542e-10
1.6883247e-08
3.9192733e-10
1.6562266e-08
3.2098083e-10
1.6285737e-08
2.765285e-10
1.603479e-08
2.509477e-10
1.5796104e-08
2.3868571e-10
1.5561343e-08
2.3476054e-10
1.5326256e-08
2.3508729e-10
1.5089421e-08
2.3683469e-10
1.4851149e-08
2.3827235e-10
1.4612631e-08
2.3851808e-10
1.4375414e-08
2.3721672e-10
1.4141041e-08
2.3437327e-10
1.3910885e-08
2.3015603e-10
1.3686042e-08
2.248424e-10
1.3467336e-08
2.187068e-10
1.3255302e-08
2.1203394e-10
1.3050254e-08
2.0504799e-10
1.2852296e-08
1.9795742e-10
1.2661396e-08
1.9089992e-10
1.2477395e-08
1.8400171e-10
1.2300068e-08
1.7732632e-10
1.2129129e-08
1.7093935e-10
1.1964274e-08
1.6485484e-10
1.1805173e-08
1.591008e-10
1.1651511e-08
1.5366217e-10
1.1502961e-08
1.4854997e-10
1.1359225e-08
1.437364e-10
1.1220002e-08
1.392232e-10
1.1085026e-08
1.3497539e-10
1.0954034e-08
1.3099205e-10
1.0826798e-08
1.2723628e-10
1.070309e-08
1.2370788e-10
1.058272e-08
1.203703e-10
1.0465494e-08
1.172256e-10
1.0351255e-08
1.1423867e-10
1.0239841e-08
1.1141453e-10
1.0131121e-08
1.0871995e-10
1.0024958e-08
1.0616306e-10
9.9212452e-09
1.0371259e-10
9.8198656e-09
1.0137961e-10
9.7207311e-09
9.9134573e-11
9.6237399e-09
9.6991178e-11
9.5288186e-09
9.4921271e-11
9.4358779e-09
9.2940742e-11
9.3448554e-09
9.1022487e-11
9.2556712e-09
8.918414e-11
9.1682719e-09
8.7399356e-11
9.0825848e-09
8.5687098e-11
8.9985633e-09
8.4021502e-11
8.9161407e-09
8.2422553e-11
8.835276e-09
8.0864674e-11
8.7559075e-09
7.9368572e-11
8.6779986e-09
7.7908855e-11
8.6014919e-09
7.6506741e-11
8.5263549e-09
7.5136972e-11
8.4525338e-09
7.3821087e-11
8.3799998e-09
7.2533975e-11
8.3087025e-09
7.1297357e-11
8.2386162e-09
7.0086301e-11
8.1696936e-09
6.8922575e-11
8.1019121e-09
6.7781523e-11
8.0352272e-09
6.6684865e-11
7.9696189e-09
6.560828e-11
7.9050456e-09
6.4573316e-11
7.8414895e-09
6.3556106e-11
7.7789116e-09
6.2577908e-11
7.7172962e-09
6.161542e-11
7.6566067e-09
6.0689487e-11
7.5968292e-09
5.9777492e-11
7.5379295e-09
5.8899735e-11
7.4798951e-09
5.8034406e-11
7.4226939e-09
5.7201117e-11
7.3663149e-09
5.6379001e-11
7.3107281e-09
5.5586832e-11
7.2559233e-09
5.480482e-11
7.2018726e-09
5.4050741e-11
7.1485665e-09
5.3306033e-11
7.0959792e-09
5.2587308e-11
7.0441018e-09
5.1877378e-11
6.9929103e-09
5.1191521e-11
6.9423962e-09
5.0514088e-11
6.8925374e-09
4.9858844e-11
6.8433255e-09
4.9211836e-11
6.7947404e-09
4.8585141e-11
6.7467737e-09
4.796668e-11
6.6994071e-09
4.7366646e-11
6.6526321e-09
4.6775018e-11
6.6064321e-09
4.6199916e-11
6.5607986e-09
4.5633551e-11
6.5157168e-09
4.5081781e-11
6.4711776e-09
4.453924e-11
6.4271682e-09
4.400933e-11
6.3836789e-09
4.3489298e-11
6.3406991e-09
4.2979885e-11
6.2982179e-09
4.2481146e-11
6.2562269e-09
4.1990967e-11
6.2147145e-09
4.1512404e-11
6.1736743e-09
4.1040293e-11
6.1330934e-09
4.0580875e-11
6.0929676e-09
4.0125747e-11
6.0532831e-09
3.9684524e-11
6.0140377e-09
3.9245374e-11
5.9752163e-09
3.8821464e-11
5.9368189e-09
3.8397354e-11
5.898829e-09
3.7989938e-11
5.861249e-09
3.758e-11
5.8240607e-09
3.718832e-11
5.7872689e-09
3.6791753e-11
5.7508538e-09
3.6415103e-11
5.7148226e-09
3.6031164e-11
5.6791537e-09
3.5668886e-11
5.6438569e-09
3.5296883e-11
5.6089085e-09
3.4948351e-11
5.5743209e-09
3.4587646e-11
5.5400686e-09
3.4252274e-11
5.5061663e-09
3.3902288e-11
5.4725868e-09
3.3579522e-11
5.4393471e-09
3.323973e-11
5.406418e-09
3.2929041e-11
5.3738191e-09
3.2598958e-11
5.3415192e-09
3.2299833e-11
5.3095402e-09
3.197903e-11
5.2778492e-09
3.169097e-11
5.2464701e-09
3.1379078e-11
5.2153685e-09
3.1101599e-11
5.1845702e-09
3.0798303e-11
5.1540393e-09
3.0530915e-11
5.1238034e-09
3.0235952e-11
5.0938252e-09
2.9978169e-11
5.0641339e-09
2.969135e-11
5.0346912e-09
2.9442677e-11
5.0055273e-09
2.9163885e-11
4.9766035e-09
2.8923788e-11
4.9479505e-09
2.865297e-11
4.9195296e-09
2.8420899e-11
4.8913715e-09
2.8158111e-11
4.863438e-09
2.7933504e-11
4.8357591e-09
2.767891e-11
4.808298e-09
2.7461096e-11
4.7810831e-09
2.7214946e-11
4.7540799e-09
2.7003195e-11
4.727314e-09
2.6765902e-11
4.7007545e-09
2.6559474e-11
4.6744229e-09
2.633165e-11
4.6482932e-09
2.6129609e-11
4.6223812e-09
2.5911993e-11
4.596668e-09
2.571323e-11
4.5711612e-09
2.5506852e-11
4.5458509e-09
2.5310288e-11
4.5207344e-09
2.5116477e-11
4.4958138e-09
2.4920586e-11
4.4710728e-09
2.4741007e-11
4.4465287e-09
2.4544114e-11
4.4221478e-09
2.4380913e-11
4.3979667e-09
2.4181052e-11
4.3739299e-09
2.403685e-11
4.3500982e-09
2.3831632e-11
4.3263881e-09
2.371012e-11
4.3028917e-09
2.3496388e-11
4.2794902e-09
2.3401524e-11
4.2563141e-09
2.3176105e-11
4.2332e-09
2.3114124e-11
4.2103279e-09
2.287207e-11
4.1874781e-09
2.2849817e-11
4.1648921e-09
2.2586029e-11
4.1422784e-09
2.2613721e-11
4.1199574e-09
2.2320966e-11
4.0975457e-09
2.2411699e-11
4.0754647e-09
2.2080983e-11
4.0532112e-09
2.2253466e-11
4.031338e-09
2.1873205e-11
4.0091832e-09
2.2154812e-11
3.9874747e-09
2.1708524e-11
3.9653336e-09
2.2141127e-11
3.9437309e-09
2.1602683e-11
3.921481e-09
2.2249845e-11
3.8999366e-09
2.1544446e-11
2.349704e-11
8.5875451e-08
2.6011767e-09
-8.5541538e-08
8.6014359e-08
3.8087248e-09
8.5662352e-08
4.5135198e-09
8.5028751e-08
4.7431961e-09
8.425532e-08
4.8410191e-09
8.3360253e-08
4.9644087e-09
8.2303417e-08
5.1358941e-09
8.1061882e-08
5.3107889e-09
7.9640902e-08
5.4405753e-09
7.8061242e-08
5.5004744e-09
7.634823e-08
5.4821685e-09
7.4529297e-08
5.381309e-09
7.2631842e-08
5.192481e-09
7.0684971e-08
4.9179745e-09
6.872361e-08
4.5679337e-09
6.6781343e-08
4.156344e-09
6.4890617e-08
3.7097561e-09
6.3078523e-08
3.261019e-09
6.1362806e-08
2.8411773e-09
5.975064e-08
2.4716585e-09
5.8240785e-08
2.1623354e-09
5.6827391e-08
1.9127696e-09
5.5502466e-08
1.7168521e-09
5.4255457e-08
1.5679901e-09
5.307943e-08
1.4525549e-09
5.1967876e-08
1.3625017e-09
5.0913091e-08
1.2934712e-09
4.9908425e-08
1.2394269e-09
4.8948467e-08
1.1950444e-09
4.802899e-08
1.1563125e-09
4.7146745e-08
1.1205166e-09
4.62992e-08
1.0860636e-09
4.5484352e-08
1.0520648e-09
4.4700559e-08
1.0181657e-09
4.3946445e-08
9.8427091e-10
4.3220773e-08
9.5051373e-10
4.252241e-08
9.170697e-10
4.1850247e-08
8.8419754e-10
4.1203197e-08
8.5209754e-10
4.058016e-08
8.209943e-10
3.9980043e-08
7.9101735e-10
3.9401736e-08
7.6230856e-10
3.8844151e-08
7.3491106e-10
3.8306201e-08
7.0888983e-10
3.7786835e-08
6.8422019e-10
3.7285026e-08
6.6090986e-10
3.6799802e-08
6.388868e-10
3.6330218e-08
6.1813378e-10
3.5875396e-08
5.9855861e-10
3.5434491e-08
5.8012736e-10
3.500673e-08
5.627364e-10
3.4591374e-08
5.4634854e-10
3.4187751e-08
5.3085923e-10
3.3795224e-08
5.1623523e-10
3.3413218e-08
5.0237638e-10
3.3041186e-08
4.8925701e-10
3.2678641e-08
4.7678393e-10
3.2325115e-08
4.649407e-10
3.1980192e-08
4.5364223e-10
3.1643474e-08
4.4288135e-10
3.1314606e-08
4.325811e-10
3.0993242e-08
4.227428e-10
3.067908e-08
4.1329681e-10
3.037182e-08
4.0425184e-10
3.0071196e-08
3.955445e-10
2.9776948e-08
3.8718939e-10
2.9488842e-08
3.791283e-10
2.9206646e-08
3.7138025e-10
2.8930154e-08
3.6389137e-10
2.8659157e-08
3.5668367e-10
2.8393472e-08
3.4970681e-10
2.813291e-08
3.4298478e-10
2.7877304e-08
3.3647019e-10
2.7626485e-08
3.3018796e-10
2.73803e-08
3.2409339e-10
2.7138595e-08
3.1821158e-10
2.6901232e-08
3.1250042e-10
2.6668068e-08
3.0698444e-10
2.6438978e-08
3.0162425e-10
2.6213832e-08
2.9644324e-10
2.5992514e-08
2.914049e-10
2.5774905e-08
2.8653091e-10
2.5560899e-08
2.8178801e-10
2.5350388e-08
2.7719574e-10
2.5143272e-08
2.7272438e-10
2.4939454e-08
2.6839076e-10
2.4738841e-08
2.6416919e-10
2.4541346e-08
2.6007324e-10
2.434688e-08
2.5608172e-10
2.4155365e-08
2.522044e-10
2.3966717e-08
2.4842511e-10
2.3780868e-08
2.4474918e-10
2.3597736e-08
2.4116601e-10
2.3417261e-08
2.3767587e-10
2.3239366e-08
2.3427432e-10
2.3063997e-08
2.3095587e-10
2.2891079e-08
2.2772288e-10
2.2720566e-08
2.2456336e-10
2.2552385e-08
2.2148718e-10
2.2386498e-08
2.1847504e-10
2.222283e-08
2.1554505e-10
2.2061352e-08
2.1266979e-10
2.1901989e-08
2.098764e-10
2.174472e-08
2.0712848e-10
2.1589468e-08
2.0446298e-10
2.143622e-08
2.0183364e-10
2.1284899e-08
1.9928816e-10
2.1135496e-08
1.9676938e-10
2.0987934e-08
1.9433673e-10
2.0842213e-08
1.9192118e-10
2.0698252e-08
1.8959479e-10
2.0556058e-08
1.8727565e-10
2.0415547e-08
1.8504954e-10
2.0276736e-08
1.8282054e-10
2.0139536e-08
1.8068925e-10
2.0003972e-08
1.7854456e-10
1.986995e-08
1.7650306e-10
1.9737503e-08
1.7443727e-10
1.9606535e-08
1.7248099e-10
1.9477086e-08
1.7048908e-10
1.9349053e-08
1.6861382e-10
1.9222488e-08
1.6669108e-10
1.9097279e-08
1.64893e-10
1.897349e-08
1.6303507e-10
1.8851e-08
1.6131063e-10
1.8729884e-08
1.5951339e-10
1.8610015e-08
1.5785937e-10
1.8491476e-08
1.5611897e-10
1.8374132e-08
1.5453241e-10
1.8258078e-08
1.5284525e-10
1.814317e-08
1.5132345e-10
1.8029515e-08
1.4968615e-10
1.7916957e-08
1.4822665e-10
1.7805618e-08
1.4663598e-10
1.769533e-08
1.452365e-10
1.7586228e-08
1.4368946e-10
1.7478133e-08
1.4234793e-10
1.7371193e-08
1.4084166e-10
1.7265216e-08
1.395562e-10
1.7160368e-08
1.3808802e-10
1.705644e-08
1.3685693e-10
1.6953615e-08
1.3542429e-10
1.6851669e-08
1.3424598e-10
1.6750801e-08
1.3284647e-10
1.6650773e-08
1.3171952e-10
1.6551801e-08
1.3035089e-10
1.6453629e-08
1.2927401e-10
1.6356493e-08
1.2793413e-10
1.6260118e-08
1.2690611e-10
1.6164761e-08
1.2559297e-10
1.6070126e-08
1.2461275e-10
1.5976493e-08
1.233245e-10
1.5883544e-08
1.2239112e-10
1.5791582e-08
1.2112606e-10
1.5700267e-08
1.2023854e-10
1.5609925e-08
1.1899507e-10
1.5520194e-08
1.1815256e-10
1.5431422e-08
1.1692935e-10
1.5343225e-08
1.1613112e-10
1.5255977e-08
1.1492698e-10
1.5169266e-08
1.1417214e-10
1.5083495e-08
1.1298603e-10
1.4998224e-08
1.1227374e-10
1.4913885e-08
1.11105e-10
1.483001e-08
1.1043462e-10
1.4747059e-08
1.0928291e-10
1.4664535e-08
1.0865341e-10
1.4582928e-08
1.0751858e-10
1.4501713e-08
1.0692883e-10
1.4421408e-08
1.0581144e-10
1.4341458e-08
1.0526058e-10
1.4262412e-08
1.0416169e-10
1.4183685e-08
1.0364806e-10
1.4105857e-08
1.025694e-10
1.4028309e-08
1.0209125e-10
1.3951655e-08
1.0103565e-10
1.3875245e-08
1.0059096e-10
1.3799719e-08
9.9562323e-11
1.3724403e-08
9.9148385e-11
1.364996e-08
9.8152741e-11
1.3575691e-08
9.7765414e-11
1.3502282e-08
9.6810014e-11
1.3429013e-08
9.6445849e-11
1.3356584e-08
9.5542569e-11
1.3284262e-08
9.5194228e-11
1.3212755e-08
9.4357274e-11
1.3141323e-08
9.4018175e-11
1.3070667e-08
9.3269598e-11
1.3000059e-08
9.292888e-11
1.2930172e-08
9.2298374e-11
1.286031e-08
9.1942742e-11
1.2791089e-08
9.1474541e-11
1.2721875e-08
9.1087034e-11
1.2653183e-08
9.0847305e-11
1.2584487e-08
9.0404587e-11
1.2516132e-08
9.0495902e-11
1.2447773e-08
8.9961493e-11
1.2379473e-08
9.0549748e-11
1.2311265e-08
8.9752807e-11
9.3647019e-11
8.9439379e-08
2.534847e-09
-8.9373049e-08
8.9797466e-08
3.4506371e-09
9.0040401e-08
4.2705855e-09
9.0116084e-08
4.667513e-09
9.0126064e-08
4.8310384e-09
9.012284e-08
4.9676334e-09
9.0107302e-08
5.1514314e-09
9.0048721e-08
5.3693705e-09
8.9922784e-08
5.5665122e-09
8.9718171e-08
5.705087e-09
8.9430811e-08
5.7695284e-09
8.9058716e-08
5.7534045e-09
8.8597728e-08
5.6534687e-09
8.8046729e-08
5.4689736e-09
8.7410727e-08
5.2039356e-09
8.6697308e-08
4.8697628e-09
8.5919425e-08
4.4876396e-09
8.5094191e-08
4.0862531e-09
8.4239497e-08
3.6958706e-09
8.3370119e-08
3.3410368e-09
8.2496253e-08
3.0362014e-09
8.1623639e-08
2.7853837e-09
8.0754966e-08
2.5855246e-09
7.9892914e-08
2.4300423e-09
7.9037193e-08
2.308276e-09
7.818747e-08
2.2122245e-09
7.7343977e-08
2.1369649e-09
7.6506182e-08
2.0772212e-09
7.5673458e-08
2.0277682e-09
7.4845411e-08
1.9843604e-09
7.4021998e-08
1.9439287e-09
7.3203481e-08
1.9045812e-09
7.239035e-08
1.8651957e-09
7.1583244e-08
1.8252718e-09
7.0782903e-08
1.7846121e-09
6.9990102e-08
1.743314e-09
6.9205627e-08
1.7015454e-09
6.8430218e-08
1.6596065e-09
6.7664565e-08
1.6177496e-09
6.6909278e-08
1.5762821e-09
6.6164884e-08
1.5354111e-09
6.5431819e-08
1.4953732e-09
6.4710438e-08
1.4562918e-09
6.4001007e-08
1.4183213e-09
6.3303717e-08
1.38151e-09
6.2618687e-08
1.3459399e-09
6.1945978e-08
1.3115956e-09
6.1285588e-08
1.2785237e-09
6.063747e-08
1.2466768e-09
6.0001529e-08
1.2160681e-09
5.9377639e-08
1.1866268e-09
5.8765638e-08
1.1583497e-09
5.8165342e-08
1.1311548e-09
5.7576546e-08
1.105032e-09
5.6999026e-08
1.0798956e-09
5.6432549e-08
1.055734e-09
5.5876871e-08
1.0324626e-09
5.533174e-08
1.0100714e-09
5.4796902e-08
9.8848012e-10
5.4272102e-08
9.6768188e-10
5.375708e-08
9.4760238e-10
5.3251585e-08
9.2823807e-10
5.2755361e-08
9.0952122e-10
5.2268161e-08
8.9145141e-10
5.1789738e-08
8.7396756e-10
5.1319856e-08
8.5707137e-10
5.0858276e-08
8.4070831e-10
5.0404775e-08
8.2488096e-10
4.9959125e-08
8.0954144e-10
4.9521117e-08
7.9469185e-10
4.9090533e-08
7.8029072e-10
4.8667179e-08
7.663387e-10
4.8250849e-08
7.5280082e-10
4.7841362e-08
7.3967491e-10
4.7438522e-08
7.2693288e-10
4.7042165e-08
7.1456873e-10
4.6652104e-08
7.0256166e-10
4.6268188e-08
6.9090065e-10
4.5890239e-08
6.7957291e-10
4.5518121e-08
6.6856141e-10
4.5151664e-08
6.5786208e-10
4.4790744e-08
6.4745067e-10
4.4435199e-08
6.3733289e-10
4.4084918e-08
6.2747629e-10
4.3739746e-08
6.1789718e-10
4.3399583e-08
6.085537e-10
4.3064278e-08
5.9947394e-10
4.2733746e-08
5.9060533e-10
4.2407839e-08
5.8198896e-10
4.2086483e-08
5.7356022e-10
4.1769533e-08
5.6537448e-10
4.1456929e-08
5.5735362e-10
4.1148526e-08
5.4956864e-10
4.0844276e-08
5.4192641e-10
4.0544035e-08
5.3451508e-10
4.0247766e-08
5.2722478e-10
3.9955326e-08
5.2016244e-10
3.966669e-08
5.1319966e-10
3.9381713e-08
5.0646388e-10
3.9100382e-08
4.9980627e-10
3.8822551e-08
4.9337663e-10
3.8548217e-08
4.8700366e-10
3.8277232e-08
4.8086156e-10
3.8009606e-08
4.7475442e-10
3.7745186e-08
4.6888284e-10
3.7483995e-08
4.6302409e-10
3.7225876e-08
4.5740754e-10
3.6970864e-08
4.5178109e-10
3.6718796e-08
4.4640536e-10
3.6469721e-08
4.4099633e-10
3.6223467e-08
4.3584839e-10
3.59801e-08
4.3064291e-10
3.5739438e-08
4.2571081e-10
3.5501563e-08
4.2069599e-10
3.5266283e-08
4.1596882e-10
3.5033695e-08
4.111326e-10
3.4803598e-08
4.0660033e-10
3.4576104e-08
4.0193144e-10
3.4351e-08
3.9758489e-10
3.4128416e-08
3.9307278e-10
3.3908127e-08
3.8890354e-10
3.3690279e-08
3.8453829e-10
3.3474634e-08
3.8053868e-10
3.3261358e-08
3.7631095e-10
3.3050194e-08
3.7247394e-10
3.2841333e-08
3.6837491e-10
3.2634498e-08
3.6469408e-10
3.2429902e-08
3.6071539e-10
3.2227249e-08
3.5718491e-10
3.2026776e-08
3.5331867e-10
3.1828166e-08
3.4993327e-10
3.163168e-08
3.4617195e-10
3.143698e-08
3.4292688e-10
3.1244353e-08
3.3926329e-10
3.1053435e-08
3.3615422e-10
3.0864543e-08
3.3258148e-10
3.0677286e-08
3.2960457e-10
3.0492012e-08
3.261161e-10
3.03083e-08
3.2326793e-10
3.0126531e-08
3.1985745e-10
2.9946253e-08
3.1713503e-10
2.9767881e-08
3.1379642e-10
2.9590929e-08
3.1119711e-10
2.9415851e-08
3.0792446e-10
2.9242125e-08
3.0544603e-10
2.9070242e-08
3.0223367e-10
2.8899642e-08
2.9987426e-10
2.8730859e-08
2.9671666e-10
2.8563291e-08
2.9447472e-10
2.8397517e-08
2.9136648e-10
2.8232889e-08
2.8924084e-10
2.8070037e-08
2.8617679e-10
2.7908261e-08
2.8416667e-10
2.7748246e-08
2.8114173e-10
2.7589238e-08
2.7924648e-10
2.7431977e-08
2.7625563e-10
2.7275655e-08
2.7447506e-10
2.712107e-08
2.7151366e-10
2.6967353e-08
2.6984803e-10
2.6815369e-08
2.6691149e-10
2.666418e-08
2.6536099e-10
2.6514721e-08
2.6244472e-10
2.6365985e-08
2.6100994e-10
2.621898e-08
2.5810993e-10
2.6072623e-08
2.5679217e-10
2.5928001e-08
2.5390464e-10
2.578395e-08
2.5270477e-10
2.5641642e-08
2.4982594e-10
2.5499826e-08
2.4874519e-10
2.5359765e-08
2.4587233e-10
2.5220113e-08
2.4491274e-10
2.5082231e-08
2.4204351e-10
2.4944673e-08
2.4120636e-10
2.4808903e-08
2.3833925e-10
2.4673368e-08
2.3762614e-10
2.4539643e-08
2.3476099e-10
2.440606e-08
2.3417387e-10
2.427431e-08
2.3131224e-10
2.4142606e-08
2.3085248e-10
2.401276e-08
2.2799829e-10
2.388286e-08
2.2766589e-10
2.3754844e-08
2.2482575e-10
2.3626667e-08
2.2462278e-10
2.35004e-08
2.2180936e-10
2.3373862e-08
2.2173253e-10
2.3249256e-08
2.1896309e-10
2.3124262e-08
2.1901192e-10
2.3001216e-08
2.1631592e-10
2.2877661e-08
2.1648418e-10
2.2756055e-08
2.1390421e-10
2.2633814e-08
2.1418393e-10
2.25135e-08
2.1178797e-10
2.239242e-08
2.1216693e-10
2.2273205e-08
2.1006241e-10
2.2153091e-08
2.1051878e-10
2.2034699e-08
2.0888768e-10
2.1915303e-08
2.0935811e-10
2.1797267e-08
2.085855e-10
2.1678371e-08
2.0864879e-10
2.1334272e-10
9.3196223e-08
2.5357441e-09
-9.319712e-08
9.3417841e-08
3.229019e-09
9.3700444e-08
3.9879824e-09
9.3903604e-08
4.4643524e-09
9.4029048e-08
4.7055948e-09
9.4145005e-08
4.8516761e-09
9.429072e-08
5.005717e-09
9.4461589e-08
5.1985009e-09
9.4638211e-08
5.3898911e-09
9.480258e-08
5.540718e-09
9.4943518e-08
5.6285903e-09
9.505404e-08
5.6428823e-09
9.5124813e-08
5.5826956e-09
9.5146438e-08
5.4473485e-09
9.511159e-08
5.2387839e-09
9.5014949e-08
4.9664036e-09
9.4855937e-08
4.6466516e-09
9.4639554e-08
4.302636e-09
9.4375259e-08
3.9601651e-09
9.4073929e-08
3.6423667e-09
9.3745368e-08
3.3647624e-09
9.3396702e-08
3.1340499e-09
9.3032938e-08
2.9492889e-09
9.2658067e-08
2.8049129e-09
9.2273272e-08
2.6930718e-09
9.1879047e-08
2.6064494e-09
9.147641e-08
2.5396021e-09
9.1065751e-08
2.4878796e-09
9.0646815e-08
2.4467038e-09
9.0219074e-08
2.412102e-09
8.9782047e-08
2.3809554e-09
8.9335438e-08
2.3511901e-09
8.887916e-08
2.3214743e-09
8.8413306e-08
2.291125e-09
8.7938135e-08
2.259784e-09
8.7454029e-08
2.2274194e-09
8.696148e-08
2.1940945e-09
8.6461052e-08
2.1600349e-09
8.5953359e-08
2.125442e-09
8.5439047e-08
2.090594e-09
8.4918771e-08
2.0556879e-09
8.4393183e-08
2.0209603e-09
8.3862926e-08
1.9865489e-09
8.3328625e-08
1.9526231e-09
8.2790878e-08
1.9192565e-09
8.2250266e-08
1.8865522e-09
8.1707333e-08
1.8545286e-09
8.1162606e-08
1.8232506e-09
8.0616576e-08
1.7927063e-09
8.0069718e-08
1.7629265e-09
7.9522468e-08
1.7338768e-09
7.897525e-08
1.7055675e-09
7.8428451e-08
1.6779538e-09
7.7882448e-08
1.6510346e-09
7.7337581e-08
1.6247629e-09
7.6794184e-08
1.5991314e-09
7.6252551e-08
1.5740957e-09
7.5712977e-08
1.5496454e-09
7.5175714e-08
1.5257426e-09
7.4641021e-08
1.5023749e-09
7.410911e-08
1.4795132e-09
7.3580205e-08
1.457143e-09
7.3054482e-08
1.4352446e-09
7.2532132e-08
1.4138013e-09
7.2013296e-08
1.3928034e-09
7.1498137e-08
1.3722301e-09
7.0986764e-08
1.352082e-09
7.0479312e-08
1.3323327e-09
6.997586e-08
1.3129938e-09
6.947652e-08
1.294031e-09
6.8981344e-08
1.2754672e-09
6.8490424e-08
1.2572588e-09
6.8003784e-08
1.2394407e-09
6.7521501e-08
1.2219578e-09
6.7043576e-08
1.204858e-09
6.6570071e-08
1.1880735e-09
6.6100967e-08
1.1716661e-09
6.5636314e-08
1.155553e-09
6.5176075e-08
1.1398119e-09
6.4720293e-08
1.1243437e-09
6.4268912e-08
1.1092431e-09
6.382197e-08
1.0943924e-09
6.3379397e-08
1.0799059e-09
6.2941228e-08
1.0656458e-09
6.2507378e-08
1.0517474e-09
6.2077881e-08
1.0380506e-09
6.165264e-08
1.0247143e-09
6.1231692e-08
1.011554e-09
6.0814926e-08
9.9875438e-10
6.0402382e-08
9.8610406e-10
5.999394e-08
9.7381646e-10
5.9589643e-08
9.6165058e-10
5.9189361e-08
9.4985113e-10
5.8793142e-08
9.3814488e-10
5.8400847e-08
9.2681082e-10
5.8012531e-08
9.1554044e-10
5.7628043e-08
9.0465012e-10
5.724745e-08
8.937928e-10
5.6870588e-08
8.8332574e-10
5.6497535e-08
8.7285978e-10
5.6128115e-08
8.627966e-10
5.5762417e-08
8.5270126e-10
5.5400255e-08
8.4302378e-10
5.504173e-08
8.3327938e-10
5.4686642e-08
8.2397045e-10
5.4335108e-08
8.1455818e-10
5.3986914e-08
8.0560182e-10
5.3642191e-08
7.9650377e-10
5.3300712e-08
7.8788496e-10
5.2962624e-08
7.7908416e-10
5.2627684e-08
7.7078886e-10
5.2296057e-08
7.6226904e-10
5.1967484e-08
7.5428418e-10
5.164215e-08
7.4602986e-10
5.1319776e-08
7.383433e-10
5.1000569e-08
7.3033966e-10
5.0684229e-08
7.229401e-10
5.0370987e-08
7.15173e-10
5.0060522e-08
7.0805e-10
4.9753089e-08
7.005059e-10
4.9448343e-08
6.9364982e-10
4.9146565e-08
6.8631573e-10
4.8847386e-08
6.7971771e-10
4.8551116e-08
6.7258117e-10
4.8257357e-08
6.6623308e-10
4.796645e-08
6.5928205e-10
4.7677967e-08
6.5317646e-10
4.7392284e-08
6.4639934e-10
4.7108939e-08
6.4052954e-10
4.6828342e-08
6.3391513e-10
4.6550001e-08
6.2827511e-10
4.627436e-08
6.2181255e-10
4.600089e-08
6.1639695e-10
4.5730078e-08
6.1007566e-10
4.5461352e-08
6.0487968e-10
4.5195244e-08
5.9868933e-10
4.493114e-08
5.9370884e-10
4.4669617e-08
5.8763936e-10
4.4410014e-08
5.8287087e-10
4.4152959e-08
5.7691241e-10
4.3897741e-08
5.7235307e-10
4.3645041e-08
5.6649584e-10
4.3394095e-08
5.6214331e-10
4.3145642e-08
5.5637771e-10
4.2898858e-08
5.5223029e-10
4.2654544e-08
5.4654685e-10
4.2411815e-08
5.4260353e-10
4.2171539e-08
5.3699279e-10
4.1932761e-08
5.3325302e-10
4.1696422e-08
5.2770555e-10
4.1461493e-08
5.2416953e-10
4.1228994e-08
5.1867602e-10
4.0997816e-08
5.1534463e-10
4.0769062e-08
5.0989569e-10
4.0541538e-08
5.067702e-10
4.0316437e-08
5.013563e-10
4.0092474e-08
4.984388e-10
3.9870937e-08
4.9305074e-10
3.965044e-08
4.9034429e-10
3.9432379e-08
4.849727e-10
3.921526e-08
4.8248045e-10
3.9000589e-08
4.7711556e-10
3.8786757e-08
4.7484158e-10
3.8575393e-08
4.694743e-10
3.8364761e-08
4.6742406e-10
3.815662e-08
4.6204525e-10
3.7949101e-08
4.6022393e-10
3.7744103e-08
4.5482398e-10
3.7539611e-08
4.5323778e-10
3.7337674e-08
4.4780836e-10
3.7136122e-08
4.4646512e-10
3.6937168e-08
4.409979e-10
3.6738469e-08
4.3990497e-10
3.6542416e-08
4.3439244e-10
3.6346484e-08
4.3355819e-10
3.6153251e-08
4.2799407e-10
3.5959996e-08
4.2742816e-10
3.57695e-08
4.2180872e-10
3.5578832e-08
4.2152072e-10
3.5390986e-08
4.1584406e-10
3.520281e-08
4.1584239e-10
3.5017524e-08
4.1011142e-10
3.4831738e-08
4.1040854e-10
3.4648914e-08
4.0463305e-10
3.4465412e-08
4.0523443e-10
3.4284944e-08
3.9943193e-10
3.4103607e-08
4.0034822e-10
3.392537e-08
3.9455347e-10
3.3746067e-08
3.957873e-10
3.3569915e-08
3.9005566e-10
3.3392492e-08
3.9160708e-10
3.3218245e-08
3.8603503e-10
3.3042518e-08
3.8789392e-10
3.2869934e-08
3.8264609e-10
3.2695679e-08
3.8477395e-10
3.2524406e-08
3.8016113e-10
3.2351363e-08
3.8240127e-10
3.2180773e-08
3.7917488e-10
3.2008637e-08
3.807854e-10
3.8492412e-10
9.7112983e-08
2.5412372e-09
-9.7118477e-08
9.7241018e-08
3.1009841e-09
9.7484936e-08
3.7440646e-09
9.7715953e-08
4.2333356e-09
9.7883349e-08
4.5381985e-09
9.8017638e-08
4.7173871e-09
9.816821e-08
4.8551453e-09
9.835375e-08
5.0129608e-09
9.8563888e-08
5.1797528e-09
9.8783306e-08
5.3213e-09
9.8999601e-08
5.4122954e-09
9.920417e-08
5.4383137e-09
9.9390455e-08
5.3964105e-09
9.9551258e-08
5.2865456e-09
9.9678671e-08
5.1113707e-09
9.9765882e-08
4.879193e-09
9.9809004e-08
4.6035296e-09
9.9808351e-08
4.3032886e-09
9.9768641e-08
3.999875e-09
9.9697453e-08
3.7135546e-09
9.9602838e-08
3.4593774e-09
9.9491576e-08
3.2453117e-09
9.9368776e-08
3.0720892e-09
9.9237975e-08
2.9357146e-09
9.9100854e-08
2.8301924e-09
9.8958204e-08
2.7490996e-09
9.8810869e-08
2.6869366e-09
9.8659365e-08
2.6393838e-09
9.8503545e-08
2.6025238e-09
9.8342762e-08
2.5728854e-09
9.8176162e-08
2.547555e-09
9.8002918e-08
2.5244338e-09
9.7822311e-08
2.5020813e-09
9.7633765e-08
2.4796716e-09
9.7436827e-08
2.4567219e-09
9.7231178e-08
2.4330682e-09
9.7016601e-08
2.4086716e-09
9.6792987e-08
2.3836489e-09
9.6560297e-08
2.3581313e-09
9.6318575e-08
2.3323166e-09
9.6067899e-08
2.3063636e-09
9.5808407e-08
2.2804524e-09
9.5540249e-08
2.2547076e-09
9.5263615e-08
2.2292571e-09
9.4978694e-08
2.2041767e-09
9.4685709e-08
2.1795373e-09
9.4384865e-08
2.1553729e-09
9.4076402e-08
2.1317141e-09
9.3760537e-08
2.1085712e-09
9.3437522e-08
2.0859414e-09
9.310758e-08
2.0638187e-09
9.2770971e-08
2.0421768e-09
9.242792e-08
2.0210047e-09
9.2078694e-08
2.0002603e-09
9.1723521e-08
1.9799361e-09
9.1362673e-08
1.9599793e-09
9.0996378e-08
1.9403908e-09
9.0624913e-08
1.92111e-09
9.0248505e-08
1.9021507e-09
8.9867435e-08
1.883445e-09
8.9481926e-08
1.8650227e-09
8.9092261e-08
1.8468079e-09
8.8698657e-08
1.8288479e-09
8.8301401e-08
1.8110582e-09
8.7900699e-08
1.7935048e-09
8.7496837e-08
1.7760921e-09
8.7090013e-08
1.7589057e-09
8.6680509e-08
1.7418367e-09
8.6268512e-08
1.7249916e-09
8.5854298e-08
1.708245e-09
8.5438039e-08
1.6917255e-09
8.5020009e-08
1.6752889e-09
8.4600363e-08
1.6590869e-09
8.4179367e-08
1.6429535e-09
8.375716e-08
1.6270653e-09
8.3334002e-08
1.611232e-09
8.2910011e-08
1.595657e-09
8.2485441e-08
1.5801225e-09
8.2060392e-08
1.5648613e-09
8.163511e-08
1.5496252e-09
8.1209674e-08
1.534679e-09
8.0784326e-08
1.5197406e-09
8.0359122e-08
1.5051101e-09
7.9934299e-08
1.4904688e-09
7.9509892e-08
1.4761548e-09
7.9086133e-08
1.4618091e-09
7.8663036e-08
1.4478119e-09
7.824083e-08
1.43376e-09
7.7819505e-08
1.4200793e-09
7.739929e-08
1.4063187e-09
7.6980153e-08
1.3929538e-09
7.6562322e-08
1.3794814e-09
7.6145742e-08
1.3664314e-09
7.5730643e-08
1.3532437e-09
7.5316947e-08
1.3405072e-09
7.4904887e-08
1.3276001e-09
7.4494362e-08
1.3151755e-09
7.408561e-08
1.3025444e-09
7.3678506e-08
1.2904298e-09
7.3273296e-08
1.2780698e-09
7.286983e-08
1.2662629e-09
7.2468362e-08
1.2541684e-09
7.2068719e-08
1.2426668e-09
7.1671167e-08
1.230832e-09
7.1275504e-08
1.2196329e-09
7.0882011e-08
1.2080513e-09
7.0490461e-08
1.1971519e-09
7.0101148e-08
1.1858165e-09
6.971382e-08
1.1752138e-09
6.9328786e-08
1.1641176e-09
6.8945767e-08
1.1538084e-09
6.8565092e-08
1.1429437e-09
6.8186451e-08
1.1329248e-09
6.7810197e-08
1.1222837e-09
6.7435989e-08
1.112552e-09
6.7064202e-08
1.1021261e-09
6.6694464e-08
1.0926784e-09
6.6327178e-08
1.0824592e-09
6.5961935e-08
1.0732926e-09
6.559917e-08
1.0632715e-09
6.5238437e-08
1.054383e-09
6.4880201e-08
1.0445509e-09
6.4523981e-08
1.035938e-09
6.4170276e-08
1.0262859e-09
6.3818563e-08
1.0179461e-09
6.3469381e-08
1.0084645e-09
6.3122162e-08
1.0003958e-09
6.2777486e-08
9.9107515e-10
6.243474e-08
9.8327573e-10
6.2094548e-08
9.7410642e-10
6.1756248e-08
9.66575e-10
6.1420514e-08
9.575471e-10
6.1086628e-08
9.5028276e-10
6.0755317e-08
9.4138619e-10
6.0425809e-08
9.3438841e-10
6.0098885e-08
9.2561287e-10
5.9773712e-08
9.1888162e-10
5.9451135e-08
9.1021665e-10
5.9130254e-08
9.0375249e-10
5.8811979e-08
8.9518744e-10
5.849534e-08
8.8899153e-10
5.818132e-08
8.805154e-10
5.7868874e-08
8.7458938e-10
5.7559061e-08
8.6619096e-10
5.7250754e-08
8.6053718e-10
5.6945096e-08
8.5220501e-10
5.6640873e-08
8.468266e-10
5.6339317e-08
8.3854887e-10
5.603912e-08
8.3344952e-10
5.5741612e-08
8.2521402e-10
5.5445383e-08
8.2039837e-10
5.5151867e-08
8.1219269e-10
5.4859545e-08
8.0766629e-10
5.4569963e-08
7.9947753e-10
5.4281487e-08
7.952465e-10
5.3995782e-08
7.8706115e-10
5.3711088e-08
7.8313278e-10
5.3429201e-08
7.749374e-10
5.3148225e-08
7.7132039e-10
5.2870097e-08
7.6310091e-10
5.2592773e-08
7.5980429e-10
5.2318343e-08
7.5154565e-10
5.2044605e-08
7.4857982e-10
5.1773812e-08
7.4026749e-10
5.1503591e-08
7.3764501e-10
5.1236372e-08
7.2926398e-10
5.0969598e-08
7.2699732e-10
5.0705891e-08
7.1853132e-10
5.0442494e-08
7.1663468e-10
5.0182234e-08
7.0806889e-10
4.992214e-08
7.06559e-10
4.966526e-08
6.9787794e-10
4.9408393e-08
6.9677137e-10
4.9154826e-08
6.8796025e-10
4.8901108e-08
6.8727549e-10
4.8650782e-08
6.7832051e-10
4.8400132e-08
6.7807797e-10
4.8152972e-08
6.6896872e-10
4.7905303e-08
6.6918984e-10
4.766123e-08
6.5991698e-10
4.7416451e-08
6.606214e-10
4.7175379e-08
6.5118326e-10
4.6933391e-08
6.523971e-10
4.6695224e-08
6.4279956e-10
4.6455919e-08
6.4453936e-10
4.6220551e-08
6.3480052e-10
4.5983809e-08
6.3708957e-10
4.5751111e-08
6.2725143e-10
4.5516798e-08
6.3010072e-10
4.5286617e-08
6.2023642e-10
4.5054574e-08
6.2364969e-10
4.4826714e-08
6.138957e-10
4.4596755e-08
6.1785309e-10
4.4370946e-08
6.0845431e-10
4.4142846e-08
6.1287415e-10
4.3918692e-08
6.0431485e-10
4.3692187e-08
6.0890682e-10
4.3469003e-08
6.0235872e-10
4.3243623e-08
6.0616595e-10
6.0831188e-10
1.0116887e-07
2.5420323e-09
-1.0116967e-07
1.0125446e-07
3.0153939e-09
1.0144962e-07
3.5489073e-09
1.0166936e-07
4.0135997e-09
1.0185889e-07
4.3486673e-09
1.0201264e-07
4.5636405e-09
1.0216234e-07
4.7054406e-09
1.0233574e-07
4.8395649e-09
1.0253608e-07
4.9794131e-09
1.0275224e-07
5.1051401e-09
1.0297132e-07
5.1932117e-09
1.0318306e-07
5.226575e-09
1.0338139e-07
5.1980789e-09
1.0356087e-07
5.1070598e-09
1.0371528e-07
4.9569679e-09
1.038391e-07
4.7553657e-09
1.0392854e-07
4.5140934e-09
1.0398291e-07
4.248919e-09
1.0400514e-07
3.9776423e-09
1.0400109e-07
3.7176079e-09
1.0397775e-07
3.4827141e-09
1.0394167e-07
3.2813901e-09
1.0389787e-07
3.1158957e-09
1.0384968e-07
2.9839027e-09
1.0379916e-07
2.8807138e-09
1.0374747e-07
2.800786e-09
1.0369547e-07
2.7389415e-09
1.0364378e-07
2.6910694e-09
1.0359256e-07
2.6537484e-09
1.0354144e-07
2.6239982e-09
1.0348975e-07
2.599246e-09
1.0343671e-07
2.5774776e-09
1.0338154e-07
2.5572495e-09
1.0332358e-07
2.5376336e-09
1.0326222e-07
2.518085e-09
1.0319696e-07
2.4983255e-09
1.0312737e-07
2.4782646e-09
1.030531e-07
2.4579135e-09
1.0297386e-07
2.4373709e-09
1.0288943e-07
2.4167438e-09
1.0279962e-07
2.3961823e-09
1.0270428e-07
2.3757904e-09
1.0260328e-07
2.3557057e-09
1.0249655e-07
2.3359892e-09
1.0238398e-07
2.3167458e-09
1.0226553e-07
2.2979849e-09
1.0214112e-07
2.2797825e-09
1.0201073e-07
2.2621041e-09
1.0187429e-07
2.2450094e-09
1.0173181e-07