/*--------------------------------*- C++ -*----------------------------------*\
| =========                 |                                                 |
| \\      /  F ield         | OpenFOAM: The Open Source CFD Toolbox           |
|  \\    /   O peration     | Version:  5.x                                   |
|   \\  /    A nd           | Web:      www.OpenFOAM.org                      |
|    \\/     M anipulation  |                                                 |
\*---------------------------------------------------------------------------*/
FoamFile
{
    version     2.0;
    format      ascii;
    class       volVectorField;
    location    "1";
    object      U;
}
// * * * * * * * * * * * * * * * * * * * * * * * * * * * * * * * * * * * * * //

dimensions      [0 1 -1 0 0 0 0];

internalField   nonuniform List<vector> 
21600
(
(0.94298867 0.0081596439 0)
(0.89638831 0.0122467 0)
(0.85192169 0.013937215 0)
(0.80680787 0.014108806 0)
(0.76019853 0.013756316 0)
(0.71227952 0.013399606 0)
(0.66366494 0.013130034 0)
(0.61499185 0.012849508 0)
(0.56680341 0.012440557 0)
(0.51961204 0.011837533 0)
(0.4739435 0.01101716 0)
(0.43041034 0.0099840103 0)
(0.38967376 0.008744148 0)
(0.35252441 0.0073258932 0)
(0.31955604 0.0057463071 0)
(0.29122233 0.0040880973 0)
(0.26767662 0.0025029394 0)
(0.24871024 0.0011540786 0)
(0.23380801 0.0001484508 0)
(0.22230085 -0.00049762558 0)
(0.21350418 -0.00084244547 0)
(0.20677205 -0.00097219962 0)
(0.20154898 -0.00096267452 0)
(0.19735883 -0.00086250962 0)
(0.19384283 -0.00071209351 0)
(0.19073958 -0.00054496128 0)
(0.18785819 -0.00038265279 0)
(0.1850693 -0.00023872395 0)
(0.18230107 -0.00011999862 0)
(0.17951874 -2.7536513e-05 0)
(0.17671734 4.1081432e-05 0)
(0.17390417 8.9772719e-05 0)
(0.17109746 0.00012261041 0)
(0.16831394 0.00014337169 0)
(0.16557292 0.00015522004 0)
(0.16288714 0.00016076183 0)
(0.16027004 0.00016196727 0)
(0.15772753 0.00016035534 0)
(0.15526688 0.00015696869 0)
(0.1528882 0.00015257804 0)
(0.15059433 0.00014764657 0)
(0.14838159 0.00014251902 0)
(0.14625032 0.00013735694 0)
(0.14419478 0.00013230371 0)
(0.14221427 0.00012739028 0)
(0.14030213 0.00012267524 0)
(0.13845756 0.00011813494 0)
(0.13667363 0.00011380866 0)
(0.1349499 0.00010966512 0)
(0.13327946 0.00010573597 0)
(0.13166246 0.00010198307 0)
(0.13009215 9.8435306e-05 0)
(0.12856939 9.5050725e-05 0)
(0.1270876 9.1856053e-05 0)
(0.12564834 8.8806224e-05 0)
(0.12424519 8.5927128e-05 0)
(0.12288038 8.3172287e-05 0)
(0.12154757 8.0568242e-05 0)
(0.12024966 7.8068413e-05 0)
(0.11898028 7.5700902e-05 0)
(0.11774296 7.3419754e-05 0)
(0.11653124 7.1255017e-05 0)
(0.11534922 6.9161643e-05 0)
(0.11419029 6.7171649e-05 0)
(0.11305911 6.5240898e-05 0)
(0.11194883 6.340318e-05 0)
(0.11086465 6.1615119e-05 0)
(0.10979942 5.9911978e-05 0)
(0.10875889 5.8250943e-05 0)
(0.10773556 5.6668424e-05 0)
(0.10673572 5.512198e-05 0)
(0.10575145 5.3648874e-05 0)
(0.10478962 5.2206888e-05 0)
(0.10384187 5.0833893e-05 0)
(0.10291564 4.9487801e-05 0)
(0.10200207 4.8206897e-05 0)
(0.10110924 4.6949186e-05 0)
(0.10022772 4.5753219e-05 0)
(0.099366256 4.4577097e-05 0)
(0.098514827 4.3459519e-05 0)
(0.097682867 4.2358687e-05 0)
(0.096859721 4.1313378e-05 0)
(0.096055557 4.0282019e-05 0)
(0.095259029 3.9303398e-05 0)
(0.09448109 3.8336159e-05 0)
(0.093709646 3.7419e-05 0)
(0.092956488 3.6510868e-05 0)
(0.092208713 3.5650325e-05 0)
(0.091479009 3.4796684e-05 0)
(0.090753597 3.3988311e-05 0)
(0.090046126 3.3184946e-05 0)
(0.089341873 3.2424695e-05 0)
(0.088655511 3.1667777e-05 0)
(0.0879713 3.0951971e-05 0)
(0.087305012 3.0238028e-05 0)
(0.086639807 2.956334e-05 0)
(0.085992637 2.8889234e-05 0)
(0.085345478 2.825265e-05 0)
(0.084716542 2.7615535e-05 0)
(0.08408653 2.7014326e-05 0)
(0.083475011 2.6411621e-05 0)
(0.082861308 2.5843307e-05 0)
(0.082266448 2.5272666e-05 0)
(0.081668267 2.4734988e-05 0)
(0.081089362 2.419427e-05 0)
(0.080505966 2.3685167e-05 0)
(0.079942362 2.3172411e-05 0)
(0.079373055 2.2689998e-05 0)
(0.078824145 2.2203404e-05 0)
(0.078268272 2.1745951e-05 0)
(0.077733489 2.1283861e-05 0)
(0.077190429 2.0849775e-05 0)
(0.076669249 2.0410662e-05 0)
(0.076138413 1.9998485e-05 0)
(0.075630346 1.9580937e-05 0)
(0.075111175 1.918932e-05 0)
(0.074615766 1.8792024e-05 0)
(0.074107726 1.8419724e-05 0)
(0.073624554 1.8041462e-05 0)
(0.073127135 1.7687334e-05 0)
(0.072655808 1.7326972e-05 0)
(0.072168521 1.698996e-05 0)
(0.071708676 1.6646442e-05 0)
(0.071231052 1.6325574e-05 0)
(0.070782354 1.5997911e-05 0)
(0.07031394 1.569229e-05 0)
(0.069876081 1.5379555e-05 0)
(0.069416437 1.5088353e-05 0)
(0.068989133 1.4789675e-05 0)
(0.068537836 1.451214e-05 0)
(0.068120827 1.42267e-05 0)
(0.067677463 1.3962135e-05 0)
(0.067270513 1.3689156e-05 0)
(0.066834676 1.3436924e-05 0)
(0.066437573 1.3175668e-05 0)
(0.066008866 1.2935188e-05 0)
(0.06562142 1.2684948e-05 0)
(0.065199451 1.2455697e-05 0)
(0.064821493 1.22158e-05 0)
(0.064405876 1.1997307e-05 0)
(0.06403726 1.1767104e-05 0)
(0.063627609 1.1558946e-05 0)
(0.063268212 1.1337805e-05 0)
(0.062864143 1.1139607e-05 0)
(0.062513864 1.0926912e-05 0)
(0.062114989 1.0738356e-05 0)
(0.061773749 1.0533505e-05 0)
(0.061379681 1.0354321e-05 0)
(0.061047424 1.0156718e-05 0)
(0.060657768 9.9866799e-06 0)
(0.060334463 9.7957288e-06 0)
(0.059948817 9.6346706e-06 0)
(0.059634458 9.4497777e-06 0)
(0.05925241 9.2975929e-06 0)
(0.058947014 9.1181445e-06 0)
(0.058568142 8.9747712e-06 0)
(0.058271755 8.8001429e-06 0)
(0.05789562 8.6655887e-06 0)
(0.057608317 8.4951525e-06 0)
(0.057234464 8.3695059e-06 0)
(0.056956347 8.2025785e-06 0)
(0.0565843 8.0859805e-06 0)
(0.056315505 7.9218333e-06 0)
(0.055944765 7.8145118e-06 0)
(0.055685463 7.6524196e-06 0)
(0.055315499 7.554729e-06 0)
(0.055065895 7.3938634e-06 0)
(0.054696148 7.3062213e-06 0)
(0.054456489 7.1456439e-06 0)
(0.05408636 7.0686116e-06 0)
(0.053856936 6.9074198e-06 0)
(0.053485781 6.8417156e-06 0)
(0.053266926 6.6787565e-06 0)
(0.052894055 6.6252625e-06 0)
(0.052686156 6.4593125e-06 0)
(0.05231082 6.4191229e-06 0)
(0.052114316 6.2488037e-06 0)
(0.051735698 6.2232074e-06 0)
(0.051551092 6.0469451e-06 0)
(0.051168298 6.0377747e-06 0)
(0.050996152 5.853576e-06 0)
(0.050608202 5.8626084e-06 0)
(0.050449156 5.6685263e-06 0)
(0.050054956 5.6986916e-06 0)
(0.049909717 5.4918556e-06 0)
(0.049508056 5.5460948e-06 0)
(0.049377419 5.3235984e-06 0)
(0.048966926 5.4063468e-06 0)
(0.048851766 5.164216e-06 0)
(0.048430881 5.2809268e-06 0)
(0.048332165 5.0142739e-06 0)
(0.047899084 5.1725857e-06 0)
(0.047817865 4.8751186e-06 0)
(0.047370432 5.0861097e-06 0)
(0.047307869 4.7485824e-06 0)
(0.046843384 5.0295481e-06 0)
(0.046800863 4.6351969e-06 0)
(0.04631553 5.0160133e-06 0)
(0.046295815 4.5316492e-06 0)
(0.045780144 5.4106935e-06 0)
(0.97309772 0.015504417 0)
(0.97190996 0.022703346 0)
(0.97050388 0.02628459 0)
(0.96750357 0.027305267 0)
(0.96190179 0.027316869 0)
(0.95340944 0.027255955 0)
(0.94220883 0.027363448 0)
(0.92864564 0.027518833 0)
(0.91301952 0.027534095 0)
(0.89560836 0.027288719 0)
(0.87663563 0.026720439 0)
(0.85636955 0.025804841 0)
(0.83508432 0.024521282 0)
(0.81317076 0.022866039 0)
(0.79098229 0.020847359 0)
(0.76891358 0.018529276 0)
(0.74733447 0.016043436 0)
(0.72651838 0.013558678 0)
(0.70665024 0.011238779 0)
(0.68781497 0.0091987007 0)
(0.67006163 0.0074908085 0)
(0.65337303 0.0061115191 0)
(0.63772558 0.0050292248 0)
(0.62303608 0.0041987905 0)
(0.60922273 0.0035784238 0)
(0.59620442 0.0031320415 0)
(0.58389472 0.0028215608 0)
(0.57220291 0.0026087817 0)
(0.56106032 0.0024598433 0)
(0.55040341 0.002348854 0)
(0.54019192 0.0022580415 0)
(0.5303856 0.0021765384 0)
(0.52096326 0.0020981319 0)
(0.51189804 0.002019901 0)
(0.5031789 0.0019407159 0)
(0.49478489 0.0018607267 0)
(0.4867094 0.0017805089 0)
(0.47893309 0.0017010317 0)
(0.4714509 0.0016231162 0)
(0.46424317 0.00154764 0)
(0.45730533 0.0014751411 0)
(0.45061696 0.0014061425 0)
(0.444174 0.0013408162 0)
(0.43795549 0.0012793611 0)
(0.43195834 0.0012216776 0)
(0.42616141 0.0011677589 0)
(0.42056307 0.0011173467 0)
(0.41514239 0.0010703335 0)
(0.40989945 0.0010263976 0)
(0.40481366 0.00098539951 0)
(0.39988707 0.00094700628 0)
(0.39509944 0.00091109123 0)
(0.39045485 0.00087734261 0)
(0.38593337 0.00084566459 0)
(0.38154108 0.00081577563 0)
(0.37725821 0.00078761395 0)
(0.37309277 0.00076092874 0)
(0.36902499 0.00073569049 0)
(0.36506473 0.00071167652 0)
(0.36119197 0.00068888558 0)
(0.35741839 0.00066711917 0)
(0.35372352 0.00064639943 0)
(0.35012077 0.00062654764 0)
(0.34658903 0.00060760437 0)
(0.3431434 0.00058940652 0)
(0.33976198 0.00057200862 0)
(0.33646153 0.00055525962 0)
(0.33321917 0.00053922411 0)
(0.33005336 0.00052376032 0)
(0.32694008 0.00050893975 0)
(0.32389952 0.00049462781 0)
(0.32090638 0.00048090045 0)
(0.31798264 0.00046762886 0)
(0.31510156 0.00045489157 0)
(0.31228701 0.00044256472 0)
(0.30951066 0.00043072799 0)
(0.30679836 0.00041926204 0)
(0.30412006 0.00040824665 0)
(0.30150369 0.00039756691 0)
(0.29891732 0.00038730186 0)
(0.29639109 0.0003773411 0)
(0.29389105 0.00036776212 0)
(0.29144966 0.00035845937 0)
(0.28903081 0.00034950828 0)
(0.28666943 0.00034080841 0)
(0.28432703 0.00033243249 0)
(0.2820412 0.00032428557 0)
(0.27977091 0.00031643712 0)
(0.27755655 0.00030879804 0)
(0.27535436 0.00030143393 0)
(0.27320773 0.00029426195 0)
(0.27106993 0.00028734324 0)
(0.26898758 0.00028060165 0)
(0.26691074 0.00027409322 0)
(0.2648895 0.0002677489 0)
(0.26287045 0.00026161905 0)
(0.26090738 0.00025564215 0)
(0.25894317 0.00024986225 0)
(0.25703556 0.00024422582 0)
(0.25512344 0.00023876995 0)
(0.25326878 0.00023344958 0)
(0.25140619 0.00022829425 0)
(0.24960216 0.00022326779 0)
(0.24778668 0.00021839162 0)
(0.24603114 0.00021363894 0)
(0.24426051 0.00020902243 0)
(0.24255146 0.00020452516 0)
(0.24082356 0.0002001505 0)
(0.23915913 0.00019589185 0)
(0.23747196 0.00019174271 0)
(0.23585043 0.00018770731 0)
(0.2342021 0.0001837687 0)
(0.23262187 0.00017994241 0)
(0.23101057 0.00017620052 0)
(0.22947015 0.00017257037 0)
(0.22789419 0.00016901252 0)
(0.2263922 0.00016556655 0)
(0.22484994 0.00016218101 0)
(0.22338509 0.00015890819 0)
(0.22187499 0.00015568414 0)
(0.2204461 0.00015257429 0)
(0.21896666 0.00014950174 0)
(0.21757263 0.00014654544 0)
(0.21612243 0.0001436151 0)
(0.21476224 0.00014080362 0)
(0.21333991 0.00013800691 0)
(0.21201262 0.00013533214 0)
(0.21061682 0.0001326611 0)
(0.20932158 0.00013011552 0)
(0.20795102 0.00012756277 0)
(0.20668704 0.00012513939 0)
(0.20534047 0.00012269807 0)
(0.20410704 0.00012039037 0)
(0.20278323 0.00011805409 0)
(0.20157971 0.00011585597 0)
(0.20027746 0.0001136188 0)
(0.19910327 0.00011152456 0)
(0.19782138 0.00010938102 0)
(0.19667602 0.00010738533 0)
(0.19541333 0.0001053303 0)
(0.19429637 0.00010342815 0)
(0.1930517 0.00010145688 0)
(0.19196276 9.9643558e-05 0)
(0.19073496 9.775164e-05 0)
(0.18967374 9.6022681e-05 0)
(0.18846163 9.4206059e-05 0)
(0.18742791 9.2557258e-05 0)
(0.18623031 9.081218e-05 0)
(0.18522392 8.9239527e-05 0)
(0.18403965 8.7562523e-05 0)
(0.18306049 8.6062213e-05 0)
(0.18188833 8.4450142e-05 0)
(0.1809364 8.3018537e-05 0)
(0.17977511 8.1468536e-05 0)
(0.17885047 8.0102079e-05 0)
(0.17769877 7.8611545e-05 0)
(0.17680157 7.7306846e-05 0)
(0.17565813 7.5873527e-05 0)
(0.1747886 7.4627327e-05 0)
(0.17365204 7.3249257e-05 0)
(0.17281051 7.2058225e-05 0)
(0.17167941 7.0733689e-05 0)
(0.1708663 6.9594558e-05 0)
(0.16973914 6.832226e-05 0)
(0.16895497 6.7231921e-05 0)
(0.16783016 6.6010953e-05 0)
(0.16707558 6.496604e-05 0)
(0.16595143 6.3795757e-05 0)
(0.16522719 6.2792783e-05 0)
(0.16410191 6.1673147e-05 0)
(0.16340891 6.0708868e-05 0)
(0.16228056 5.9640317e-05 0)
(0.16161982 5.8710812e-05 0)
(0.16048633 5.7694378e-05 0)
(0.15985906 5.6795688e-05 0)
(0.15871817 5.5833214e-05 0)
(0.15812573 5.4961079e-05 0)
(0.15697501 5.4055137e-05 0)
(0.15641893 5.3204816e-05 0)
(0.15525571 5.2359668e-05 0)
(0.15473775 5.1525272e-05 0)
(0.15355911 5.0745555e-05 0)
(0.15308123 4.992168e-05 0)
(0.15188393 4.9215515e-05 0)
(0.15144834 4.8393898e-05 0)
(0.15022879 4.7770248e-05 0)
(0.14983795 4.6943088e-05 0)
(0.14859213 4.6415997e-05 0)
(0.14824878 4.5572418e-05 0)
(0.14697213 4.5160112e-05 0)
(0.14667931 4.4287303e-05 0)
(0.14536662 4.4016361e-05 0)
(0.14512766 4.3098599e-05 0)
(0.14377278 4.3008176e-05 0)
(0.1435914 4.2024137e-05 0)
(0.14218681 4.2173647e-05 0)
(0.14206733 4.1093731e-05 0)
(0.14060293 4.1561171e-05 0)
(0.14055203 4.0333475e-05 0)
(0.13901196 4.2866986e-05 0)
(0.97642773 0.01543859 0)
(0.97678809 0.020970852 0)
(0.97866853 0.024704282 0)
(0.98123549 0.026460571 0)
(0.98349165 0.027133014 0)
(0.98486569 0.027562968 0)
(0.9852106 0.02812769 0)
(0.98461636 0.028807838 0)
(0.98320362 0.029430398 0)
(0.98103606 0.029833369 0)
(0.97810475 0.029910616 0)
(0.97436123 0.029595762 0)
(0.96975254 0.028849653 0)
(0.96424509 0.027653349 0)
(0.95784882 0.026030853 0)
(0.95061132 0.024053506 0)
(0.94264316 0.021845297 0)
(0.9340641 0.019562306 0)
(0.92502636 0.017363389 0)
(0.91565973 0.015371473 0)
(0.90610817 0.013656079 0)
(0.89647141 0.012231181 0)
(0.88684938 0.011075235 0)
(0.8772833 0.01014636 0)
(0.86781035 0.009402854 0)
(0.85843864 0.0088105916 0)
(0.84916767 0.0083364348 0)
(0.83997358 0.007948614 0)
(0.83085164 0.0076189443 0)
(0.82178306 0.0073255765 0)
(0.81277313 0.0070531524 0)
(0.8038112 0.0067923283 0)
(0.79491082 0.0065377906 0)
(0.78606636 0.0062872744 0)
(0.77729654 0.0060400116 0)
(0.76859759 0.0057964663 0)
(0.7599906 0.0055573709 0)
(0.75147116 0.0053239019 0)
(0.74306074 0.0050969899 0)
(0.73475265 0.0048777008 0)
(0.72656779 0.0046666659 0)
(0.71849646 0.0044645685 0)
(0.71055874 0.0042716275 0)
(0.70274182 0.004088138 0)
(0.69506511 0.0039139697 0)
(0.68751284 0.003749131 0)
(0.68010414 0.003593267 0)
(0.67282052 0.0034462068 0)
(0.66568121 0.0033074386 0)
(0.65866522 0.0031766769 0)
(0.65179226 0.0030533346 0)
(0.64503906 0.0029370895 0)
(0.6384262 0.0028273456 0)
(0.63192826 0.0027237936 0)
(0.62556698 0.0026258654 0)
(0.61931493 0.0025332895 0)
(0.61319529 0.0024455441 0)
(0.60717862 0.002362407 0)
(0.60128984 0.0022834101 0)
(0.5954975 0.0022083823 0)
(0.58982844 0.0021369099 0)
(0.58424919 0.0020688693 0)
(0.57878869 0.0020038973 0)
(0.57341139 0.0019419114 0)
(0.56814854 0.0018825927 0)
(0.56296237 0.0018258916 0)
(0.55788661 0.0017715278 0)
(0.55288118 0.0017194766 0)
(0.54798246 0.0016694901 0)
(0.54314788 0.0016215616 0)
(0.53841667 0.0015754708 0)
(0.5337436 0.0015312224 0)
(0.52917093 0.0014886204 0)
(0.52465059 0.001447676 0)
(0.52022805 0.0014082145 0)
(0.5158522 0.0013702494 0)
(0.51157193 0.0013336263 0)
(0.50733287 0.0012983574 0)
(0.50318753 0.0012643077 0)
(0.49907805 0.0012314854 0)
(0.49506081 0.0011997748 0)
(0.49107418 0.0011691774 0)
(0.48717867 0.0011395975 0)
(0.48330861 0.0011110276 0)
(0.47952891 0.0010833921 0)
(0.47576955 0.0010566729 0)
(0.47210013 0.0010308155 0)
(0.46844598 0.0010057889 0)
(0.4648817 0.00098156059 0)
(0.46132763 0.00095808486 0)
(0.45786371 0.00093535244 0)
(0.4544049 0.00091330063 0)
(0.45103686 0.00089194456 0)
(0.4476688 0.00087120263 0)
(0.44439248 0.00085111563 0)
(0.44111093 0.00083158101 0)
(0.43792244 0.0008126666 0)
(0.43472341 0.00079424684 0)
(0.43161913 0.00077641805 0)
(0.42849885 0.00075902961 0)
(0.42547538 0.00074220789 0)
(0.42243031 0.00072577509 0)
(0.41948449 0.00070988927 0)
(0.41651126 0.00069434335 0)
(0.41364013 0.0006793288 0)
(0.41073557 0.00066460714 0)
(0.40793635 0.00065040503 0)
(0.40509744 0.00063645044 0)
(0.40236755 0.00062300709 0)
(0.39959142 0.00060976722 0)
(0.39692845 0.00059703358 0)
(0.39421236 0.00058446042 0)
(0.39161404 0.0005723915 0)
(0.3889554 0.00056044086 0)
(0.38641963 0.0005489954 0)
(0.38381592 0.00053762664 0)
(0.38134074 0.00052676669 0)
(0.37878957 0.00051594231 0)
(0.37637315 0.000505633 0)
(0.37387222 0.00049531835 0)
(0.37151286 0.00048552754 0)
(0.36905996 0.0004756906 0)
(0.36675608 0.00046638863 0)
(0.36434905 0.0004569997 0)
(0.36209921 0.00044815916 0)
(0.35973597 0.00043919064 0)
(0.35753882 0.00043078616 0)
(0.35521735 0.00042221245 0)
(0.35307166 0.00041422058 0)
(0.35078998 0.00040601786 0)
(0.34869464 0.00039841686 0)
(0.34645082 0.00039056293 0)
(0.3444048 0.00038333262 0)
(0.34219694 0.00037580675 0)
(0.34019934 0.00036892838 0)
(0.33802557 0.0003617112 0)
(0.33607556 0.00035516733 0)
(0.33393403 0.00034824077 0)
(0.33203093 0.00034201521 0)
(0.32991978 0.00033536239 0)
(0.32806298 0.00032944004 0)
(0.32598037 0.00032304507 0)
(0.32416938 0.00031741185 0)
(0.32211347 0.00031125987 0)
(0.32034789 0.00030590266 0)
(0.31831682 0.00029997979 0)
(0.31659638 0.00029488634 0)
(0.31458825 0.00028917952 0)
(0.31291277 0.00028433835 0)
(0.31092568 0.00027883533 0)
(0.30929511 0.00027423576 0)
(0.30732709 0.00026892512 0)
(0.3057415 0.00026455713 0)
(0.30379054 0.00025942815 0)
(0.30225012 0.00025528222 0)
(0.30031415 0.0002503248 0)
(0.29881921 0.00024639212 0)
(0.29689608 0.00024159706 0)
(0.2954471 0.00023786943 0)
(0.29353456 0.0002332281 0)
(0.29213215 0.00022969743 0)
(0.29022784 0.0002252017 0)
(0.28887279 0.00022186048 0)
(0.28697425 0.00021750328 0)
(0.28566749 0.00021434466 0)
(0.2837721 0.00021011951 0)
(0.28251477 0.0002071364 0)
(0.28061977 0.00020303734 0)
(0.27941319 0.00020022293 0)
(0.27751561 0.00019624532 0)
(0.27636135 0.00019359361 0)
(0.27445801 0.00018973353 0)
(0.27335785 0.00018723769 0)
(0.27144533 0.00018349232 0)
(0.27040132 0.0001811458 0)
(0.26847595 0.00017751391 0)
(0.26749041 0.0001753103 0)
(0.26554816 0.00017179208 0)
(0.26462375 0.00016972436 0)
(0.26266024 0.00016632266 0)
(0.26179992 0.00016438245 0)
(0.25981037 0.00016110181 0)
(0.25901748 0.0001592823 0)
(0.25699661 0.00015613272 0)
(0.2562749 0.00015442246 0)
(0.25421685 0.00015141682 0)
(0.25357049 0.00014980647 0)
(0.25146876 0.00014696688 0)
(0.25090238 0.00014544244 0)
(0.24874966 0.00014279986 0)
(0.24826837 0.00014134598 0)
(0.24605636 0.00013894834 0)
(0.24566575 0.00013754736 0)
(0.24338489 0.00013546732 0)
(0.24309104 0.0001340987 0)
(0.24073002 0.00013244702 0)
(0.24053947 0.00013108915 0)
(0.23808457 0.00013005289 0)
(0.23800399 0.00012848499 0)
(0.23544162 0.00013171697 0)
(0.97901029 0.01489971 0)
(0.97914769 0.018982722 0)
(0.98051618 0.022343009 0)
(0.98284249 0.024441347 0)
(0.98552813 0.025551809 0)
(0.98803754 0.026231916 0)
(0.99015537 0.026881139 0)
(0.99191358 0.027610092 0)
(0.99345567 0.028330534 0)
(0.99488097 0.028893103 0)
(0.99621561 0.029170908 0)
(0.99739303 0.029078948 0)
(0.99831539 0.028571535 0)
(0.99885029 0.027637214 0)
(0.9988932 0.026306849 0)
(0.99834815 0.024651909 0)
(0.99717983 0.022779783 0)
(0.99537522 0.020822002 0)
(0.99298657 0.018911388 0)
(0.99007813 0.017158259 0)
(0.98676086 0.015630758 0)
(0.98312649 0.014353948 0)
(0.97928208 0.013316561 0)
(0.97528737 0.012489229 0)
(0.97120422 0.011833631 0)
(0.9670452 0.011311568 0)
(0.96283124 0.010890152 0)
(0.95854249 0.010541925 0)
(0.95418604 0.010243748 0)
(0.94973668 0.0099774748 0)
(0.94520394 0.0097294724 0)
(0.94056477 0.0094907589 0)
(0.93583431 0.0092555914 0)
(0.93099271 0.0090210947 0)
(0.92606098 0.0087858608 0)
(0.92102179 0.0085498995 0)
(0.91590095 0.0083136068 0)
(0.91068213 0.0080780322 0)
(0.90539453 0.0078440805 0)
(0.90002131 0.0076129504 0)
(0.894594 0.0073854627 0)
(0.88909422 0.0071625908 0)
(0.8835552 0.0069448616 0)
(0.87795642 0.0067329306 0)
(0.87233262 0.0065270216 0)
(0.86666078 0.0063275153 0)
(0.86097714 0.006134411 0)
(0.85525602 0.0059478898 0)
(0.84953519 0.0057677769 0)
(0.84378618 0.0055941043 0)
(0.8380485 0.005426591 0)
(0.83229074 0.0052651851 0)
(0.82655432 0.0051095586 0)
(0.82080483 0.0049596216 0)
(0.81508577 0.0048150354 0)
(0.80935956 0.0046756977 0)
(0.80367202 0.0045412808 0)
(0.79798229 0.0044116835 0)
(0.79233867 0.004286601 0)
(0.78669687 0.0041659392 0)
(0.78110791 0.0040494222 0)
(0.7755239 0.0039369641 0)
(0.76999879 0.0038283199 0)
(0.76448092 0.0037234096 0)
(0.7590274 0.0036220194 0)
(0.75358262 0.0035240714 0)
(0.7482071 0.0034293818 0)
(0.74284106 0.0033378704 0)
(0.73754871 0.003249383 0)
(0.73226589 0.0031638328 0)
(0.72706076 0.0030810945 0)
(0.72186453 0.0030010705 0)
(0.71674966 0.002923665 0)
(0.71164247 0.0028487661 0)
(0.70662001 0.0027763078 0)
(0.70160344 0.0027061611 0)
(0.69667476 0.0026382914 0)
(0.69174967 0.0025725492 0)
(0.68691548 0.0025089335 0)
(0.6820821 0.0024472714 0)
(0.67734253 0.0023875977 0)
(0.67260056 0.0023297138 0)
(0.66795529 0.0022736926 0)
(0.663304 0.0022193064 0)
(0.65875233 0.0021666688 0)
(0.65419064 0.00211552 0)
(0.64973157 0.0020660171 0)
(0.6452581 0.0020178654 0)
(0.64089038 0.0019712681 0)
(0.63650355 0.0019258923 0)
(0.63222576 0.0018819904 0)
(0.62792379 0.0018391876 0)
(0.62373439 0.0017977883 0)
(0.61951539 0.0017573726 0)
(0.61541274 0.0017182998 0)
(0.61127472 0.0016801007 0)
(0.60725711 0.0016431933 0)
(0.60319801 0.001607055 0)
(0.59926372 0.0015721655 0)
(0.59528144 0.001537945 0)
(0.59142874 0.0015049385 0)
(0.58752115 0.0014725047 0)
(0.5837483 0.0014412577 0)
(0.57991325 0.0014104903 0)
(0.57621857 0.0013808894 0)
(0.57245391 0.0013516776 0)
(0.56883571 0.0013236187 0)
(0.56513931 0.0012958605 0)
(0.56159598 0.001269248 0)
(0.5579657 0.0012428493 0)
(0.55449566 0.0012175951 0)
(0.55092939 0.001192469 0)
(0.54753111 0.001168492 0)
(0.54402675 0.0011445581 0)
(0.5406988 0.0011217834 0)
(0.53725425 0.0010989671 0)
(0.53399524 0.0010773254 0)
(0.53060843 0.0010555575 0)
(0.52741705 0.001034985 0)
(0.52408594 0.0010142013 0)
(0.52096094 0.0009946388 0)
(0.51768349 0.00097477952 0)
(0.5146237 0.00095617229 0)
(0.51139789 0.0009371818 0)
(0.50840223 0.00091947912 0)
(0.50522603 0.00090130545 0)
(0.50229351 0.00088446022 0)
(0.49916491 0.00086705484 0)
(0.4962946 0.00085102342 0)
(0.49321159 0.00083434101 0)
(0.49040266 0.0008190829 0)
(0.48736324 0.000803081 0)
(0.48461495 0.00078855855 0)
(0.48161708 0.00077319724 0)
(0.47892878 0.00075937544 0)
(0.47597043 0.00074461727 0)
(0.47334158 0.00073146355 0)
(0.4704207 0.00071727334 0)
(0.46785084 0.00070475749 0)
(0.46496534 0.00069110216 0)
(0.46245413 0.00067919606 0)
(0.4596019 0.0006660443 0)
(0.45714909 0.00065472174 0)
(0.45432798 0.00064204401 0)
(0.45193346 0.00063128067 0)
(0.44914126 0.00061904918 0)
(0.44680503 0.00060882248 0)
(0.44403946 0.00059701085 0)
(0.44176165 0.00058729973 0)
(0.43902038 0.00057588294 0)
(0.43680124 0.00056666796 0)
(0.43408186 0.00055562246 0)
(0.43192181 0.0005468856 0)
(0.42922179 0.00053618892 0)
(0.42712138 0.00052791324 0)
(0.42443811 0.00051754398 0)
(0.42239808 0.00050971401 0)
(0.41972881 0.00049965222 0)
(0.41775005 0.00049225389 0)
(0.41509189 0.0004824805 0)
(0.41317549 0.00047550022 0)
(0.41052541 0.00046599684 0)
(0.40867267 0.0004594223 0)
(0.40602743 0.00045017226 0)
(0.40423988 0.00044399277 0)
(0.40159605 0.0004349802 0)
(0.39987545 0.00042918487 0)
(0.39722937 0.00042039449 0)
(0.39557775 0.00041497361 0)
(0.3929255 0.00040639223 0)
(0.39134517 0.00040133762 0)
(0.38868253 0.0003929529 0)
(0.38717612 0.00038825582 0)
(0.38449853 0.00038005696 0)
(0.38306903 0.00037570951 0)
(0.38037157 0.0003676878 0)
(0.37902232 0.00036368319 0)
(0.37629963 0.00035583242 0)
(0.37503439 0.0003521633 0)
(0.37228062 0.00034448011 0)
(0.37110361 0.0003411381 0)
(0.36831237 0.00033362293 0)
(0.36722829 0.00033060275 0)
(0.36439253 0.00032326279 0)
(0.3634066 0.00032055292 0)
(0.3605186 0.00031340107 0)
(0.3596366 0.00031099446 0)
(0.35668775 0.00030405726 0)
(0.35591604 0.00030194039 0)
(0.35289681 0.00029525913 0)
(0.35224233 0.00029341784 0)
(0.34914204 0.00028706207 0)
(0.34861224 0.00028547852 0)
(0.34541888 0.00027956087 0)
(0.34502151 0.00027820907 0)
(0.34172161 0.00027292542 0)
(0.34146405 0.00027172951 0)
(0.338043 0.0002675644 0)
(0.33792978 0.00026591174 0)
(0.33437713 0.00026797281 0)
(0.98107676 0.014582222 0)
(0.98115202 0.017838486 0)
(0.982155 0.020812562 0)
(0.98399644 0.023052364 0)
(0.98634441 0.02447637 0)
(0.98876904 0.025363518 0)
(0.99101501 0.026043996 0)
(0.9930286 0.026700278 0)
(0.99491636 0.027334196 0)
(0.99678404 0.027842958 0)
(0.99870613 0.028106734 0)
(1.0006591 0.028037363 0)
(1.0025871 0.027589567 0)
(1.0043762 0.026758925 0)
(1.005934 0.025579507 0)
(1.0071496 0.024118726 0)
(1.0079678 0.022469719 0)
(1.0083333 0.020742141 0)
(1.0082629 0.019046053 0)
(1.007774 0.017475697 0)
(1.0069511 0.016094036 0)
(1.0058554 0.014929319 0)
(1.004589 0.013978401 0)
(1.0031996 0.013218969 0)
(1.0017594 0.012618039 0)
(1.0002737 0.012140738 0)
(0.99877761 0.011756525 0)
(0.99724472 0.011441017 0)
(0.99569406 0.011174319 0)
(0.99408875 0.010940705 0)
(0.99244664 0.010727679 0)
(0.99072866 0.010526347 0)
(0.98895622 0.010330447 0)
(0.98709054 0.01013636 0)
(0.98515825 0.0099419358 0)
(0.98312149 0.0097465168 0)
(0.98101222 0.0095499634 0)
(0.97879283 0.0093528732 0)
(0.97650001 0.0091558266 0)
(0.97409536 0.0089597419 0)
(0.97161958 0.0087652731 0)
(0.96903262 0.0085732321 0)
(0.96637874 0.0083840894 0)
(0.9636156 0.0081984139 0)
(0.96079084 0.0080164467 0)
(0.95785938 0.0078385218 0)
(0.95487222 0.0076646893 0)
(0.95178123 0.0074950991 0)
(0.94864083 0.007329675 0)
(0.94539958 0.0071684412 0)
(0.94211548 0.0070112501 0)
(0.93873355 0.0068580491 0)
(0.93531554 0.0067086663 0)
(0.93180273 0.0065630073 0)
(0.92826082 0.0064209068 0)
(0.92462709 0.0062822489 0)
(0.92097141 0.0061468934 0)
(0.91722682 0.0060147129 0)
(0.9134676 0.0058856032 0)
(0.9096223 0.0057594292 0)
(0.90576984 0.0056361284 0)
(0.90183396 0.0055155573 0)
(0.89789851 0.0053976975 0)
(0.89388214 0.0052823931 0)
(0.88987388 0.0051696706 0)
(0.88578694 0.0050593562 0)
(0.88171586 0.0049515208 0)
(0.87756808 0.0048459665 0)
(0.87344392 0.0047428087 0)
(0.86924469 0.0046418192 0)
(0.86507688 0.004543158 0)
(0.86083524 0.0044465608 0)
(0.85663278 0.0043522331 0)
(0.85235734 0.0042598692 0)
(0.84812882 0.0041697222 0)
(0.84382769 0.0040814397 0)
(0.83958121 0.0039953249 0)
(0.835262 0.0039109745 0)
(0.83100513 0.0038287452 0)
(0.82667491 0.0037481781 0)
(0.82241471 0.0036696875 0)
(0.81808 0.0035927549 0)
(0.81382298 0.0035178564 0)
(0.80948975 0.0034444092 0)
(0.80524191 0.0033729559 0)
(0.80091558 0.003302845 0)
(0.79668238 0.0032346905 0)
(0.79236785 0.0031677678 0)
(0.78815426 0.0031027678 0)
(0.7838559 0.0030388875 0)
(0.77966641 0.0029769003 0)
(0.77538811 0.0029159198 0)
(0.77122676 0.0028568073 0)
(0.76697195 0.0027985876 0)
(0.76284235 0.002742216 0)
(0.75861401 0.0026866226 0)
(0.75451938 0.0026328626 0)
(0.75032008 0.0025797654 0)
(0.74626329 0.0025284928 0)
(0.74209523 0.0024777668 0)
(0.7380788 0.0024288623 0)
(0.73394382 0.0023803875 0)
(0.72996997 0.002333737 0)
(0.7258696 0.0022873984 0)
(0.72194027 0.0022428933 0)
(0.71787573 0.002198581 0)
(0.71399265 0.0021561178 0)
(0.70996488 0.0021137269 0)
(0.70612954 0.0020732071 0)
(0.70213923 0.0020326377 0)
(0.69835294 0.0019939681 0)
(0.69440058 0.0019551253 0)
(0.69066447 0.0019182175 0)
(0.6867503 0.001881011 0)
(0.68306538 0.0018457816 0)
(0.67918948 0.0018101254 0)
(0.67555662 0.0017764953 0)
(0.67171888 0.0017423078 0)
(0.66813887 0.0017102025 0)
(0.664339 0.0016774062 0)
(0.66081253 0.0016467553 0)
(0.65705011 0.0016152768 0)
(0.65357781 0.0015860142 0)
(0.64985228 0.0015557837 0)
(0.64643472 0.0015278469 0)
(0.64274539 0.0014987982 0)
(0.63938311 0.0014721286 0)
(0.63572915 0.0014441988 0)
(0.63242267 0.0014187413 0)
(0.62880312 0.0013918708 0)
(0.62555297 0.0013675737 0)
(0.62196677 0.0013417058 0)
(0.61877345 0.0013185205 0)
(0.61521942 0.0012936011 0)
(0.61208347 0.0012714821 0)
(0.60856032 0.0012474599 0)
(0.60548229 0.0012263643 0)
(0.60198862 0.0012031904 0)
(0.59896911 0.0011830784 0)
(0.59550339 0.0011607062 0)
(0.59254306 0.0011415404 0)
(0.58910364 0.0011199254 0)
(0.58620321 0.0011016707 0)
(0.58278834 0.0010807704 0)
(0.5799486 0.0010633942 0)
(0.57655638 0.0010431679 0)
(0.5737782 0.0010266398 0)
(0.57040661 0.0010070487 0)
(0.56769098 0.00099134047 0)
(0.56433786 0.00097234699 0)
(0.56168587 0.00095743251 0)
(0.5583489 0.00093900106 0)
(0.55576177 0.0009248562 0)
(0.55243847 0.00090695234 0)
(0.54991757 0.00089355454 0)
(0.54660528 0.00087614498 0)
(0.54415215 0.00086347378 0)
(0.54084802 0.00084652704 0)
(0.53846436 0.00083456412 0)
(0.53516533 0.00081804968 0)
(0.53285305 0.00080677752 0)
(0.52955583 0.00079066544 0)
(0.52731706 0.00078006851 0)
(0.52401812 0.00076433104 0)
(0.52185522 0.00075439636 0)
(0.51855074 0.00073900664 0)
(0.51646634 0.0007297212 0)
(0.5131522 0.0007146527 0)
(0.51114924 0.00070600546 0)
(0.50782097 0.00069123448 0)
(0.50590271 0.00068321693 0)
(0.50255548 0.00066872048 0)
(0.50072552 0.00066132371 0)
(0.49735406 0.00064708078 0)
(0.49561641 0.00064029756 0)
(0.49221501 0.00062628936 0)
(0.49057411 0.00062011432 0)
(0.48713652 0.00060632609 0)
(0.48559726 0.00060075389 0)
(0.48211665 0.00058717314 0)
(0.48068446 0.00058219713 0)
(0.47715337 0.00056881838 0)
(0.4758342 0.000564437 0)
(0.4722444 0.00055126233 0)
(0.47104481 0.00054746542 0)
(0.46738731 0.0005345067 0)
(0.46631445 0.00053129048 0)
(0.46257929 0.00051857895 0)
(0.46164093 0.00051592964 0)
(0.45781719 0.00050351968 0)
(0.45702164 0.00050142038 0)
(0.45309727 0.00048941212 0)
(0.45245323 0.00048783293 0)
(0.448415 0.00047640166 0)
(0.44793114 0.00047527731 0)
(0.4437648 0.00046476711 0)
(0.44344866 0.00046387957 0)
(0.43913978 0.00045519905 0)
(0.43899475 0.00045356517 0)
(0.43453329 0.00045266724 0)
(0.98284306 0.014416677 0)
(0.98291563 0.017157444 0)
(0.9837179 0.019788573 0)
(0.98520779 0.021985592 0)
(0.98720541 0.023568126 0)
(0.98939926 0.024610614 0)
(0.99155497 0.025335266 0)
(0.99355026 0.025929522 0)
(0.99542991 0.026457069 0)
(0.99726053 0.026871517 0)
(0.99912979 0.027080997 0)
(1.0010327 0.027003305 0)
(1.0029528 0.026592177 0)
(1.0047959 0.025842729 0)
(1.0065007 0.024785937 0)
(1.0079619 0.023481597 0)
(1.009141 0.022009721 0)
(1.0099714 0.020462089 0)
(1.0104713 0.018930809 0)
(1.010632 0.017496818 0)
(1.0105318 0.016218188 0)
(1.0102039 0.015125209 0)
(1.0097521 0.014221345 0)
(1.0092054 0.01349085 0)
(1.0086484 0.012906592 0)
(1.008075 0.012438408 0)
(1.0075389 0.012058817 0)
(1.0070032 0.011745748 0)
(1.0065059 0.011481538 0)
(1.0059969 0.011252225 0)