0 	0.00053063086
2.5125628e-05 	0.0005306456
5.0251256e-05 	0.00053076273
7.5376884e-05 	0.00053110236
0.00010050251 	0.00053145165
0.00012562814 	0.00053180664
0.00015075377 	0.00053209406
0.0001758794 	0.00053237359
0.00020100503 	0.00053266752
0.00022613065 	0.00053296029
0.00025125628 	0.00053324917
0.00027638191 	0.00053354514
0.00030150754 	0.00053384881
0.00032663317 	0.00053416992
0.00035175879 	0.00053450271
0.00037688442 	0.00053484371
0.00040201005 	0.00053518839
0.00042713568 	0.00053557074
0.00045226131 	0.00053596706
0.00047738693 	0.00053636954
0.00050251256 	0.00053677407
0.00052763819 	0.00053723071
0.00055276382 	0.0005377087
0.00057788945 	0.00053818916
0.00060301508 	0.00053867095
0.0006281407 	0.00053919962
0.00065326633 	0.00053976978
0.00067839196 	0.00054033952
0.00070351759 	0.00054090862
0.00072864322 	0.00054149464
0.00075376884 	0.00054215445
0.00077889447 	0.00054281427
0.0008040201 	0.00054346847
0.00082914573 	0.00054412246
0.00085427136 	0.00054483044
0.00087939698 	0.00054556495
0.00090452261 	0.00054629589
0.00092964824 	0.0005470204
0.00095477387 	0.00054774588
0.0009798995 	0.00054853121
0.0010050251 	0.000549319
0.0010301508 	0.00055009926
0.0010552764 	0.00055087376
0.001080402 	0.00055165276
0.0011055276 	0.00055247335
0.0011306533 	0.00055329394
0.0011557789 	0.00055410528
0.0011809045 	0.00055491011
0.0012060302 	0.00055571651
0.0012311558 	0.00055655407
0.0012562814 	0.00055739232
0.001281407 	0.00055822339
0.0013065327 	0.00055904403
0.0013316583 	0.00055986468
0.0013567839 	0.000560705
0.0013819095 	0.00056155174
0.0014070352 	0.00056239803
0.0014321608 	0.00056322572
0.0014572864 	0.0005640534
0.0014824121 	0.0005648872
0.0015075377 	0.0005657377
0.0015326633 	0.00056658819
0.0015577889 	0.00056743005
0.0015829146 	0.00056826025
0.0016080402 	0.00056909044
0.0016331658 	0.00056993292
0.0016582915 	0.00057078499
0.0016834171 	0.00057163705
0.0017085427 	0.00057247619
0.0017336683 	0.00057330685
0.001758794 	0.0005741375
0.0017839196 	0.00057498196
0.0018090452 	0.00057583468
0.0018341709 	0.00057668739
0.0018592965 	0.00057752775
0.0018844221 	0.00057835802
0.0019095477 	0.0005791883
0.0019346734 	0.00058002884
0.001959799 	0.00058088179
0.0019849246 	0.00058173474
0.0020100503 	0.00058258168
0.0020351759 	0.00058341123
0.0020603015 	0.00058424078
0.0020854271 	0.00058507163
0.0021105528 	0.00058592406
0.0021356784 	0.00058677702
0.002160804 	0.00058762997
0.0021859296 	0.00058846562
0.0022110553 	0.00058929426
0.0022361809 	0.0005901229
0.0022613065 	0.00059096021
0.0022864322 	0.00059181299
0.0023115578 	0.00059266576
0.0023366834 	0.00059351853
0.002361809 	0.00059434848
0.0023869347 	0.00059517609
0.0024120603 	0.00059600369
0.0024371859 	0.0005968417
0.0024623116 	0.00059769411
0.0024874372 	0.00059854653
0.0025125628 	0.00059939894
0.0025376884 	0.00060022977
0.0025628141 	0.00060105621
0.0025879397 	0.00060188265
0.0026130653 	0.00060271425
0.002638191 	0.00060356612
0.0026633166 	0.00060441799
0.0026884422 	0.00060526986
0.0027135678 	0.00060610906
0.0027386935 	0.0006069342
0.0027638191 	0.00060775933
0.0027889447 	0.00060858447
0.0028140704 	0.0006094278
0.002839196 	0.00061027892
0.0028643216 	0.00061113004
0.0028894472 	0.00061198117
0.0029145729 	0.00061280969
0.0029396985 	0.00061363337
0.0029648241 	0.00061445705
0.0029899497 	0.00061528073
0.0030150754 	0.0006161282
0.003040201 	0.00061697837
0.0030653266 	0.00061782853
0.0030904523 	0.00061867869
0.0031155779 	0.00061950444
0.0031407035 	0.0006203265
0.0031658291 	0.00062114857
0.0031909548 	0.00062197063
0.0032160804 	0.00062281385
0.003241206 	0.00062366281
0.0032663317 	0.00062451177
0.0032914573 	0.00062536073
0.0033165829 	0.00062619255
0.0033417085 	0.00062701282
0.0033668342 	0.00062783308
0.0033919598 	0.00062865335
0.0034170854 	0.00062948319
0.0034422111 	0.00063033069
0.0034673367 	0.00063117819
0.0034924623 	0.0006320257
0.0035175879 	0.0006328732
0.0035427136 	0.00063369155
0.0035678392 	0.00063450982
0.0035929648 	0.00063532808
0.0036180905 	0.00063614634
0.0036432161 	0.00063698059
0.0036683417 	0.00063782636
0.0036934673 	0.00063867212
0.003718593 	0.00063951789
0.0037437186 	0.00064036205
0.0037688442 	0.00064117808
0.0037939698 	0.00064199411
0.0038190955 	0.00064281014
0.0038442211 	0.00064362617
0.0038693467 	0.000644455
0.0038944724 	0.00064529874
0.003919598 	0.00064614247
0.0039447236 	0.0006469862
0.0039698492 	0.00064782994
0.0039949749 	0.00064865087
0.0040201005 	0.00064946442
0.0040452261 	0.00065027797
0.0040703518 	0.00065109152
0.0040954774 	0.00065190608
0.004120603 	0.0006527459
0.0041457286 	0.00065358728
0.0041708543 	0.00065442867
0.0041959799 	0.00065527006
0.0042211055 	0.0006561088
0.0042462312 	0.0006569196
0.0042713568 	0.0006577304
0.0042964824 	0.00065854121
0.004321608 	0.00065935201
0.0043467337 	0.00066016673
0.0043718593 	0.00066100488
0.0043969849 	0.00066184358
0.0044221106 	0.00066268229
0.0044472362 	0.000663521
0.0044723618 	0.00066435868
0.0044974874 	0.00066516646
0.0045226131 	0.00066597423
0.0045477387 	0.000666782
0.0045728643 	0.00066758977
0.0045979899 	0.00066839755
0.0046231156 	0.00066922954
0.0046482412 	0.00067006521
0.0046733668 	0.00067090087
0.0046984925 	0.00067173653
0.0047236181 	0.0006725722
0.0047487437 	0.00067338977
0.0047738693 	0.00067419421
0.004798995 	0.00067499865
0.0048241206 	0.00067580309
0.0048492462 	0.00067660753
0.0048743719 	0.00067741777
0.0048994975 	0.00067824999
0.0049246231 	0.00067908221
0.0049497487 	0.00067991443
0.0049748744 	0.00068074665
0.005 	0.00068157887
