# vtk DataFile Version 2.0
symmetry
ASCII
DATASET POLYDATA
POINTS 194 float
-0.333333 0 0 -0.323977 0 0 -0.323977 0 0.1 -0.333333 0
0.1 -0.314868 0 0 -0.314868 0 0.1 -0.305998 0 0
-0.305998 0 0.1 -0.297363 0 0 -0.297363 0 0.1 -0.288955
0 0 -0.288955 0 0.1 -0.280769 0 0 -0.280769 0
0.1 -0.272799 0 0 -0.272799 0 0.1 -0.265039 0 0
-0.265039 0 0.1 -0.257483 0 0 -0.257483 0 0.1 -0.250127
0 0 -0.250127 0 0.1 -0.242965 0 0 -0.242965 0
0.1 -0.235991 0 0 -0.235991 0 0.1 -0.229201 0 0
-0.229201 0 0.1 -0.222591 0 0 -0.222591 0 0.1 -0.216154
0 0 -0.216154 0 0.1 -0.209888 0 0 -0.209888 0
0.1 -0.203786 0 0 -0.203786 0 0.1 -0.197846 0 0
-0.197846 0 0.1 -0.192062 0 0 -0.192062 0 0.1 -0.186431
0 0 -0.186431 0 0.1 -0.180948 0 0 -0.180948 0
0.1 -0.175609 0 0 -0.175609 0 0.1 -0.170412 0 0
-0.170412 0 0.1 -0.165351 0 0 -0.165351 0 0.1 -0.160424
0 0 -0.160424 0 0.1 -0.155627 0 0 -0.155627 0
0.1 -0.150956 0 0 -0.150956 0 0.1 -0.146409 0 0
-0.146409 0 0.1 -0.141981 0 0 -0.141981 0 0.1 -0.13767
0 0 -0.13767 0 0.1 -0.133473 0 0 -0.133473 0
0.1 -0.129386 0 0 -0.129386 0 0.1 -0.125407 0 0
-0.125407 0 0.1 -0.121533 0 0 -0.121533 0 0.1 -0.117761
0 0 -0.117761 0 0.1 -0.114089 0 0 -0.114089 0
0.1 -0.110514 0 0 -0.110514 0 0.1 -0.107032 0 0
-0.107032 0 0.1 -0.103643 0 0 -0.103643 0 0.1 -0.100343
0 0 -0.100343 0 0.1 -0.0971296 0 0 -0.0971296 0
0.1 -0.0940012 0 0 -0.0940012 0 0.1 -0.0909553 0 0
-0.0909553 0 0.1 -0.0879897 0 0 -0.0879897 0 0.1 -0.0851023
0 0 -0.0851023 0 0.1 -0.082291 0 0 -0.082291 0
0.1 -0.0795539 0 0 -0.0795539 0 0.1 -0.0768889 0 0
-0.0768889 0 0.1 -0.0742942 0 0 -0.0742942 0 0.1 -0.0717679
0 0 -0.0717679 0 0.1 -0.0693082 0 0 -0.0693082 0
0.1 -0.0669134 0 0 -0.0669134 0 0.1 -0.0645817 0 0
-0.0645817 0 0.1 -0.0623114 0 0 -0.0623114 0 0.1 -0.0601011
0 0 -0.0601011 0 0.1 -0.057949 0 0 -0.057949 0
0.1 -0.0558536 0 0 -0.0558536 0 0.1 -0.0538136 0 0
-0.0538136 0 0.1 -0.0518272 0 0 -0.0518272 0 0.1 -0.0498933
0 0 -0.0498933 0 0.1 -0.0480104 0 0 -0.0480104 0
0.1 -0.0461771 0 0 -0.0461771 0 0.1 -0.0443921 0 0
-0.0443921 0 0.1 -0.0426542 0 0 -0.0426542 0 0.1 -0.0409621
0 0 -0.0409621 0 0.1 -0.0393147 0 0 -0.0393147 0
0.1 -0.0377106 0 0 -0.0377106 0 0.1 -0.0361489 0 0
-0.0361489 0 0.1 -0.0346284 0 0 -0.0346284 0 0.1 -0.0331479
0 0 -0.0331479 0 0.1 -0.0317065 0 0 -0.0317065 0
0.1 -0.030303 0 0 -0.030303 0 0.1 -0.0289728 0 0
-0.0289728 0 0.1 -0.0276486 0 0 -0.0276486 0 0.1 -0.0263305
0 0 -0.0263305 0 0.1 -0.0250184 0 0 -0.0250184 0
0.1 -0.0237123 0 0 -0.0237123 0 0.1 -0.0224121 0 0
-0.0224121 0 0.1 -0.0211179 0 0 -0.0211179 0 0.1 -0.0198297
0 0 -0.0198297 0 0.1 -0.0185473 0 0 -0.0185473 0
0.1 -0.0172708 0 0 -0.0172708 0 0.1 -0.0160001 0 0
-0.0160001 0 0.1 -0.0147352 0 0 -0.0147352 0 0.1 -0.0134761
0 0 -0.0134761 0 0.1 -0.0122227 0 0 -0.0122227 0
0.1 -0.0109751 0 0 -0.0109751 0 0.1 -0.00973318 0 0
-0.00973318 0 0.1 -0.00849694 0 0 -0.00849694 0 0.1 -0.00726634
0 0 -0.00726634 0 0.1 -0.00604137 0 0 -0.00604137 0
0.1 -0.004822 0 0 -0.004822 0 0.1 -0.00360821 0 0
-0.00360821 0 0.1 -0.00239996 0 0 -0.00239996 0 0.1 -0.00119723
0 0 -0.00119723 0 0.1 0 0 0 0 0
0.1 
POLYGONS 96 480
4 0 1 2 3 4 1 4 5 2 4
4 6 7 5 4 6 8 9 7 4
8 10 11 9 4 10 12 13 11 4
12 14 15 13 4 14 16 17 15 4
16 18 19 17 4 18 20 21 19 4
20 22 23 21 4 22 24 25 23 4
24 26 27 25 4 26 28 29 27 4
28 30 31 29 4 30 32 33 31 4
32 34 35 33 4 34 36 37 35 4
36 38 39 37 4 38 40 41 39 4
40 42 43 41 4 42 44 45 43 4
44 46 47 45 4 46 48 49 47 4
48 50 51 49 4 50 52 53 51 4
52 54 55 53 4 54 56 57 55 4
56 58 59 57 4 58 60 61 59 4
60 62 63 61 4 62 64 65 63 4
64 66 67 65 4 66 68 69 67 4
68 70 71 69 4 70 72 73 71 4
72 74 75 73 4 74 76 77 75 4
76 78 79 77 4 78 80 81 79 4
80 82 83 81 4 82 84 85 83 4
84 86 87 85 4 86 88 89 87 4
88 90 91 89 4 90 92 93 91 4
92 94 95 93 4 94 96 97 95 4
96 98 99 97 4 98 100 101 99 4
100 102 103 101 4 102 104 105 103 4
104 106 107 105 4 106 108 109 107 4
108 110 111 109 4 110 112 113 111 4
112 114 115 113 4 114 116 117 115 4
116 118 119 117 4 118 120 121 119 4
120 122 123 121 4 122 124 125 123 4
124 126 127 125 4 126 128 129 127 4
128 130 131 129 4 130 132 133 131 4
132 134 135 133 4 134 136 137 135 4
136 138 139 137 4 138 140 141 139 4
140 142 143 141 4 142 144 145 143 4
144 146 147 145 4 146 148 149 147 4
148 150 151 149 4 150 152 153 151 4
152 154 155 153 4 154 156 157 155 4
156 158 159 157 4 158 160 161 159 4
160 162 163 161 4 162 164 165 163 4
164 166 167 165 4 166 168 169 167 4
168 170 171 169 4 170 172 173 171 4
172 174 175 173 4 174 176 177 175 4
176 178 179 177 4 178 180 181 179 4
180 182 183 181 4 182 184 185 183 4
184 186 187 185 4 186 188 189 187 4
188 190 191 189 4 190 192 193 191 
CELL_DATA 96
FIELD attributes 12
patchID 1 96 float
4 4 4 4 4 4 4 4 4 4 4
4 4 4 4 4 4 4 4 4 4
4 4 4 4 4 4 4 4 4 4
4 4 4 4 4 4 4 4 4 4
4 4 4 4 4 4 4 4 4 4
4 4 4 4 4 4 4 4 4 4
4 4 4 4 4 4 4 4 4 4
4 4 4 4 4 4 4 4 4 4
4 4 4 4 4 4 4 4 4 4
4 4 4 4 4 
Cy 1 96 float
2.4654e-05 2.4654e-05 2.4654e-05 2.4654e-05 2.4654e-05 2.4654e-05 2.4654e-05 2.4654e-05 2.4654e-05 2.4654e-05 2.4654e-05
2.4654e-05 2.4654e-05 2.4654e-05 2.4654e-05 2.4654e-05 2.4654e-05 2.4654e-05 2.4654e-05 2.4654e-05 2.4654e-05
2.4654e-05 2.4654e-05 2.4654e-05 2.4654e-05 2.4654e-05 2.4654e-05 2.4654e-05 2.4654e-05 2.4654e-05 2.4654e-05
2.4654e-05 2.4654e-05 2.4654e-05 2.4654e-05 2.4654e-05 2.4654e-05 2.4654e-05 2.4654e-05 2.4654e-05 2.4654e-05
2.4654e-05 2.4654e-05 2.4654e-05 2.4654e-05 2.4654e-05 2.4654e-05 2.4654e-05 2.4654e-05 2.4654e-05 2.4654e-05
2.4654e-05 2.4654e-05 2.4654e-05 2.4654e-05 2.4654e-05 2.4654e-05 2.4654e-05 2.4654e-05 2.4654e-05 2.4654e-05
2.4654e-05 2.4654e-05 2.4654e-05 2.4654e-05 2.4654e-05 2.4654e-05 2.4654e-05 2.4654e-05 2.4654e-05 2.4654e-05
2.4654e-05 2.4654e-05 2.4654e-05 2.4654e-05 2.4654e-05 2.4654e-05 2.4654e-05 2.4654e-05 2.4654e-05 2.4654e-05
2.4654e-05 2.4654e-05 2.4654e-05 2.4654e-05 2.4654e-05 2.4654e-05 2.4654e-05 2.4654e-05 2.4654e-05 2.4654e-05
2.4654e-05 2.4654e-05 2.4654e-05 2.4654e-05 2.4654e-05 
nut 1 96 float
1.23954e-07 1.23039e-07 1.2221e-07 1.21477e-07 1.20797e-07 1.20194e-07 1.19621e-07 1.19116e-07 1.18625e-07 1.18195e-07 1.17767e-07
1.17397e-07 1.1702e-07 1.16698e-07 1.16362e-07 1.1608e-07 1.15778e-07 1.1553e-07 1.15257e-07 1.15036e-07 1.14788e-07
1.14592e-07 1.14366e-07 1.14189e-07 1.13982e-07 1.13823e-07 1.13633e-07 1.13488e-07 1.13314e-07 1.13182e-07 1.13022e-07
1.12901e-07 1.12753e-07 1.12642e-07 1.12506e-07 1.12403e-07 1.12279e-07 1.12182e-07 1.12068e-07 1.11977e-07 1.11872e-07
1.11787e-07 1.11691e-07 1.11611e-07 1.11522e-07 1.11447e-07 1.11365e-07 1.11294e-07 1.11219e-07 1.11152e-07 1.11082e-07
1.11019e-07 1.10955e-07 1.10895e-07 1.10836e-07 1.10779e-07 1.10724e-07 1.1067e-07 1.10619e-07 1.10569e-07 1.10521e-07
1.10473e-07 1.10429e-07 1.10384e-07 1.10342e-07 1.103e-07 1.10261e-07 1.10222e-07 1.10184e-07 1.10148e-07 1.10111e-07
1.1008e-07 1.10044e-07 1.10016e-07 1.0998e-07 1.09953e-07 1.09918e-07 1.09891e-07 1.09857e-07 1.09831e-07 1.09797e-07
1.09772e-07 1.09736e-07 1.09715e-07 1.09676e-07 1.0966e-07 1.09616e-07 1.09606e-07 1.09556e-07 1.09559e-07 1.09494e-07
1.0948e-07 1.09553e-07 1.09618e-07 2.38177e-08 2.31053e-09 
Cz 1 96 float
0.05 0.05 0.05 0.05 0.05 0.05 0.05 0.05 0.05 0.05 0.05
0.05 0.05 0.05 0.05 0.05 0.05 0.05 0.05 0.05 0.05
0.05 0.05 0.05 0.05 0.05 0.05 0.05 0.05 0.05 0.05
0.05 0.05 0.05 0.05 0.05 0.05 0.05 0.05 0.05 0.05
0.05 0.05 0.05 0.05 0.05 0.05 0.05 0.05 0.05 0.05
0.05 0.05 0.05 0.05 0.05 0.05 0.05 0.05 0.05 0.05
0.05 0.05 0.05 0.05 0.05 0.05 0.05 0.05 0.05 0.05
0.05 0.05 0.05 0.05 0.05 0.05 0.05 0.05 0.05 0.05
0.05 0.05 0.05 0.05 0.05 0.05 0.05 0.05 0.05 0.05
0.05 0.05 0.05 0.05 0.05 
p 1 96 float
21.2727 21.2775 21.2891 21.3067 21.3292 21.3563 21.3878 21.4235 21.4632 21.5066 21.5537
21.6042 21.658 21.7151 21.7752 21.8383 21.9043 21.9731 22.0447 22.1189 22.1958
22.2753 22.3573 22.4419 22.5289 22.6183 22.7102 22.8044 22.9011 23.0001 23.1016
23.2054 23.3116 23.4202 23.5312 23.6446 23.7604 23.8787 23.9995 24.1228 24.2487
24.3771 24.5082 24.642 24.7785 24.9178 25.06 25.2051 25.3532 25.5044 25.6588
25.8164 25.9775 26.142 26.3101 26.482 26.6577 26.8375 27.0215 27.2098 27.4028
27.6005 27.8033 28.0113 28.2249 28.4443 28.6699 28.9021 29.1411 29.3875 29.6417
29.9043 30.1723 30.4487 30.7413 31.0519 31.3831 31.7372 32.1175 32.5274 32.9716
33.4555 33.9861 34.5721 35.2247 35.9588 36.7943 37.7593 38.8928 40.257 41.9376
44.1264 47.0136 51.6835 58.2257 80.1091 
k 1 96 float
0.00102383 0.000932182 0.000856749 0.000793848 0.000740429 0.000694773 0.000655078 0.000620544 0.000589957 0.000562998 0.000538751
0.000517175 0.000497515 0.000479896 0.000463657 0.00044903 0.000435408 0.000423097 0.000411521 0.000401037 0.00039109
0.000382072 0.000373443 0.000365618 0.000358071 0.00035123 0.00034458 0.000338559 0.000332662 0.000327332 0.000322073
0.000317329 0.000312615 0.000308374 0.00030413 0.000300321 0.000296484 0.000293051 0.000289569 0.000286465 0.000283293
0.000280478 0.000277581 0.00027502 0.000272365 0.000270031 0.000267592 0.000265459 0.000263213 0.00026126 0.000259187
0.000257395 0.000255478 0.000253832 0.000252054 0.00025054 0.000248888 0.000247494 0.000245956 0.000244672 0.000243237
0.000242053 0.000240712 0.000239619 0.000238364 0.000237356 0.000236178 0.000235247 0.000234141 0.000233282 0.00023224
0.000231447 0.000230477 0.000229758 0.000228823 0.000228131 0.000227206 0.00022654 0.000225624 0.000224986 0.000224076
0.000223467 0.000222561 0.000221982 0.000221078 0.00022053 0.000219626 0.00021911 0.000218206 0.00021772 0.000216824
0.00021634 0.000215464 0.00021678 0.000225631 0.00024051 
omega 1 96 float
8259.74 7576.29 7010.48 6534.96 6129.55 5780.43 5476.27 5209.57 4973.3 4763.29 4574.72
4405.35 4251.55 4112.29 3984.62 3868.27 3760.71 3662.23 3570.47 3486.17 3407.05
3334.2 3265.35 3201.87 3141.47 3085.76 3032.4 2983.21 2935.76 2892.08 2849.65
2810.69 2772.56 2737.65 2703.22 2671.84 2640.61 2612.3 2583.87 2558.25 2532.29
2509.04 2485.26 2464.1 2442.26 2422.95 2402.84 2385.2 2366.63 2350.48 2333.29
2318.48 2302.54 2288.94 2274.12 2261.63 2247.83 2236.32 2223.45 2212.85 2200.83
2191.05 2179.8 2170.78 2160.23 2151.91 2141.99 2134.31 2125 2117.88 2109.13
2102.54 2094.41 2088.41 2080.58 2074.81 2067.04 2061.5 2053.79 2048.49 2040.82
2035.74 2028.14 2023.27 2015.73 2011.04 2003.59 1999.07 1991.74 1987.25 1980.23
1976.06 1966.76 1977.59 2076.66 4091.89 
Cx 1 96 float
-0.328655 -0.319422 -0.310433 -0.301681 -0.293159 -0.284862 -0.276784 -0.268919 -0.261261 -0.253805 -0.246546
-0.239478 -0.232596 -0.225896 -0.219373 -0.213021 -0.206837 -0.200816 -0.194954 -0.189246 -0.183689
-0.178279 -0.173011 -0.167882 -0.162888 -0.158026 -0.153292 -0.148682 -0.144195 -0.139825 -0.135571
-0.131429 -0.127397 -0.12347 -0.119647 -0.115925 -0.112301 -0.108773 -0.105338 -0.101993 -0.0987361
-0.0955654 -0.0924782 -0.0894725 -0.086546 -0.0836967 -0.0809225 -0.0782214 -0.0755915 -0.073031 -0.070538
-0.0681108 -0.0657475 -0.0634465 -0.0612063 -0.059025 -0.0569013 -0.0548336 -0.0528204 -0.0508603 -0.0489518
-0.0470937 -0.0452846 -0.0435232 -0.0418082 -0.0401384 -0.0385127 -0.0369298 -0.0353886 -0.0338881 -0.0324272
-0.0310047 -0.0296379 -0.0283107 -0.0269895 -0.0256744 -0.0243653 -0.0230622 -0.021765 -0.0204738 -0.0191885
-0.017909 -0.0166354 -0.0153676 -0.0141056 -0.0128494 -0.0115989 -0.0103541 -0.00911506 -0.00788164 -0.00665386
-0.00543169 -0.00421511 -0.00300408 -0.00179859 -0.000598615 
yPlus 1 96 float
0 0 0 0 0 0 0 0 0 0 0
0 0 0 0 0 0 0 0 0 0
0 0 0 0 0 0 0 0 0 0
0 0 0 0 0 0 0 0 0 0
0 0 0 0 0 0 0 0 0 0
0 0 0 0 0 0 0 0 0 0
0 0 0 0 0 0 0 0 0 0
0 0 0 0 0 0 0 0 0 0
0 0 0 0 0 0 0 0 0 0
0 0 0 0 0 
wallShearStress 3 96 float
0 0 0 0 0 0 0 0 0 0 0
0 0 0 0 0 0 0 0 0 0
0 0 0 0 0 0 0 0 0 0
0 0 0 0 0 0 0 0 0 0
0 0 0 0 0 0 0 0 0 0
0 0 0 0 0 0 0 0 0 0
0 0 0 0 0 0 0 0 0 0
0 0 0 0 0 0 0 0 0 0
0 0 0 0 0 0 0 0 0 0
0 0 0 0 0 0 0 0 0 0
0 0 0 0 0 0 0 0 0 0
0 0 0 0 0 0 0 0 0 0
0 0 0 0 0 0 0 0 0 0
0 0 0 0 0 0 0 0 0 0
0 0 0 0 0 0 0 0 0 0
0 0 0 0 0 0 0 0 0 0
0 0 0 0 0 0 0 0 0 0
0 0 0 0 0 0 0 0 0 0
0 0 0 0 0 0 0 0 0 0
0 0 0 0 0 0 0 0 0 0
0 0 0 0 0 0 0 0 0 0
0 0 0 0 0 0 0 0 0 0
0 0 0 0 0 0 0 0 0 0
0 0 0 0 0 0 0 0 0 0
0 0 0 0 0 0 0 0 0 0
0 0 0 0 0 0 0 0 0 0
0 0 0 0 0 0 0 0 0 0
0 0 0 0 0 0 0 0 0 0
0 0 0 0 0 0 0 
U 3 96 float
69.4 0 0 69.3999 0 0 69.3997 0 0 69.3995 0
0 69.3992 0 0 69.3988 0 0 69.3983 0 0
69.3978 0 0 69.3972 0 0 69.3966 0 0 69.3959
0 0 69.3952 0 0 69.3944 0 0 69.3936 0
0 69.3927 0 0 69.3918 0 0 69.3909 0 0
69.3899 0 0 69.3889 0 0 69.3878 0 0 69.3867
0 0 69.3855 0 0 69.3844 0 0 69.3831 0
0 69.3819 0 0 69.3806 0 0 69.3793 0 0
69.3779 0 0 69.3765 0 0 69.3751 0 0 69.3736
0 0 69.3721 0 0 69.3706 0 0 69.369 0
0 69.3674 0 0 69.3658 0 0 69.3641 0 0
69.3624 0 0 69.3607 0 0 69.3589 0 0 69.3571
0 0 69.3552 0 0 69.3533 0 0 69.3514 0
0 69.3494 0 0 69.3474 0 0 69.3454 0 0
69.3433 0 0 69.3412 0 0 69.339 0 0 69.3367
0 0 69.3345 0 0 69.3321 0 0 69.3298 0
0 69.3273 0 0 69.3249 0 0 69.3223 0 0
69.3197 0 0 69.3171 0 0 69.3144 0 0 69.3116
0 0 69.3087 0 0 69.3058 0 0 69.3028 0
0 69.2997 0 0 69.2965 0 0 69.2933 0 0
69.2899 0 0 69.2865 0 0 69.2829 0 0 69.2793
0 0 69.2755 0 0 69.2716 0 0 69.2676 0
0 69.2634 0 0 69.2589 0 0 69.2541 0 0
69.249 0 0 69.2435 0 0 69.2375 0 0 69.2311
0 0 69.2241 0 0 69.2164 0 0 69.2079 0
0 69.1984 0 0 69.1877 0 0 69.1755 0 0
69.1615 0 0 69.1448 0 0 69.1254 0 0 69.0981
0 0 69.0761 0 0 68.9876 0 0 69.1113 0
0 68.1482 0 0 71.5343 0 0 
C 3 96 float
-0.328655 0 0.05 -0.319422 0 0.05 -0.310433 0 0.05 -0.301681 0
0.05 -0.293159 0 0.05 -0.284862 0 0.05 -0.276784 0 0.05
-0.268919 0 0.05 -0.261261 0 0.05 -0.253805 0 0.05 -0.246546
0 0.05 -0.239478 0 0.05 -0.232596 0 0.05 -0.225896 0
0.05 -0.219373 0 0.05 -0.213021 0 0.05 -0.206837 0 0.05
-0.200816 0 0.05 -0.194954 0 0.05 -0.189246 0 0.05 -0.183689
0 0.05 -0.178279 0 0.05 -0.173011 0 0.05 -0.167882 0
0.05 -0.162888 0 0.05 -0.158026 0 0.05 -0.153292 0 0.05
-0.148682 0 0.05 -0.144195 0 0.05 -0.139825 0 0.05 -0.135571
0 0.05 -0.131429 0 0.05 -0.127397 0 0.05 -0.12347 0
0.05 -0.119647 0 0.05 -0.115925 0 0.05 -0.112301 0 0.05
-0.108773 0 0.05 -0.105338 0 0.05 -0.101993 0 0.05 -0.0987361
0 0.05 -0.0955654 0 0.05 -0.0924782 0 0.05 -0.0894725 0
0.05 -0.086546 0 0.05 -0.0836967 0 0.05 -0.0809225 0 0.05
-0.0782214 0 0.05 -0.0755915 0 0.05 -0.073031 0 0.05 -0.070538
0 0.05 -0.0681108 0 0.05 -0.0657475 0 0.05 -0.0634465 0
0.05 -0.0612063 0 0.05 -0.059025 0 0.05 -0.0569013 0 0.05
-0.0548336 0 0.05 -0.0528204 0 0.05 -0.0508603 0 0.05 -0.0489518
0 0.05 -0.0470937 0 0.05 -0.0452846 0 0.05 -0.0435232 0
0.05 -0.0418082 0 0.05 -0.0401384 0 0.05 -0.0385127 0 0.05
-0.0369298 0 0.05 -0.0353886 0 0.05 -0.0338881 0 0.05 -0.0324272
0 0.05 -0.0310047 0 0.05 -0.0296379 0 0.05 -0.0283107 0
0.05 -0.0269895 0 0.05 -0.0256744 0 0.05 -0.0243653 0 0.05
-0.0230622 0 0.05 -0.021765 0 0.05 -0.0204738 0 0.05 -0.0191885
0 0.05 -0.017909 0 0.05 -0.0166354 0 0.05 -0.0153676 0
0.05 -0.0141056 0 0.05 -0.0128494 0 0.05 -0.0115989 0 0.05
-0.0103541 0 0.05 -0.00911506 0 0.05 -0.00788164 0 0.05 -0.00665386
0 0.05 -0.00543169 0 0.05 -0.00421511 0 0.05 -0.00300408 0
0.05 -0.00179859 0 0.05 -0.000598615 0 0.05 
POINT_DATA  194
FIELD attributes 11
Cy 1 194 float
2.4654e-05 2.4654e-05 2.4654e-05 2.4654e-05 2.4654e-05 2.4654e-05 2.4654e-05 2.4654e-05 2.4654e-05 2.4654e-05 2.4654e-05
2.4654e-05 2.4654e-05 2.4654e-05 2.4654e-05 2.4654e-05 2.4654e-05 2.4654e-05 2.4654e-05 2.4654e-05 2.4654e-05
2.4654e-05 2.4654e-05 2.4654e-05 2.4654e-05 2.4654e-05 2.4654e-05 2.4654e-05 2.4654e-05 2.4654e-05 2.4654e-05
2.4654e-05 2.4654e-05 2.4654e-05 2.4654e-05 2.4654e-05 2.4654e-05 2.4654e-05 2.4654e-05 2.4654e-05 2.4654e-05
2.4654e-05 2.4654e-05 2.4654e-05 2.4654e-05 2.4654e-05 2.4654e-05 2.4654e-05 2.4654e-05 2.4654e-05 2.4654e-05
2.4654e-05 2.4654e-05 2.4654e-05 2.4654e-05 2.4654e-05 2.4654e-05 2.4654e-05 2.4654e-05 2.4654e-05 2.4654e-05
2.4654e-05 2.4654e-05 2.4654e-05 2.4654e-05 2.4654e-05 2.4654e-05 2.4654e-05 2.4654e-05 2.4654e-05 2.4654e-05
2.4654e-05 2.4654e-05 2.4654e-05 2.4654e-05 2.4654e-05 2.4654e-05 2.4654e-05 2.4654e-05 2.4654e-05 2.4654e-05
2.4654e-05 2.4654e-05 2.4654e-05 2.4654e-05 2.4654e-05 2.4654e-05 2.4654e-05 2.4654e-05 2.4654e-05 2.4654e-05
2.4654e-05 2.4654e-05 2.4654e-05 2.4654e-05 2.4654e-05 2.4654e-05 2.4654e-05 2.4654e-05 2.4654e-05 2.4654e-05
2.4654e-05 2.4654e-05 2.4654e-05 2.4654e-05 2.4654e-05 2.4654e-05 2.4654e-05 2.4654e-05 2.4654e-05 2.4654e-05
2.4654e-05 2.4654e-05 2.4654e-05 2.4654e-05 2.4654e-05 2.4654e-05 2.4654e-05 2.4654e-05 2.4654e-05 2.4654e-05
2.4654e-05 2.4654e-05 2.4654e-05 2.4654e-05 2.4654e-05 2.4654e-05 2.4654e-05 2.4654e-05 2.4654e-05 2.4654e-05
2.4654e-05 2.4654e-05 2.4654e-05 2.4654e-05 2.4654e-05 2.4654e-05 2.4654e-05 2.4654e-05 2.4654e-05 2.4654e-05
2.4654e-05 2.4654e-05 2.4654e-05 2.4654e-05 2.4654e-05 2.4654e-05 2.4654e-05 2.4654e-05 2.4654e-05 2.4654e-05
2.4654e-05 2.4654e-05 2.4654e-05 2.4654e-05 2.4654e-05 2.4654e-05 2.4654e-05 2.4654e-05 2.4654e-05 2.4654e-05
2.4654e-05 2.4654e-05 2.4654e-05 2.4654e-05 2.4654e-05 2.4654e-05 2.4654e-05 2.4654e-05 2.4654e-05 2.4654e-05
2.4654e-05 2.4654e-05 2.4654e-05 2.4654e-05 2.4654e-05 2.4654e-05 2.4654e-05 2.4654e-05 2.4654e-05 2.4654e-05
2.4654e-05 2.4654e-05 2.4654e-05 2.4654e-05 2.4654e-05 2.4654e-05 2.4654e-05 2.4654e-05 2.4654e-05 2.4654e-05
2.4654e-05 2.4654e-05 2.4654e-05 
nut 1 194 float
1.23954e-07 1.23497e-07 1.23497e-07 1.23954e-07 1.22625e-07 1.22625e-07 1.21843e-07 1.21843e-07 1.21137e-07 1.21137e-07 1.20495e-07
1.20495e-07 1.19908e-07 1.19908e-07 1.19369e-07 1.19369e-07 1.18871e-07 1.18871e-07 1.1841e-07 1.1841e-07 1.17981e-07
1.17981e-07 1.17582e-07 1.17582e-07 1.17208e-07 1.17208e-07 1.16859e-07 1.16859e-07 1.1653e-07 1.1653e-07 1.16221e-07
1.16221e-07 1.15929e-07 1.15929e-07 1.15654e-07 1.15654e-07 1.15393e-07 1.15393e-07 1.15147e-07 1.15147e-07 1.14912e-07
1.14912e-07 1.1469e-07 1.1469e-07 1.14479e-07 1.14479e-07 1.14277e-07 1.14277e-07 1.14085e-07 1.14085e-07 1.13902e-07
1.13902e-07 1.13728e-07 1.13728e-07 1.13561e-07 1.13561e-07 1.13401e-07 1.13401e-07 1.13248e-07 1.13248e-07 1.13102e-07
1.13102e-07 1.12961e-07 1.12961e-07 1.12827e-07 1.12827e-07 1.12698e-07 1.12698e-07 1.12574e-07 1.12574e-07 1.12455e-07
1.12455e-07 1.12341e-07 1.12341e-07 1.1223e-07 1.1223e-07 1.12125e-07 1.12125e-07 1.12022e-07 1.12022e-07 1.11925e-07
1.11925e-07 1.1183e-07 1.1183e-07 1.11739e-07 1.11739e-07 1.11651e-07 1.11651e-07 1.11567e-07 1.11567e-07 1.11485e-07
1.11485e-07 1.11406e-07 1.11406e-07 1.1133e-07 1.1133e-07 1.11257e-07 1.11257e-07 1.11185e-07 1.11185e-07 1.11117e-07
1.11117e-07 1.11051e-07 1.11051e-07 1.10987e-07 1.10987e-07 1.10925e-07 1.10925e-07 1.10865e-07 1.10865e-07 1.10807e-07
1.10807e-07 1.10751e-07 1.10751e-07 1.10697e-07 1.10697e-07 1.10645e-07 1.10645e-07 1.10594e-07 1.10594e-07 1.10545e-07
1.10545e-07 1.10497e-07 1.10497e-07 1.10451e-07 1.10451e-07 1.10406e-07 1.10406e-07 1.10363e-07 1.10363e-07 1.10321e-07
1.10321e-07 1.1028e-07 1.1028e-07 1.10241e-07 1.10241e-07 1.10203e-07 1.10203e-07 1.10166e-07 1.10166e-07 1.1013e-07
1.1013e-07 1.10096e-07 1.10096e-07 1.10062e-07 1.10062e-07 1.1003e-07 1.1003e-07 1.09998e-07 1.09998e-07 1.09967e-07
1.09967e-07 1.09936e-07 1.09936e-07 1.09905e-07 1.09905e-07 1.09874e-07 1.09874e-07 1.09844e-07 1.09844e-07 1.09814e-07
1.09814e-07 1.09784e-07 1.09784e-07 1.09754e-07 1.09754e-07 1.09725e-07 1.09725e-07 1.09695e-07 1.09695e-07 1.09668e-07
1.09668e-07 1.09638e-07 1.09638e-07 1.09611e-07 1.09611e-07 1.09581e-07 1.09581e-07 1.09557e-07 1.09557e-07 1.09526e-07
1.09526e-07 1.09487e-07 1.09487e-07 1.09516e-07 1.09516e-07 1.09586e-07 1.09586e-07 6.67181e-08 6.67181e-08 1.30641e-08
1.30641e-08 2.31053e-09 2.31053e-09 
Cz 1 194 float
0.05 0.05 0.05 0.05 0.05 0.05 0.05 0.05 0.05 0.05 0.05
0.05 0.05 0.05 0.05 0.05 0.05 0.05 0.05 0.05 0.05
0.05 0.05 0.05 0.05 0.05 0.05 0.05 0.05 0.05 0.05
0.05 0.05 0.05 0.05 0.05 0.05 0.05 0.05 0.05 0.05
0.05 0.05 0.05 0.05 0.05 0.05 0.05 0.05 0.05 0.05
0.05 0.05 0.05 0.05 0.05 0.05 0.05 0.05 0.05 0.05
0.05 0.05 0.05 0.05 0.05 0.05 0.05 0.05 0.05 0.05
0.05 0.05 0.05 0.05 0.05 0.05 0.05 0.05 0.05 0.05
0.05 0.05 0.05 0.05 0.05 0.05 0.05 0.05 0.05 0.05
0.05 0.05 0.05 0.05 0.05 0.05 0.05 0.05 0.05 0.05
0.05 0.05 0.05 0.05 0.05 0.05 0.05 0.05 0.05 0.05
0.05 0.05 0.05 0.05 0.05 0.05 0.05 0.05 0.05 0.05
0.05 0.05 0.05 0.05 0.05 0.05 0.05 0.05 0.05 0.05
0.05 0.05 0.05 0.05 0.05 0.05 0.05 0.05 0.05 0.05
0.05 0.05 0.05 0.05 0.05 0.05 0.05 0.05 0.05 0.05
0.05 0.05 0.05 0.05 0.05 0.05 0.05 0.05 0.05 0.05
0.05 0.05 0.05 0.05 0.05 0.05 0.05 0.05 0.05 0.05
0.05 0.05 0.05 0.05 0.05 0.05 0.05 0.05 0.05 0.05
0.05 0.05 0.05 0.05 0.05 0.05 0.05 0.05 0.05 0.05
0.05 0.05 0.05 
p 1 194 float
21.2727 21.2751 21.2751 21.2727 21.2833 21.2833 21.2979 21.2979 21.318 21.318 21.3428
21.3428 21.3721 21.3721 21.4056 21.4056 21.4433 21.4433 21.4849 21.4849 21.5302
21.5302 21.5789 21.5789 21.6311 21.6311 21.6865 21.6865 21.7451 21.7451 21.8067
21.8067 21.8713 21.8713 21.9387 21.9387 22.0089 22.0089 22.0818 22.0818 22.1574
22.1574 22.2356 22.2356 22.3163 22.3163 22.3996 22.3996 22.4854 22.4854 22.5736
22.5736 22.6642 22.6642 22.7573 22.7573 22.8528 22.8528 22.9506 22.9506 23.0509
23.0509 23.1535 23.1535 23.2585 23.2585 23.3659 23.3659 23.4757 23.4757 23.5879
23.5879 23.7025 23.7025 23.8196 23.8196 23.9391 23.9391 24.0612 24.0612 24.1858
24.1858 24.3129 24.3129 24.4427 24.4427 24.5751 24.5751 24.7103 24.7103 24.8482
24.8482 24.9889 24.9889 25.1326 25.1326 25.2792 25.2792 25.4288 25.4288 25.5816
25.5816 25.7376 25.7376 25.8969 25.8969 26.0597 26.0597 26.226 26.226 26.396
26.396 26.5698 26.5698 26.7476 26.7476 26.9295 26.9295 27.1157 27.1157 27.3063
27.3063 27.5017 27.5017 27.7019 27.7019 27.9073 27.9073 28.1181 28.1181 28.3346
28.3346 28.5571 28.5571 28.786 28.786 29.0216 29.0216 29.2643 29.2643 29.5146
29.5146 29.773 29.773 30.0383 30.0383 30.3105 30.3105 30.595 30.595 30.8966
30.8966 31.2175 31.2175 31.5601 31.5601 31.9273 31.9273 32.3224 32.3224 32.7495
32.7495 33.2136 33.2136 33.7208 33.7208 34.2791 34.2791 34.8984 34.8984 35.5917
35.5917 36.3765 36.3765 37.2768 37.2768 38.326 38.326 39.5749 39.5749 41.0973
41.0973 43.032 43.032 45.57 45.57 49.3486 49.3486 54.9546 54.9546 69.1674
69.1674 80.1091 80.1091 
k 1 194 float
0.00102383 0.000978001 0.000978001 0.00102383 0.000894461 0.000894461 0.000825295 0.000825295 0.000767136 0.000767136 0.000717599
0.000717599 0.000674924 0.000674924 0.00063781 0.00063781 0.000605249 0.000605249 0.000576476 0.000576476 0.000550874
0.000550874 0.000527962 0.000527962 0.000507344 0.000507344 0.000488705 0.000488705 0.000471776 0.000471776 0.000456343
0.000456343 0.000442219 0.000442219 0.000429252 0.000429252 0.000417309 0.000417309 0.000406279 0.000406279 0.000396063
0.000396063 0.000386581 0.000386581 0.000377757 0.000377757 0.000369531 0.000369531 0.000361844 0.000361844 0.00035465
0.00035465 0.000347905 0.000347905 0.000341569 0.000341569 0.00033561 0.00033561 0.000329997 0.000329997 0.000324702
0.000324702 0.000319701 0.000319701 0.000314972 0.000314972 0.000310495 0.000310495 0.000306252 0.000306252 0.000302225
0.000302225 0.000298403 0.000298403 0.000294768 0.000294768 0.00029131 0.00029131 0.000288017 0.000288017 0.000284879
0.000284879 0.000281886 0.000281886 0.000279029 0.000279029 0.0002763 0.0002763 0.000273693 0.000273693 0.000271198
0.000271198 0.000268812 0.000268812 0.000266526 0.000266526 0.000264336 0.000264336 0.000262237 0.000262237 0.000260224
0.000260224 0.000258291 0.000258291 0.000256436 0.000256436 0.000254655 0.000254655 0.000252943 0.000252943 0.000251297
0.000251297 0.000249714 0.000249714 0.000248191 0.000248191 0.000246725 0.000246725 0.000245314 0.000245314 0.000243955
0.000243955 0.000242645 0.000242645 0.000241383 0.000241383 0.000240166 0.000240166 0.000238992 0.000238992 0.00023786
0.00023786 0.000236767 0.000236767 0.000235713 0.000235713 0.000234694 0.000234694 0.000233711 0.000233711 0.000232761
0.000232761 0.000231844 0.000231844 0.000230962 0.000230962 0.000230118 0.000230118 0.000229291 0.000229291 0.000228477
0.000228477 0.000227668 0.000227668 0.000226873 0.000226873 0.000226082 0.000226082 0.000225305 0.000225305 0.000224531
0.000224531 0.000223771 0.000223771 0.000223014 0.000223014 0.000222271 0.000222271 0.00022153 0.00022153 0.000220804
0.000220804 0.000220078 0.000220078 0.000219368 0.000219368 0.000218658 0.000218658 0.000217963 0.000217963 0.000217272
0.000217272 0.000216582 0.000216582 0.000215902 0.000215902 0.000216122 0.000216122 0.000221206 0.000221206 0.000233071
0.000233071 0.00024051 0.00024051 
omega 1 194 float
8259.74 7917.97 7917.97 8259.74 7293.35 7293.35 6772.69 6772.69 6332.24 6332.24 5954.98
5954.98 5628.33 5628.33 5342.91 5342.91 5091.42 5091.42 4868.29 4868.29 4669
4669 4490.03 4490.03 4328.45 4328.45 4181.92 4181.92 4048.45 4048.45 3926.44
3926.44 3814.49 3814.49 3711.47 3711.47 3616.35 3616.35 3528.32 3528.32 3446.61
3446.61 3370.62 3370.62 3299.77 3299.77 3233.61 3233.61 3171.67 3171.67 3113.61
3113.61 3059.08 3059.08 3007.8 3007.8 2959.48 2959.48 2913.92 2913.92 2870.87
2870.87 2830.17 2830.17 2791.62 2791.62 2755.11 2755.11 2720.44 2720.44 2687.53
2687.53 2656.22 2656.22 2626.45 2626.45 2598.08 2598.08 2571.06 2571.06 2545.27
2545.27 2520.66 2520.66 2497.15 2497.15 2474.68 2474.68 2453.18 2453.18 2432.6
2432.6 2412.9 2412.9 2394.02 2394.02 2375.91 2375.91 2358.55 2358.55 2341.88
2341.88 2325.89 2325.89 2310.51 2310.51 2295.74 2295.74 2281.53 2281.53 2267.88
2267.88 2254.73 2254.73 2242.08 2242.08 2229.89 2229.89 2218.15 2218.15 2206.84
2206.84 2195.94 2195.94 2185.43 2185.43 2175.29 2175.29 2165.5 2165.5 2156.07
2156.07 2146.95 2146.95 2138.15 2138.15 2129.65 2129.65 2121.44 2121.44 2113.51
2113.51 2105.84 2105.84 2098.48 2098.48 2091.41 2091.41 2084.5 2084.5 2077.69
2077.69 2070.92 2070.92 2064.27 2064.27 2057.64 2057.64 2051.14 2051.14 2044.65
2044.65 2038.28 2038.28 2031.94 2031.94 2025.7 2025.7 2019.5 2019.5 2013.39
2013.39 2007.32 2007.32 2001.33 2001.33 1995.4 1995.4 1989.49 1989.49 1983.74
1983.74 1978.15 1978.15 1971.41 1971.41 1972.18 1972.18 2027.12 2027.12 3084.27
3084.27 4091.89 4091.89 
Cx 1 194 float
-0.328655 -0.324038 -0.324038 -0.328655 -0.314927 -0.314927 -0.306056 -0.306056 -0.297419 -0.297419 -0.28901
-0.28901 -0.280823 -0.280823 -0.272851 -0.272851 -0.26509 -0.26509 -0.257533 -0.257533 -0.250175
-0.250175 -0.243012 -0.243012 -0.236037 -0.236037 -0.229246 -0.229246 -0.222634 -0.222634 -0.216197
-0.216197 -0.209929 -0.209929 -0.203827 -0.203827 -0.197885 -0.197885 -0.1921 -0.1921 -0.186468
-0.186468 -0.180984 -0.180984 -0.175645 -0.175645 -0.170446 -0.170446 -0.165385 -0.165385 -0.160457
-0.160457 -0.155658 -0.155658 -0.150987 -0.150987 -0.146439 -0.146439 -0.14201 -0.14201 -0.137698
-0.137698 -0.1335 -0.1335 -0.129413 -0.129413 -0.125433 -0.125433 -0.121559 -0.121559 -0.117786
-0.117786 -0.114113 -0.114113 -0.110537 -0.110537 -0.107055 -0.107055 -0.103665 -0.103665 -0.100364
-0.100364 -0.0971507 -0.0971507 -0.0940218 -0.0940218 -0.0909753 -0.0909753 -0.0880092 -0.0880092 -0.0851213
-0.0851213 -0.0823095 -0.0823095 -0.0795719 -0.0795719 -0.0769065 -0.0769065 -0.0743113 -0.0743113 -0.0717845
-0.0717845 -0.0693244 -0.0693244 -0.0669291 -0.0669291 -0.064597 -0.064597 -0.0623264 -0.0623264 -0.0601156
-0.0601156 -0.0579632 -0.0579632 -0.0558675 -0.0558675 -0.053827 -0.053827 -0.0518403 -0.0518403 -0.0499061
-0.0499061 -0.0480228 -0.0480228 -0.0461891 -0.0461891 -0.0444039 -0.0444039 -0.0426657 -0.0426657 -0.0409733
-0.0409733 -0.0393255 -0.0393255 -0.0377212 -0.0377212 -0.0361592 -0.0361592 -0.0346384 -0.0346384 -0.0331576
-0.0331576 -0.031716 -0.031716 -0.0303213 -0.0303213 -0.0289743 -0.0289743 -0.0276501 -0.0276501 -0.026332
-0.026332 -0.0250199 -0.0250199 -0.0237138 -0.0237138 -0.0224136 -0.0224136 -0.0211194 -0.0211194 -0.0198311
-0.0198311 -0.0185487 -0.0185487 -0.0172722 -0.0172722 -0.0160015 -0.0160015 -0.0147366 -0.0147366 -0.0134775
-0.0134775 -0.0122242 -0.0122242 -0.0109765 -0.0109765 -0.0097346 -0.0097346 -0.00849835 -0.00849835 -0.00726775
-0.00726775 -0.00604277 -0.00604277 -0.0048234 -0.0048234 -0.00360959 -0.00360959 -0.00240134 -0.00240134 -0.0011986
-0.0011986 -0.000598615 -0.000598615 
yPlus 1 194 float
0 0 0 0 0 0 0 0 0 0 0
0 0 0 0 0 0 0 0 0 0
0 0 0 0 0 0 0 0 0 0
0 0 0 0 0 0 0 0 0 0
0 0 0 0 0 0 0 0 0 0
0 0 0 0 0 0 0 0 0 0
0 0 0 0 0 0 0 0 0 0
0 0 0 0 0 0 0 0 0 0
0 0 0 0 0 0 0 0 0 0
0 0 0 0 0 0 0 0 0 0
0 0 0 0 0 0 0 0 0 0
0 0 0 0 0 0 0 0 0 0
0 0 0 0 0 0 0 0 0 0
0 0 0 0 0 0 0 0 0 0
0 0 0 0 0 0 0 0 0 0
0 0 0 0 0 0 0 0 0 0
0 0 0 0 0 0 0 0 0 0
0 0 0 0 0 0 0 0 0 0
0 0 0 0 0 0 0 0 0 0
0 0 0 
wallShearStress 3 194 float
0 0 0 0 0 0 0 0 0 0 0
0 0 0 0 0 0 0 0 0 0
0 0 0 0 0 0 0 0 0 0
0 0 0 0 0 0 0 0 0 0
0 0 0 0 0 0 0 0 0 0
0 0 0 0 0 0 0 0 0 0
0 0 0 0 0 0 0 0 0 0
0 0 0 0 0 0 0 0 0 0
0 0 0 0 0 0 0 0 0 0
0 0 0 0 0 0 0 0 0 0
0 0 0 0 0 0 0 0 0 0
0 0 0 0 0 0 0 0 0 0
0 0 0 0 0 0 0 0 0 0
0 0 0 0 0 0 0 0 0 0
0 0 0 0 0 0 0 0 0 0
0 0 0 0 0 0 0 0 0 0
0 0 0 0 0 0 0 0 0 0
0 0 0 0 0 0 0 0 0 0
0 0 0 0 0 0 0 0 0 0
0 0 0 0 0 0 0 0 0 0
0 0 0 0 0 0 0 0 0 0
0 0 0 0 0 0 0 0 0 0
0 0 0 0 0 0 0 0 0 0
0 0 0 0 0 0 0 0 0 0
0 0 0 0 0 0 0 0 0 0
0 0 0 0 0 0 0 0 0 0
0 0 0 0 0 0 0 0 0 0
0 0 0 0 0 0 0 0 0 0
0 0 0 0 0 0 0 0 0 0
0 0 0 0 0 0 0 0 0 0
0 0 0 0 0 0 0 0 0 0
0 0 0 0 0 0 0 0 0 0
0 0 0 0 0 0 0 0 0 0
0 0 0 0 0 0 0 0 0 0
0 0 0 0 0 0 0 0 0 0
0 0 0 0 0 0 0 0 0 0
0 0 0 0 0 0 0 0 0 0
0 0 0 0 0 0 0 0 0 0
0 0 0 0 0 0 0 0 0 0
0 0 0 0 0 0 0 0 0 0
0 0 0 0 0 0 0 0 0 0
0 0 0 0 0 0 0 0 0 0
0 0 0 0 0 0 0 0 0 0
0 0 0 0 0 0 0 0 0 0
0 0 0 0 0 0 0 0 0 0
0 0 0 0 0 0 0 0 0 0
0 0 0 0 0 0 0 0 0 0
0 0 0 0 0 0 0 0 0 0
0 0 0 0 0 0 0 0 0 0
0 0 0 0 0 0 0 0 0 0
0 0 0 0 0 0 0 0 0 0
0 0 0 0 0 0 0 0 0 0
0 0 0 0 0 0 0 0 0 0
0 0 0 0 0 0 0 0 0 0
0 0 0 0 0 0 0 0 0 0
0 0 0 0 0 0 0 0 0 0
0 0 0 0 0 0 0 0 0 0
0 0 0 0 0 0 0 0 0 0
0 
U 3 194 float
69.4 0 0 69.3999 0 0 69.3999 0 0 69.4 0
0 69.3998 0 0 69.3998 0 0 69.3996 0 0
69.3996 0 0 69.3993 0 0 69.3993 0 0 69.399
0 0 69.399 0 0 69.3986 0 0 69.3986 0
0 69.3981 0 0 69.3981 0 0 69.3975 0 0
69.3975 0 0 69.3969 0 0 69.3969 0 0 69.3963
0 0 69.3963 0 0 69.3956 0 0 69.3956 0
0 69.3948 0 0 69.3948 0 0 69.394 0 0
69.394 0 0 69.3932 0 0 69.3932 0 0 69.3923
0 0 69.3923 0 0 69.3914 0 0 69.3914 0