/*--------------------------------*- C++ -*----------------------------------*\
| =========                 |                                                 |
| \\      /  F ield         | OpenFOAM: The Open Source CFD Toolbox           |
|  \\    /   O peration     | Version:  1.4.1-dev                             |
|   \\  /    A nd           | Web:      http://www.openfoam.org               |
|    \\/     M anipulation  |                                                 |
\*---------------------------------------------------------------------------*/

FoamFile
{
    version 2.0;
    format ascii;

    root "/home/mjaworsk/OpenFOAM/mjaworsk-1.4.1-dev/run/FlatPlate-Blasius";
    case "icoHeatFoam-flatPlate2";
    instance "0.5";
    local "";

    class volScalarField;
    object p;
}

// * * * * * * * * * * * * * * * * * * * * * * * * * * * * * * * * * * * * * //

dimensions      [0 2 -2 0 0 0 0];

internalField   nonuniform List<scalar> 
2475
(
0.00436254
0.00181954
0.000194743
-0.000215133
-0.000177244
-0.000103901
-6.61326e-05
-4.77643e-05
-3.61825e-05
-2.80318e-05
-2.25515e-05
-1.93696e-05
-1.79383e-05
-1.7859e-05
-1.85465e-05
-1.98094e-05
-2.12319e-05
-2.29608e-05
-2.46204e-05
-2.65783e-05
-2.83033e-05
-3.03979e-05
-3.20941e-05
-3.43254e-05
-3.58961e-05
-3.81113e-05
-3.93703e-05
-4.12503e-05
-4.13892e-05
-4.15043e-05
-3.95225e-05
-3.62852e-05
-3.34587e-05
-2.21024e-05
-1.73653e-05
0.00380692
0.00181684
0.000291545
-0.000154581
-0.000141672
-8.22216e-05
-5.26492e-05
-3.84112e-05
-2.89965e-05
-2.22649e-05
-1.78339e-05
-1.54518e-05
-1.46462e-05
-1.50671e-05
-1.61619e-05
-1.77578e-05
-1.94565e-05
-2.14138e-05
-2.32669e-05
-2.53861e-05
-2.72517e-05
-2.94634e-05
-3.12655e-05
-3.35834e-05
-3.52364e-05
-3.75159e-05
-3.8842e-05
-4.077e-05
-4.09676e-05
-4.11148e-05
-3.9187e-05
-3.5961e-05
-3.31914e-05
-2.18268e-05
-1.71459e-05
0.00330335
0.0018328
0.000438316
-7.17809e-05
-9.96556e-05
-5.45551e-05
-3.40425e-05
-2.60988e-05
-2.02449e-05
-1.55588e-05
-1.24954e-05
-1.11103e-05
-1.1057e-05
-1.20617e-05
-1.36201e-05
-1.55887e-05
-1.75912e-05
-1.97973e-05
-2.18581e-05
-2.41503e-05
-2.61639e-05
-2.85e-05
-3.04119e-05
-3.28216e-05
-3.45593e-05
-3.69069e-05
-3.83018e-05
-4.02817e-05
-4.0539e-05
-4.0721e-05
-3.88472e-05
-3.56348e-05
-3.29259e-05
-2.15567e-05
-1.6939e-05
0.00291633
0.00184777
0.00061104
3.86762e-05
-4.49803e-05
-1.82008e-05
-7.8558e-06
-8.59566e-06
-8.3472e-06
-6.82189e-06
-5.74079e-06
-5.75721e-06
-6.73555e-06
-8.51741e-06
-1.06756e-05
-1.31165e-05
-1.54953e-05
-1.80045e-05
-2.03124e-05
-2.28074e-05
-2.49907e-05
-2.74682e-05
-2.95025e-05
-3.20147e-05
-3.38448e-05
-3.62675e-05
-3.77361e-05
-3.97734e-05
-4.00942e-05
-4.03149e-05
-3.84973e-05
-3.53027e-05
-3.26576e-05
-2.12958e-05
-1.67383e-05
0.00260373
0.00182911
0.000771048
0.000164472
2.04659e-05
2.56195e-05
2.66275e-05
1.61431e-05
8.61527e-06
5.39503e-06
3.57947e-06
1.56807e-06
-8.78534e-07
-3.76731e-06
-6.77838e-06
-9.88967e-06
-1.2801e-05
-1.57362e-05
-1.83869e-05
-2.11589e-05
-2.35687e-05
-2.62319e-05
-2.84235e-05
-3.10666e-05
-3.30116e-05
-3.55271e-05
-3.70845e-05
-3.91915e-05
-3.95878e-05
-3.98563e-05
-3.81042e-05
-3.49352e-05
-3.23617e-05
-2.10265e-05
-1.65197e-05
0.00234123
0.00177135
0.000898217
0.000292599
9.18811e-05
7.16652e-05
6.5251e-05
4.67354e-05
3.07442e-05
2.15271e-05
1.59405e-05
1.13534e-05
6.99028e-06
2.6343e-06
-1.5206e-06
-5.54155e-06
-9.18577e-06
-1.27149e-05
-1.58472e-05
-1.90093e-05
-2.17361e-05
-2.46572e-05
-2.7064e-05
-2.98851e-05
-3.19834e-05
-3.46212e-05
-3.62916e-05
-3.84878e-05
-3.89797e-05
-3.93103e-05
-3.7641e-05
-3.45089e-05
-3.20184e-05
-2.0739e-05
-1.62619e-05
0.00212096
0.00168853
0.000988508
0.000415696
0.000168299
0.000117982
0.000104089
8.02502e-05
5.6654e-05
4.09132e-05
3.09835e-05
2.34634e-05
1.68979e-05
1.08076e-05
5.26473e-06
1.2021e-07
-4.44631e-06
-8.73644e-06
-1.24988e-05
-1.61798e-05
-1.93335e-05
-2.26041e-05
-2.53031e-05
-2.8366e-05
-3.06715e-05
-3.34728e-05
-3.52912e-05
-3.7603e-05
-3.82203e-05
-3.86331e-05
-3.7074e-05
-3.39948e-05
-3.16023e-05
-2.04215e-05
-1.59357e-05
0.00193658
0.00159633
0.0010444
0.000527527
0.000249152
0.000165486
0.000141528
0.00011437
8.49033e-05
6.27158e-05
4.80462e-05
3.73644e-05
2.84763e-05
2.05319e-05
1.34626e-05
7.05834e-06
1.43725e-06
-3.73726e-06
-8.25012e-06
-1.2561e-05
-1.62461e-05
-1.99577e-05
-2.30327e-05
-2.64074e-05
-2.89844e-05
-3.19969e-05
-3.40073e-05
-3.64658e-05
-3.72487e-05
-3.77678e-05
-3.6358e-05
-3.33528e-05
-3.10772e-05
-2.00544e-05
-1.54995e-05
0.00178085
0.0015048
0.00107104
0.000622242
0.00033163
0.000215501
0.000177581
0.000147601
0.000114296
8.6347e-05
6.66923e-05
5.25935e-05
4.12907e-05
3.14485e-05
2.27906e-05
1.50582e-05
8.31032e-06
2.18547e-06
-3.15001e-06
-8.16004e-06
-1.24528e-05
-1.66745e-05
-2.01993e-05
-2.39466e-05
-2.68588e-05
-3.01261e-05
-3.23767e-05
-3.50105e-05
-3.60077e-05
-3.66553e-05
-3.54446e-05
-3.25368e-05
-3.04005e-05
-1.96122e-05
-1.49072e-05
0.00164725
0.00141878
0.0010753
0.000696264
0.0004112
0.000268467
0.000213259
0.000179254
0.000143776
0.000111308
8.67314e-05
6.89382e-05
5.50692e-05
4.32839e-05
3.29997e-05
2.38948e-05
1.59717e-05
8.85944e-06
2.66136e-06
-3.0808e-06
-8.02535e-06
-1.27954e-05
-1.68234e-05
-2.09836e-05
-2.42848e-05
-2.7836e-05
-3.03722e-05
-3.31997e-05
-3.44636e-05
-3.52531e-05
-3.42967e-05
-3.15076e-05
-2.95339e-05
-1.90699e-05
-1.41237e-05
0.00153086
0.00133985
0.00106432
0.00074929
0.000483276
0.000323459
0.00024985
0.000209471
0.000172514
0.000137016
0.000108026
8.63638e-05
6.9716e-05
5.58999e-05
4.395e-05
3.34319e-05
2.4286e-05
1.61481e-05
9.05203e-06
2.55516e-06
-3.07035e-06
-8.40804e-06
-1.29754e-05
-1.75699e-05
-2.13015e-05
-2.5149e-05
-2.80095e-05
-3.10357e-05
-3.26174e-05
-3.35501e-05
-3.29013e-05
-3.02464e-05
-2.84545e-05
-1.84111e-05
-1.31447e-05
0.00142827
0.00126787
0.00104394
0.000783661
0.000544511
0.000378222
0.000288087
0.000239008
0.000200084
0.000162808
0.000130321
0.000104874
8.52423e-05
6.92556e-05
5.55838e-05
4.36125e-05
3.31969e-05
2.3987e-05
1.59504e-05
8.66899e-06
2.33298e-06
-3.59064e-06
-8.72721e-06
-1.37709e-05
-1.79655e-05
-2.21138e-05
-2.53303e-05
-2.85532e-05
-3.04974e-05
-3.15675e-05
-3.12708e-05
-2.87628e-05
-2.71616e-05
-1.76338e-05
-1.20074e-05
0.00133709
0.00120212
0.0010182
0.000802994
0.000593311
0.000429882
0.00032768
0.000268735
0.000226545
0.000188104
0.000153199
0.000124389
0.000101688
8.33659e-05
6.78873e-05
5.44188e-05
4.26935e-05
3.23628e-05
2.33386e-05
1.52325e-05
8.15155e-06
1.61568e-06
-4.12063e-06
-9.63294e-06
-1.43192e-05
-1.87763e-05
-2.2375e-05
-2.57969e-05
-2.81384e-05
-2.93449e-05
-2.9429e-05
-2.70894e-05
-2.56747e-05
-1.67515e-05
-1.07825e-05
0.00125558
0.00114184
0.000989635
0.000810979
0.000629817
0.000475887
0.000367339
0.00029912
0.000252321
0.000212574
0.000176159
0.000144684
0.000119048
9.82646e-05
8.08691e-05
6.58471e-05
5.27784e-05
4.12846e-05
3.12268e-05
2.22502e-05
1.43862e-05
7.20438e-06
8.34838e-07
-5.17384e-06
-1.03791e-05
-1.51622e-05
-1.91652e-05
-2.28017e-05
-2.55637e-05
-2.69209e-05
-2.73953e-05
-2.52659e-05
-2.4023e-05
-1.57857e-05
-9.54788e-06
0.00118237
0.00108649
0.000959795
0.000810724
0.000655321
0.000514586
0.000405239
0.000329964
0.000277884
0.000236202
0.000198764
0.000165405
0.000137212
0.000113962
9.45455e-05
7.78978e-05
6.34511e-05
5.07621e-05
3.96325e-05
2.97407e-05
2.10534e-05
1.31887e-05
6.15003e-06
-3.90043e-07
-6.14132e-06
-1.12765e-05
-1.57026e-05
-1.95842e-05
-2.27795e-05
-2.4321e-05
-2.51777e-05
-2.33226e-05
-2.22346e-05
-1.47562e-05
-8.36436e-06
0.0011164
0.00103565
0.000929689
0.000804628
0.000671603
0.000545387
0.000439641
0.000360441
0.000303437
0.00025919
0.000220758
0.000186157
0.000155948
0.000130404
0.000108919
9.05709e-05
7.47039e-05
6.07946e-05
4.85667e-05
3.77235e-05
2.81729e-05
1.95871e-05
1.18434e-05
4.73262e-06
-1.59212e-06
-7.11172e-06
-1.19767e-05
-1.61465e-05
-1.97806e-05
-2.15558e-05
-2.27758e-05
-2.12747e-05
-2.03317e-05
-1.36732e-05
-7.26649e-06
0.0010568
0.000989027
0.000900031
0.000794484
0.000680471
0.000568555
0.000469281
0.000389383
0.000328759
0.000281734
0.000242084
0.000206609
0.000174944
0.000147438
0.000123952
0.000103857
8.65231e-05
7.13695e-05
5.80265e-05
4.62101e-05
3.57621e-05
2.64151e-05
1.79315e-05
1.02101e-05
3.28572e-06
-2.65519e-06
-7.9722e-06
-1.24823e-05
-1.65565e-05
-1.86242e-05
-2.01869e-05
-1.91237e-05
-1.8331e-05
-1.25361e-05
-6.26706e-06
0.00100294
0.000946414
0.000871362
0.000781649
0.00068354
0.000584841
0.000493521
0.000415649
0.00035326
0.000303843
0.000262789
0.000226558
0.000193884
0.000164831
0.000139537
0.000117721
9.88874e-05
8.24654e-05
6.79954e-05
5.51974e-05
4.38336e-05
3.36846e-05
2.44256e-05
1.60544e-05
8.50895e-06
2.10596e-06
-3.67471e-06
-8.58235e-06
-1.3097e-05
-1.55183e-05
-1.74101e-05
-1.68626e-05
-1.62465e-05
-1.13382e-05
-5.36493e-06
0.000954283
0.000907654
0.000844091
0.00076716
0.000682169
0.000595207
0.000512291
0.000438379
0.000376169
0.00032527
0.000282895
0.000245912
0.000212512
0.000182309
0.000155492
0.000132077
0.000111759
9.40524e-05
7.84468e-05
6.46645e-05
5.2387e-05
4.14054e-05
3.13327e-05
2.22705e-05
1.40912e-05
7.18419e-06
9.2694e-07
-4.43779e-06
-9.39433e-06
-1.22274e-05
-1.44476e-05
-1.44804e-05
-1.40903e-05
-1.00721e-05
-4.55095e-06
0.000910408
0.0008726
0.000818508
0.000751799
0.000677465
0.000600623
0.0005259
0.000457094
0.000396746
0.000345562
0.000302286
0.000264622
0.000230657
0.000199618
0.000171589
0.00014678
0.000125066
0.00010609
8.9349e-05
7.45775e-05
6.13997e-05
4.95779e-05
3.866e-05
2.88579e-05
2.0039e-05
1.25922e-05
5.84091e-06
-4.04755e-08
-5.44437e-06
-8.73965e-06
-1.13048e-05
-1.19661e-05
-1.18714e-05
-8.73302e-06
-3.81135e-06
0.000870858
0.000841026
0.000794749
0.00073612
0.000670296
0.000601979
0.000534856
0.00047168
0.000414438
0.000364187
0.000320696
0.000282589
0.000248201
0.00021656
0.000187595
0.000161631
0.00013869
0.000118518
0.000100666
8.49025e-05
7.08299e-05
5.81784e-05
4.64112e-05
3.58168e-05
2.63478e-05
1.83384e-05
1.10734e-05
4.61711e-06
-1.24609e-06
-5.04399e-06
-7.98887e-06
-9.31155e-06
-9.59634e-06
-7.32082e-06
-3.12957e-06
0.000835026
0.000812527
0.000772752
0.000720444
0.000661298
0.000600021
0.000539719
0.000482268
0.000428935
0.000380658
0.000337752
0.000299616
0.000265018
0.000232976
0.000203307
0.000176409
0.000152452
0.000131236
0.000112347
9.56089e-05
8.06359e-05
6.71543e-05
5.45691e-05
4.3154e-05
3.30067e-05
2.44182e-05
1.66251e-05
9.54188e-06
3.19786e-06
-1.13217e-06
-4.50657e-06
-6.51162e-06
-7.26763e-06
-5.84031e-06
-2.48803e-06
0.000802137
0.000786491
0.000752236
0.000704879
0.000650895
0.000595328
0.00054101
0.000489108
0.000440126
0.000394612
0.000353055
0.00031541
0.000280917
0.000248714
0.000218558
0.000190913
0.000166136
0.000144083
0.000124305
0.000106654
9.07888e-05
7.64459e-05
6.30769e-05
5.08716e-05
4.0016e-05
3.08143e-05
2.24835e-05
1.47403e-05
7.88251e-06
2.99652e-06
-8.66202e-07
-3.56568e-06
-4.88407e-06
-4.29981e-06
-1.87015e-06
0.000771407
0.000762222
0.000732796
0.000689391
0.000639385
0.000588383
0.000539211
0.000492513
0.000448058
0.000405839
0.000366264
0.00032964
0.000295635
0.00026358
0.000233193
0.000204981
0.000179533
0.000156846
0.000136397
0.000117958
0.000101254
8.60163e-05
7.18466e-05
5.89289e-05
4.73896e-05
3.75166e-05
2.86172e-05
2.02135e-05
1.28076e-05
7.3363e-06
2.92312e-06
-4.78373e-07
-2.44367e-06
-2.71111e-06
-1.26281e-06
0.000742118
0.000738999
0.000713949
0.000673856
0.000626978
0.000579608
0.000534784
0.000492833
0.00045287
0.000414261
0.000377144
0.000342005
0.000308884
0.000277332
0.000247037
0.00021848
0.000192488
0.000169308
0.000148421
0.000129391
0.000111957
9.58492e-05
8.0811e-05
6.72169e-05
5.51043e-05
4.45372e-05
3.49871e-05
2.5939e-05
1.7974e-05
1.18781e-05
6.85245e-06
2.74504e-06
6.00811e-08
-1.08549e-06
-6.59792e-07
0.000713552
0.000716057
0.000695115
0.000658023
0.000613771
0.000569344
0.000528145
0.000490409
0.000454739
0.000419876
0.000385551
0.000352272
0.000320388
0.00028969
0.000259869
0.000231277
0.000204896
0.000181311
0.00016015
0.000140766
0.000122771
0.000105906
8.99749e-05
7.5623e-05
6.3044e-05
5.18801e-05
4.15841e-05
3.18669e-05
2.33604e-05
1.66065e-05
1.09062e-05
6.09009e-06
2.63149e-06
5.73281e-07
-5.67375e-08
0.000685102
0.000692693
0.000675696
0.000641561
0.000599756
0.000557844
0.000519668
0.000485569
0.000453849
0.000422699
0.000391382
0.00036026
0.000329909
0.000300378
0.000271408
0.000243183
0.000216665
0.000192766
0.000171399
0.000151849
0.00013352
0.000116084
9.93721e-05
8.41423e-05
7.10371e-05
5.94611e-05
4.84482e-05
3.7974e-05
2.89092e-05
2.14952e-05
1.50726e-05
9.53339e-06
5.2594e-06
2.2548e-06
5.43918e-07
0.000656431
0.000668407
0.000655194
0.000624129
0.000584851
0.000545289
0.000509697
0.000478658
0.000450414
0.000422774
0.000394545
0.000365822
0.000337254
0.000309149
0.000281353
0.00025393
0.000227651
0.000203599
0.000182056
0.000162415
0.000143969
0.000126213
0.000108957
9.28645e-05
7.89993e-05
6.70726e-05
5.55833e-05
4.43305e-05
3.45678e-05
2.64892e-05
1.93585e-05
1.30681e-05
7.93258e-06
3.9538e-06
1.13928e-06
0.000627383
0.000642941
0.000633258
0.000605398
0.000568892
0.000531759
0.00049851
0.000470024
0.000444687
0.000420181
0.000394957
0.000368788
0.000342226
0.000315762
0.000289399
0.000263153
0.000237569
0.000213652
0.000192001
0.000172273
0.000153838
0.000136046
0.000118541
0.000101789
8.69884e-05
7.45032e-05
6.28124e-05
5.10142e-05
4.03566e-05
3.15007e-05
2.37463e-05
1.67116e-05
1.06412e-05
5.66903e-06
1.77575e-06
0.000598267
0.000616364
0.000609727
0.000585131
0.000551732
0.000517308
0.000486388
0.000460098
0.000437117
0.000415239
0.000392756
0.000369134
0.000344727
0.000320065
0.000295321
0.000270524
0.000246031
0.000222623
0.00020102
0.000181246
0.000162876
0.000145269
0.000127819
0.000110682
9.50096e-05
8.16954e-05
6.98278e-05
5.78796e-05
4.63188e-05
3.64625e-05
2.81358e-05
2.04446e-05
1.33868e-05
7.38153e-06
2.4629e-06
0.000532162
0.00055191
0.000550688
0.000533769
0.000508491
0.0004813
0.000456287
0.000434962
0.00041679
0.000400136
0.000383292
0.000365232
0.000345831
0.000325517
0.000304739
0.000283625
0.000262166
0.000240613
0.000219625
0.000199971
0.00018191
0.00016499
0.000148149
0.000130649
0.0001134
9.81287e-05
8.55284e-05
7.35909e-05
6.04351e-05
4.80475e-05
3.81948e-05
2.91312e-05
1.98274e-05
1.13245e-05
3.88003e-06
0.000458327
0.000463271
0.000459862
0.000450056
0.000436508
0.000421587
0.00040692
0.000393277
0.00038065
0.000368474
0.000355985
0.000342599
0.000328154
0.00031287
0.00029706
0.000280828
0.000264018
0.000246525
0.000228627
0.000211038
0.000194435
0.000178861
0.000163572
0.000147515
0.000130836
0.000114975
0.00010123
8.87585e-05
7.53236e-05
6.13998e-05
4.92346e-05
3.82766e-05
2.69404e-05
1.56932e-05
5.19041e-06
0.000394431
0.000389231
0.000383611
0.00037774
0.000371554
0.00036488
0.000357575
0.000349597
0.000340983
0.000331776
0.000321985
0.000311597
0.000300639
0.000289188
0.000277328
0.000265049
0.000252232
0.000238734
0.000224596
0.000210124
0.000195801
0.000181871
0.000168141
0.000154017
0.000139262
0.000124465
0.000110499
9.74468e-05
8.42193e-05
7.03278e-05
5.69136e-05
4.43844e-05
3.1782e-05
1.89221e-05
6.31342e-06
0.000342109
0.000334882
0.000329474
0.000325504
0.000322202
0.00031877
0.000314632
0.00030951
0.000303403
0.000296476
0.000288944
0.000280972
0.000272648
0.000263979
0.000254935
0.00024546
0.000235492
0.000224958
0.000213847
0.000202219
0.000190264
0.000178154
0.000165958
0.00015353
0.000140682
0.000127466
0.000114202
0.000101171
8.82028e-05
7.4842e-05
6.12541e-05
4.78826e-05
3.45246e-05
2.08582e-05
7.03338e-06
0.0002993
0.000293615
0.000289388
0.00028626
0.000283623
0.000280883
0.000277625
0.000273654
0.000268969
0.000263678
0.000257924
0.000251809
0.000245373
0.000238602
0.000231458
0.000223906
0.00021593
0.000207502
0.000198594
0.000189172
0.000179262
0.000168942
0.000158329
0.000147457
0.000136243
0.000124575
0.000112499
0.000100223
8.78724e-05
7.5226e-05
6.21373e-05
4.88127e-05
3.53384e-05
2.15052e-05
7.26397e-06
0.000261911
0.000257896
0.000254745
0.000252186
0.000249833
0.000247339
0.000244481
0.000241161
0.000237385
0.000233199
0.000228664
0.000223817
0.000218675
0.000213226
0.000207457
0.000201344
0.000194867
0.000187989
0.000180679
0.000172899
0.000164658
0.000155991
0.000146957
0.000137565
0.000127773
0.000117516
0.000106809
9.57297e-05
8.4337e-05
7.25594e-05
6.0319e-05
4.76557e-05
3.46243e-05
2.11414e-05
7.15058e-06
0.000228121
0.000225088
0.00022267
0.00022062
0.000218643
0.000216495
0.000214041
0.000211234
0.000208094
0.000204661
0.000200975
0.000197053
0.000192899
0.000188492
0.000183807
0.000178809
0.000173472
0.00016777
0.000161693
0.000155229
0.000148377
0.000141126
0.000133471
0.0001254
0.000116909
0.000107986
9.86224e-05
8.88032e-05
7.85361e-05
6.78202e-05
5.66338e-05
4.49427e-05
3.27543e-05
2.00459e-05
6.78883e-06
0.000197387
0.000194909
0.000192968
0.000191329
0.000189727
0.000187958
0.000185915
0.000183577
0.000180973
0.000178144
0.000175124
0.00017192
0.000168525
0.00016491
0.000161051
0.000156916
0.00015249
0.000147755
0.000142703
0.000137317
0.000131584
0.000125478
0.000118991
0.000112109
0.000104827
9.71249e-05
8.89813e-05
8.03732e-05
7.12997e-05
6.17525e-05
5.17146e-05
4.11554e-05
3.00714e-05
1.84439e-05
6.25207e-06
0.000169587
0.000167519
0.000165924
0.000164594
0.000163299
0.000161859
0.000160186
0.000158261
0.000156113
0.000153777
0.000151283
0.000148636
0.00014583
0.000142841
0.000139649
0.000136227
0.000132558
0.000128623
0.000124411
0.000119902
0.000115087
0.000109944
0.000104463
9.86214e-05
9.24042e-05
8.57893e-05
7.87616e-05
7.13013e-05
6.33965e-05
5.50274e-05
4.61808e-05
3.68333e-05
2.69726e-05
1.65746e-05
5.62143e-06
0.000144776
0.000143075
0.000141765
0.000140675
0.000139612
0.000138429
0.000137052
0.000135463
0.000133688
0.000131756
0.000129691
0.0001275
0.000125177
0.000122702
0.000120056
0.000117216
0.000114165
0.000110887
0.000107369
0.000103597
9.95584e-05
9.52334e-05
9.06074e-05
8.56583e-05
8.03715e-05
7.47269e-05
6.87098e-05
6.22991e-05
5.54797e-05
4.82307e-05
4.0538e-05
3.2379e-05
2.37414e-05
1.46047e-05
4.95525e-06
0.000123161
0.000121775
0.000120699
0.000119795
0.00011891
0.000117924
0.00011678
0.000115463
0.000113993
0.000112393
0.000110682
0.000108864
0.000106934
0.000104876
0.000102672
0.000100304
9.77569e-05
9.50157e-05
9.20708e-05
8.89069e-05
8.55134e-05
8.18721e-05
7.7969e-05
7.37839e-05
6.93022e-05
6.45039e-05
5.93741e-05
5.38926e-05
4.80454e-05
4.18129e-05
3.5181e-05
2.81296e-05
2.06471e-05
1.27145e-05
4.31711e-06
0.000105002
0.000103868
0.000102976
0.000102218
0.000101471
0.000100641
9.96811e-05
9.85798e-05
9.73519e-05
9.60152e-05
9.4585e-05
9.30631e-05
9.14454e-05
8.97177e-05
8.78664e-05
8.58747e-05
8.37311e-05
8.14217e-05
7.89382e-05
7.62673e-05
7.33993e-05
7.03184e-05
6.70119e-05
6.34612e-05
5.96525e-05
5.55669e-05
5.11899e-05
4.65029e-05
4.14925e-05
3.61404e-05
3.04334e-05
2.43532e-05
1.78889e-05
1.10235e-05
3.7444e-06
9.06056e-05
8.96602e-05
8.89078e-05
8.82601e-05
8.76189e-05
8.69072e-05
8.60868e-05
8.51487e-05
8.41045e-05
8.29681e-05
8.17515e-05
8.04557e-05
7.9077e-05
7.7603e-05
7.60226e-05
7.43211e-05
7.24886e-05
7.05131e-05
6.83869e-05
6.60983e-05
6.36387e-05
6.09937e-05
5.81518e-05
5.50967e-05
5.18155e-05
4.82915e-05
4.45115e-05
4.04583e-05
3.61197e-05
3.14791e-05
2.65239e-05
2.12373e-05
1.56092e-05
9.62442e-06
3.27114e-06
8.03614e-05
7.95449e-05
7.88884e-05
7.83175e-05
7.77495e-05
7.71198e-05
7.63962e-05
7.5571e-05
7.46538e-05
7.3656e-05
7.25874e-05
7.14485e-05
7.02358e-05
6.89384e-05
6.75464e-05
6.6047e-05
6.44313e-05
6.26886e-05
6.08119e-05
5.87907e-05
5.6617e-05
5.4278e-05
5.17634e-05
4.90582e-05
4.6151e-05
4.30263e-05
3.96722e-05
3.60729e-05
3.22171e-05
2.80895e-05
2.3678e-05
1.89671e-05
1.39469e-05
8.60316e-06
2.92467e-06
7.48225e-05
7.40781e-05
7.34737e-05
7.29432e-05
7.24129e-05
7.18254e-05
7.11522e-05
7.03864e-05
6.95366e-05
6.86127e-05
6.76233e-05
6.65683e-05
6.54443e-05
6.42413e-05
6.29501e-05
6.15589e-05
6.00594e-05
5.84416e-05
5.66991e-05
5.48218e-05
5.28023e-05
5.06286e-05
4.82908e-05
4.5775e-05
4.30702e-05
4.0162e-05
3.70388e-05
3.3686e-05
3.00926e-05
2.62439e-05
2.21285e-05
1.77313e-05
1.30427e-05
8.04868e-06
2.73815e-06
0.000507516
0.000827766
0.000728818
0.000851284
0.000791151
0.000920315
0.000891449
0.00102891
0.00102063
0.00117078
0.00118941
0.00136509
0.00141616
0.00162805
0.0017217
0.00200377
0.00218205
0.00262355
0.00302024
0.00384354
0.000507878
0.000827225
0.000729411
0.000850803
0.000791751
0.000919571
0.000892082
0.00102759
0.00102133
0.00116872
0.00119023
0.00136139
0.00141652
0.00162114
0.00172191
0.00198936
0.00218068
0.00258177
0.00296932
0.0035245
0.000508502
0.000826108
0.000730689
0.000849712
0.000793032
0.000917924
0.00089351
0.0010248
0.00102306
0.00116429
0.00119257
0.00135327
0.00141902
0.00160583
0.00172461
0.00195891
0.00217487
0.00250112
0.0028568
0.00316195
0.000509296
0.000825075
0.000732268
0.000848512
0.000794556
0.000915985
0.000895234
0.00102147
0.00102513
0.00115873
0.00119512
0.00134292
0.00142153
0.00158688
0.00172433
0.00192373
0.00215218
0.00240663
0.0027018
0.00285905
0.000510486
0.000824253
0.000734121
0.000847257
0.000796281
0.000913751
0.000897195
0.00101752
0.0010274
0.00115191
0.00119762
0.00133059
0.00142265
0.00156592
0.00171744
0.00188661
0.00210889
0.00230598
0.00253025
0.00261397
0.00051231
0.0008235
0.000736282
0.00084577
0.000798219
0.000910974
0.000899394
0.00101264
0.00102982
0.00114359
0.00119968
0.00131669
0.00142083
0.00154469
0.00170153
0.0018478
0.00204684
0.00220133
0.00235832
0.00240217
0.000514881
0.00082261
0.000738737
0.000843846
0.000800339
0.000907443
0.000901785
0.00100669
0.00103222
0.00113399
0.00120045
0.00130249
0.00141441
0.00152408
0.00167565
0.00180576
0.00197136
0.00209302
0.00219384
0.00221059
0.000518178
0.000821368
0.000741478
0.000841326
0.000802639
0.000903049
0.000904322
0.000999738
0.00103423
0.00112381
0.00119886
0.00128891
0.00140238
0.00150336
0.0016409
0.00175813
0.00188845
0.00198183
0.00204029
0.00203644
0.000522091
0.000819593
0.000744554
0.00083811
0.00080517
0.000897784
0.000906903
0.000992044
0.00103526
0.0011138
0.00119405
0.00127603
0.00138483
0.00148044
0.00159963
0.00170353
0.00180231
0.00186991
0.00189877
0.00187987
0.000526496
0.000817146
0.000748072
0.000834157
0.000807978
0.000891728
0.000909291
0.000984025
0.00103459
0.00110432
0.00118565
0.0012629
0.00136281
0.00145331
0.00155376
0.0016422
0.00171511
0.00176
0.00176898
0.00174038
0.000531322
0.000813909
0.000752146
0.000829474
0.000811025
0.000885031
0.00091107
0.000976183
0.00103168
0.00109528
0.00117393
0.00124807
0.00133737
0.00142095
0.0015042
0.00157582
0.00162801
0.00165426
0.0016501
0.0016163
0.00053658
0.000809744
0.000756838
0.000824127
0.000814143
0.00087793
0.000911657
0.000968849
0.00102627
0.00108601
0.00115951
0.00123037
0.00130896
0.00138333
0.00145127
0.00150643
0.0015419
0.00155394
0.00154122
0.00150552
0.000542355
0.000804468
0.000762108
0.00081827
0.000817015
0.000870813
0.000910532
0.000962066
0.00101854
0.00107558
0.00114286
0.00120919
0.00127753
0.00134112
0.00139528
0.00143562
0.00145763
0.00145944
0.00144151
0.0014061
0.000548777
0.000797874
0.000767776
0.000812183
0.000819213
0.000864162
0.000907338
0.000955372
0.00100895
0.00106325
0.00112403
0.00118436
0.00124291
0.0012952
0.00133679
0.00136447
0.00137593
0.00137074
0.00135014
0.00131649
0.000555991
0.000789778
0.000773492
0.000806286
0.000820277
0.000858344
0.000902064
0.000948023
0.000997852
0.00104864
0.00110283
0.00115603
0.00120505
0.00124631
0.00127656
0.00129379
0.00129733
0.00128768
0.00126634
0.00123544
0.000564119
0.000780094
0.000778714
0.000801084
0.000819799
0.000853188
0.000895181
0.000939359
0.000985216
0.00103156
0.00107906
0.00112446
0.00116412
0.00119508
0.00121538
0.00122424
0.0012221
0.00120998
0.00118935
0.00116192
0.000573225
0.000768907
0.000782735
0.000797047
0.000817568
0.000848155
0.000887224
0.000929026
0.00097079
0.00101198
0.00105257
0.00108987
0.00112049
0.00114212
0.00115391
0.00115628
0.00115032
0.00113729
0.00111844
0.00109502
0.000583283
0.00075655
0.000784753
0.000794455
0.000814004
0.00084264
0.000878374
0.000916841
0.000954278
0.00098986
0.00102334
0.00105252
0.00107461
0.00108799
0.00109275
0.0010902
0.0010819
0.00106915
0.00105292
0.001034
0.000594164
0.00074359
0.000783758
0.000792833
0.000810061
0.000836499
0.000868607
0.000902831
0.000935452
0.000965121
0.00099144
0.00101276
0.00102698
0.00103318
0.00103226
0.00102611
0.00101662
0.00100509
0.000992186
0.00097822
0.00060566
0.000730955
0.000779133
0.000791126
0.000806152
0.000829779
0.000857913
0.000887131
0.000914247
0.000937742
0.000957055
0.000970975
0.000978102
0.000978164
0.000972676
0.000963984
0.000954214
0.000944642
0.000935673
0.000927144
0.000617385
0.000719346
0.000770883
0.00078806
0.000802206
0.000822584
0.000846364
0.000869956
0.000890868
0.00090791
0.00092049
0.000927631
0.000928462
0.000923304
0.000914148
0.000903728
0.000894389
0.000887391
0.000882879
0.000880255
0.000628734
0.000709295
0.000759891
0.000782518
0.000797351
0.000814831
0.000833987
0.000851593
0.000865778
0.000876118
0.000882243
0.00088328
0.000878602
0.000868989
0.000856862
0.000845322
0.000836932
0.000832952
0.000833298
0.000836953
0.000639071
0.000701221
0.000747605
0.000773878
0.000790215
0.000805794
0.000820666
0.000832266
0.000839575
0.000843107
0.000843019
0.00083855
0.000829104
0.000815732
0.0008012
0.000788957
0.000781812
0.000781073
0.000786462
0.000796563
0.000647915
0.000695084
0.000735151
0.000762152
0.00077994
0.000794359
0.000805798
0.000811981
0.000812728
0.000809615
0.000803569
0.000794116
0.000780624
0.000764204
0.00074779
0.000735126
0.000729302
0.00073175
0.000742072
0.000758501
0.000654958
0.0006903
0.000723164
0.000748273
0.000766095
0.000779636
0.000788507
0.000790448
0.000785453
0.000776159
0.000764548
0.000750631
0.000733866
0.000715146
0.000697376
0.000684494
0.000679881
0.000685181
0.000699998
0.00072231
0.000659996
0.000686122
0.0007119
0.000733244
0.000749122
0.000761084
0.000768066
0.000767066
0.000757793
0.000743309
0.000726698
0.000708867
0.000689503
0.000669172
0.000650555
0.000637614
0.000633976
0.00064157
0.000660137
0.000687552
0.000662886
0.000681859
0.000701106
0.00071758
0.000729874
0.000739119
0.000744056
0.000741246
0.000729394
0.000711335
0.000690846
0.000669738
0.000648186
0.000626715
0.000607655
0.000594786
0.000591845
0.000601047
0.000622408
0.000653885
0.000663505
0.000676945
0.000690216
0.000701386
0.000709166
0.000714677
0.00071699
0.000712697
0.000699706
0.000679975
0.000657214
0.000633838
0.000610582
0.000588182
0.000568821
0.00055605
0.000553563
0.000563756
0.000586916
0.000621224
0.000661746
0.00067089
0.000678762
0.000684627
0.000687605
0.000688697
0.000687723
0.000681747
0.000668403
0.000648546
0.000625282
0.000601131
0.000577187
0.000554334
0.000534695
0.00052173
0.000519171
0.000529591
0.000553534
0.000589443
0.000657628
0.000663411
0.000666402
0.000667156
0.000665381
0.000662033
0.000657361
0.000649327
0.000635582
0.000616335
0.000593902
0.000570632
0.000547636
0.000525698
0.000506575
0.000493378
0.00048986
0.000499131
0.000522496
0.000558877
0.000641351
0.000640882
0.000634226
0.000624209
0.000611957
0.000598751
0.000585665
0.000572372
0.00055746
0.000540105
0.000520898
0.000501097
0.000481833
0.000463986
0.000448793
0.000438362
0.000435554
0.000443216
0.000463189
0.000495528
0.000584928
0.000580195
0.000569171
0.000554501
0.000537668
0.000519766
0.000502459
0.000486888
0.000473174
0.000460996
0.000450374
0.000441661
0.000435044
0.000430306
0.000427095
0.00042534
0.000425507
0.000428499
0.000435248
0.00044623
0.00051815
0.000512909
0.00050306
0.000490259
0.000475593
0.000459963
0.000444434
0.00043007
0.000417638
0.000407584
0.000400207
0.000395709
0.00039404
0.00039472
0.000396816
0.000399209
0.000400924
0.000401357
0.000400359
0.000398136
0.000451864
0.000447344
0.000439476
0.000429377
0.000417951
0.000405926
0.000394035
0.000383046
0.000373627
0.000366222
0.000361037
0.000358077
0.000357133
0.000357743
0.000359175
0.000360499
0.000360769
0.000359245
0.000355539
0.000349704
0.000390005
0.000386439
0.000380558
0.000373216
0.000365089
0.000356703
0.000348502
0.00034089
0.000334204
0.000328684
0.000324455
0.000321516
0.00031973
0.000318808
0.000318309
0.000317695
0.000316424
0.000314064
0.000310389
0.000305423
0.000334673
0.000332055
0.000327827
0.000322627
0.000316947
0.000311154
0.000305519
0.000300246
0.000295487
0.000291349
0.000287882
0.000285068
0.000282815
0.000280961
0.000279286
0.000277542
0.000275491
0.000272954
0.000269844
0.000266191
0.000286034
0.000284108
0.000281024
0.000277246
0.000273139
0.000268975
0.000264949
0.00026119
0.000257777
0.000254744
0.000252082
0.000249747
0.000247658
0.000245711
0.000243784
0.000241759
0.000239539
0.000237065
0.000234335
0.000231399
0.000243429
0.000241971
0.000239645
0.000236806
0.000233731
0.000230629
0.000227644
0.000224872
0.000222357
0.000220107
0.000218099
0.000216281
0.00021458
0.000212912
0.000211189
0.000209334
0.000207296
0.000205061
0.000202652
0.000200133
0.000206317
0.000205188
0.000203389
0.000201195
0.000198822
0.000196432
0.000194137
0.000192008
0.000190078
0.000188351
0.000186802
0.000185387
0.000184042
0.000182697
0.000181278
0.000179726
0.000178002
0.000176102
0.000174052
0.00017191
0.000174318
0.000173424
0.000171998
0.000170258
0.000168374
0.000166476
0.000164652
0.000162961
0.000161428
0.000160057
0.000158827
0.0001577
0.000156625
0.000155541
0.00015439
0.000153122
0.000151708
0.000150144
0.000148455
0.000146689
0.000147191
0.000146469
0.000145313
0.0001439
0.000142369
0.000140825
0.00013934
0.000137961
0.000136711
0.000135591
0.000134586
0.000133665
0.000132785
0.0001319
0.000130959
0.000129926
0.000128775
0.000127505
0.000126136
0.000124709
0.000124854
0.000124258
0.000123301
0.000122131
0.000120861
0.000119577
0.000118341
0.000117192
0.000116148
0.000115212
0.000114371
0.000113601
0.000112867
0.000112131
0.000111353
0.000110503
0.000109561
0.000108526
0.000107415
0.000106258
0.000107386
0.000106882
0.000106071
0.000105077
0.000103997
0.000102905
0.000101851
0.00010087
9.99775e-05
9.91764e-05
9.84559e-05
9.77962e-05
9.71687e-05
9.65416e-05
9.5883e-05
9.51675e-05