/*--------------------------------*- C++ -*----------------------------------*\
| =========                 |                                                 |
| \\      /  F ield         | OpenFOAM: The Open Source CFD Toolbox           |
|  \\    /   O peration     | Version:  1.4.1-dev                             |
|   \\  /    A nd           | Web:      http://www.openfoam.org               |
|    \\/     M anipulation  |                                                 |
\*---------------------------------------------------------------------------*/

FoamFile
{
    version 2.0;
    format ascii;

    root "/home/mjaworsk/OpenFOAM/mjaworsk-1.4.1-dev/run/FlatPlate-Blasius";
    case "icoHeatFoam-flatPlate2";
    instance "0.5";
    local "";

    class surfaceScalarField;
    object phi;
}

// * * * * * * * * * * * * * * * * * * * * * * * * * * * * * * * * * * * * * //

dimensions      [0 3 -1 0 0 0 0];

internalField   nonuniform List<scalar> 
4850
(
9.4342e-09
5.438e-09
-1.48722e-08
5.64924e-09
3.78495e-09
3.84729e-09
1.80195e-09
2.99277e-09
8.54524e-10
2.53375e-09
4.59018e-10
2.24745e-09
2.863e-10
2.0407e-09
2.06749e-10
1.87684e-09
1.63853e-10
1.74114e-09
1.35704e-10
1.62593e-09
1.15213e-10
1.52629e-09
9.96342e-11
1.43879e-09
8.75092e-11
1.36108e-09
7.77087e-11
1.29141e-09
6.96712e-11
1.22858e-09
6.28235e-11
1.1715e-09
5.70853e-11
1.11944e-09
5.20607e-11
1.07155e-09
4.78874e-11
1.02744e-09
4.41128e-11
9.86396e-10
4.10392e-11
9.48316e-10
3.80803e-11
9.12548e-10
3.57683e-11
8.79222e-10
3.33252e-11
8.47622e-10
3.16002e-11
8.18143e-10
2.94792e-11
7.89921e-10
2.82224e-11
7.63663e-10
2.62579e-11
7.38249e-10
2.54137e-11
7.14869e-10
2.33799e-11
6.91904e-10
2.29651e-11
6.71138e-10
2.07664e-11
6.5007e-10
2.10676e-11
6.31107e-10
1.89632e-11
6.11406e-10
1.97013e-11
1.88872e-11
1.62479e-08
6.12084e-09
-1.69308e-08
1.38436e-08
6.18928e-09
1.1596e-08
4.04957e-09
9.84099e-09
2.60952e-09
8.51244e-09
1.78757e-09
7.54481e-09
1.25392e-09
6.83129e-09
9.20273e-10
6.27471e-09
7.2043e-10
5.81792e-09
5.92492e-10
5.43104e-09
5.02095e-10
5.09669e-09
4.33983e-10
4.80328e-09
3.80923e-10
4.5429e-09
3.38091e-10
4.30969e-09
3.02882e-10
4.09948e-09
2.73032e-10
3.90864e-09
2.47924e-10
3.73458e-09
2.26121e-10
3.57464e-09
2.07828e-10
3.42723e-09
1.91517e-10
3.2903e-09
1.77979e-10
3.16308e-09
1.65291e-10
3.04382e-09
1.5503e-10
2.93249e-09
1.44658e-10
2.82723e-09
1.36859e-10
2.72875e-09
1.27958e-10
2.63484e-09
1.22136e-10
2.54718e-09
1.13919e-10
2.46284e-09
1.09749e-10
2.38497e-09
1.01254e-10
2.30886e-09
9.90755e-11
2.23988e-09
8.97438e-11
2.16979e-09
9.11613e-11
2.10807e-09
8.06762e-11
2.04215e-09
8.56208e-11
7.7031e-11
1.91437e-08
5.38641e-09
-1.84092e-08
1.85904e-08
6.74258e-09
1.7373e-08
5.26693e-09
1.60462e-08
3.93634e-09
1.47001e-08
3.13371e-09
1.34517e-08
2.50225e-09
1.23777e-08
1.99429e-09
1.1471e-08
1.62714e-09
1.06968e-08
1.36671e-09
1.00253e-08
1.17359e-09
9.43532e-09
1.02395e-09
8.9113e-09
9.04944e-10
8.44196e-09
8.07433e-10
8.01862e-09
7.26222e-10
7.63486e-09
6.5679e-10
7.285e-09
5.97786e-10
6.96478e-09
5.46335e-10
6.66989e-09
5.02726e-10
6.39751e-09
4.63893e-10
6.14419e-09
4.31295e-10
5.90846e-09
4.01027e-10
5.68734e-09
3.76145e-10
5.48057e-09
3.5143e-10
5.28512e-09
3.32314e-10
5.10191e-09
3.11161e-10
4.92733e-09
2.96722e-10
4.76409e-09
2.77157e-10
4.60731e-09
2.66532e-10
4.4623e-09
2.46264e-10
4.32076e-09
2.40616e-10
4.19236e-09
2.18135e-10
4.0619e-09
2.21626e-10
3.94806e-09
1.94515e-10
3.82564e-09
2.08045e-10
1.81358e-10
2.09043e-08
4.60114e-09
-2.0119e-08
2.12515e-08
6.3954e-09
2.09245e-08
5.5939e-09
2.03542e-08
4.50671e-09
1.95886e-08
3.89932e-09
1.8671e-08
3.41977e-09
1.77124e-08
2.95295e-09
1.67822e-08
2.55732e-09
1.59034e-08
2.24554e-09
1.50823e-08
1.99462e-09
1.43207e-08
1.78555e-09
1.36167e-08
1.60898e-09
1.29668e-08
1.45729e-09
1.23668e-08
1.32622e-09
1.18129e-08
1.21075e-09
1.13005e-08
1.11015e-09
1.08262e-08
1.02062e-09
1.03856e-08
9.43368e-10
9.97575e-09
8.73728e-10
9.59249e-09
8.14552e-10
9.23415e-09
7.59373e-10
8.89672e-09
7.1357e-10
8.58005e-09
6.68102e-10
8.27988e-09
6.32489e-10
7.99773e-09
5.93311e-10
7.72828e-09
5.66173e-10
7.4758e-09
5.29636e-10
7.23295e-09
5.09382e-10
7.00796e-09
4.71245e-10
6.7881e-09
4.60484e-10
6.58849e-09
4.17744e-10
6.3856e-09
4.24509e-10
6.209e-09
3.71118e-10
6.01942e-09
3.97622e-10
3.41013e-10
2.25853e-08
4.03052e-09
-2.20147e-08
2.31818e-08
5.79891e-09
2.32729e-08
5.50277e-09
2.31683e-08
4.61134e-09
2.2934e-08
4.13363e-09
2.25163e-08
3.83747e-09
2.19561e-08
3.51308e-09
2.13168e-08
3.19664e-09
2.06321e-08
2.93026e-09
1.99205e-08
2.70617e-09
1.91986e-08
2.50753e-09
1.84799e-08
2.32764e-09
1.77754e-08
2.16182e-09
1.70922e-08
2.00941e-09
1.64359e-08
1.86705e-09
1.5809e-08
1.737e-09
1.52137e-08
1.61594e-09
1.46491e-08
1.50798e-09
1.41154e-08
1.40747e-09
1.36095e-08
1.3204e-09
1.31314e-08
1.23746e-09
1.2677e-08
1.16802e-09
1.22471e-08
1.09794e-09
1.18367e-08
1.04288e-09
1.14488e-08
9.81278e-10
1.10761e-08
9.38816e-10
1.07254e-08
8.80326e-10
1.03865e-08
8.48357e-10
1.00714e-08
7.86285e-10
9.7623e-09
7.69607e-10
9.48115e-09
6.98901e-10
9.19483e-09
7.10825e-10
8.9452e-09
6.20749e-10
8.67806e-09
6.64757e-10
5.65566e-10
2.44293e-08
3.63825e-09
-2.4037e-08
2.50427e-08
5.18544e-09
2.5282e-08
5.26353e-09
2.53409e-08
4.55241e-09
2.53662e-08
4.10836e-09
2.52867e-08
3.91697e-09
2.5079e-08
3.72079e-09
2.47764e-08
3.49919e-09
2.44017e-08
3.30502e-09
2.39616e-08
3.14627e-09
2.34634e-08
3.00568e-09
2.29171e-08
2.87394e-09
2.23344e-08
2.74456e-09
2.17258e-08
2.61793e-09
2.11029e-08
2.48999e-09
2.04745e-08
2.36543e-09
1.98499e-08
2.24048e-09
1.92346e-08
2.1233e-09
1.86348e-08
2.00726e-09
1.80516e-08
1.90367e-09
1.74888e-08
1.80021e-09
1.6944e-08
1.71282e-09
1.64211e-08
1.6209e-09
1.59147e-08
1.54926e-09
1.54308e-08
1.46519e-09
1.49607e-08
1.40888e-09
1.45147e-08
1.32628e-09
1.40795e-08
1.28362e-09
1.36724e-08
1.19331e-09
1.32698e-08
1.1722e-09
1.29022e-08
1.06656e-09
1.25261e-08
1.08694e-09
1.21964e-08
9.50431e-10
1.18442e-08
1.01696e-09
8.63277e-10
2.64508e-08
3.36096e-09
-2.61735e-08
2.70159e-08
4.6203e-09
2.73216e-08
4.95786e-09
2.74207e-08
4.45327e-09
2.75164e-08
4.01273e-09
2.75824e-08
3.851e-09
2.75668e-08
3.7363e-09
2.74806e-08
3.5854e-09
2.73426e-08
3.44311e-09
2.71527e-08
3.33614e-09
2.69066e-08
3.25181e-09
2.66021e-08
3.17838e-09
2.62416e-08
3.10506e-09
2.58279e-08
3.03163e-09
2.53676e-08
2.95033e-09
2.48668e-08
2.86626e-09
2.43356e-08
2.77168e-09
2.37812e-08
2.67769e-09
2.32144e-08
2.57399e-09
2.26398e-08
2.47828e-09
2.20666e-08
2.37346e-09
2.14944e-08
2.285e-09
2.09316e-08
2.18367e-09
2.03735e-08
2.10743e-09
1.98302e-08
2.0084e-09
1.92923e-08
1.94683e-09
1.8775e-08
1.84363e-09
1.82616e-08
1.79697e-09
1.77764e-08
1.67848e-09
1.72899e-08
1.65877e-09
1.68421e-08
1.51432e-09
1.63801e-08
1.54896e-09
1.59713e-08
1.35921e-09
1.55341e-08
1.45419e-09
1.23783e-09
2.86491e-08
3.14762e-09
-2.84357e-08
2.91378e-08
4.13158e-09
2.94853e-08
4.61035e-09
2.96105e-08
4.32807e-09
2.97079e-08
3.91533e-09
2.98145e-08
3.7444e-09
2.98774e-08
3.67338e-09
2.9889e-08
3.57385e-09
2.98697e-08
3.46234e-09
2.98251e-08
3.3808e-09
2.97492e-08
3.32768e-09
2.9634e-08
3.29356e-09
2.94753e-08
3.26377e-09
2.92679e-08
3.23905e-09
2.90107e-08
3.20745e-09
2.87017e-08
3.17526e-09
2.83453e-08
3.12811e-09
2.79434e-08
3.07963e-09
2.75056e-08
3.01177e-09
2.7035e-08
2.94889e-09
2.65432e-08
2.86519e-09
2.60301e-08
2.79817e-09
2.55075e-08
2.70622e-09
2.49701e-08
2.64487e-09
2.44327e-08
2.54581e-09
2.38841e-08
2.49536e-09
2.33456e-08
2.38215e-09
2.27974e-08
2.34522e-09
2.22706e-08
2.20524e-09
2.17306e-08
2.19882e-09
2.12271e-08
2.01781e-09
2.07e-08
2.07602e-09
2.0227e-08
1.83221e-09
1.97188e-08
1.96244e-09
1.68341e-09
3.10337e-08
2.96402e-09
-3.08501e-08
3.14371e-08
3.72821e-09
3.18006e-08
4.24677e-09
3.19623e-08
4.16636e-09
3.20528e-08
3.82484e-09
3.21613e-08
3.63596e-09
3.22533e-08
3.58138e-09
3.23039e-08
3.52322e-09
3.23296e-08
3.43663e-09
3.23441e-08
3.36632e-09
3.23479e-08
3.32385e-09
3.23338e-08
3.3077e-09
3.22975e-08
3.30007e-09
3.22316e-08
3.30492e-09
3.21326e-08
3.30645e-09
3.19926e-08
3.31528e-09
3.18111e-08
3.30964e-09
3.15827e-08
3.30794e-09
3.13132e-08
3.28128e-09
3.09999e-08
3.26221e-09
3.06535e-08
3.21163e-09
3.02699e-08
3.18173e-09
2.98624e-08
3.11376e-09
2.94218e-08
3.08543e-09
2.89656e-08
3.00205e-09
2.84792e-08
2.98171e-09
2.79883e-08
2.87309e-09
2.74695e-08
2.86401e-09
2.69595e-08
2.71527e-09
2.64193e-08
2.739e-09
2.59055e-08
2.53161e-09
2.53553e-08
2.62619e-09
2.48512e-08
2.3363e-09
2.43057e-08
2.50799e-09
2.17923e-09
3.36216e-08
2.79413e-09
-3.34517e-08
3.39484e-08
3.40137e-09
3.43003e-08
3.89487e-09
3.44996e-08
3.96712e-09
3.4593e-08
3.73139e-09
3.46915e-08
3.5375e-09
3.47929e-08
3.47999e-09
3.4863e-08
3.45309e-09
3.4906e-08
3.39369e-09
3.49386e-08
3.33369e-09
3.49693e-08
3.2931e-09
3.49941e-08
3.28297e-09
3.50113e-08
3.28289e-09
3.50146e-08
3.30155e-09
3.50028e-08
3.31822e-09
3.4967e-08
3.35115e-09
3.49061e-08
3.37049e-09
3.48108e-08
3.40323e-09
3.46845e-08
3.4076e-09
3.45191e-08
3.42762e-09
3.43238e-08
3.40698e-09
3.40896e-08
3.41591e-09
3.38293e-08
3.37403e-09
3.3529e-08
3.3858e-09
3.32056e-08
3.32543e-09
3.28399e-08
3.34742e-09
3.24583e-08
3.25468e-09
3.2034e-08
3.28827e-09
3.16048e-08
3.14445e-09
3.11294e-08
3.21445e-09
3.06643e-08
2.99668e-09
3.01496e-08
3.1409e-09
2.96633e-08
2.82259e-09
2.91336e-08
3.03774e-09
2.68699e-09
3.64348e-08
2.63442e-09
-3.62751e-08
3.67029e-08
3.13332e-09
3.70234e-08
3.57433e-09
3.72483e-08
3.74227e-09
3.73573e-08
3.62235e-09
3.74454e-08
3.44939e-09
3.75451e-08
3.3803e-09
3.76268e-08
3.37143e-09
3.76804e-08
3.34003e-09
3.77184e-08
3.29572e-09
3.7755e-08
3.25646e-09
3.77898e-08
3.24819e-09
3.78237e-08
3.24902e-09
3.78513e-08
3.27388e-09
3.78747e-08
3.29486e-09
3.7886e-08
3.33991e-09
3.78867e-08
3.36977e-09
3.78665e-08
3.42343e-09
3.78295e-08
3.44459e-09
3.77649e-08
3.49224e-09
3.76816e-08
3.49019e-09
3.7568e-08
3.52956e-09
3.74365e-08
3.5055e-09
3.72702e-08
3.55217e-09
3.70846e-08
3.51103e-09
3.68569e-08
3.57511e-09
3.6611e-08
3.50054e-09
3.63185e-08
3.58081e-09
3.6013e-08
3.4499e-09
3.56541e-08
3.57335e-09
3.52902e-08
3.36065e-09
3.48691e-08
3.56197e-09
3.44519e-08
3.23977e-09
3.39982e-08
3.49144e-09
3.15612e-09
3.9497e-08
2.48574e-09
-3.93483e-08
3.97233e-08
2.90702e-09
4.0005e-08
3.29261e-09
4.02388e-08
3.50851e-09
4.03702e-08
3.4909e-09
4.04546e-08
3.36506e-09
4.05465e-08
3.2884e-09
4.0633e-08
3.28491e-09
4.06959e-08
3.27709e-09
4.07375e-08
3.25414e-09
4.07741e-08
3.21992e-09
4.08087e-08
3.21352e-09
4.08448e-08
3.21292e-09
4.08773e-08
3.24141e-09
4.091e-08
3.26213e-09
4.09364e-08
3.31355e-09
4.09605e-08
3.34563e-09
4.09727e-08
3.41123e-09
4.09786e-08
3.43871e-09
4.0967e-08
3.50386e-09
4.09472e-08
3.50998e-09
4.09073e-08
3.56948e-09
4.08597e-08
3.55308e-09
4.07881e-08
3.62373e-09
4.07066e-08
3.59256e-09
4.05929e-08
3.68878e-09
4.04663e-08
3.62714e-09
4.03008e-08
3.74632e-09
4.01223e-08
3.62839e-09
3.98962e-08
3.79951e-09
3.96562e-08
3.6006e-09
3.93634e-08
3.85472e-09
3.90491e-08
3.55412e-09
3.8716e-08
3.82453e-09
3.53932e-09
4.28289e-08
2.34865e-09
-4.26919e-08
4.30255e-08
2.71044e-09
4.32704e-08
3.04771e-09
4.34989e-08
3.28006e-09
4.36513e-08
3.33848e-09
4.37413e-08
3.27505e-09
4.38255e-08
3.20425e-09
4.39113e-08
3.19908e-09
4.39818e-08
3.20661e-09
4.40288e-08
3.20713e-09
4.40653e-08
3.18339e-09
4.40976e-08
3.18123e-09
4.41315e-08
3.17895e-09
4.41626e-08
3.21034e-09
4.41952e-08
3.22956e-09
4.42237e-08
3.28502e-09
4.42536e-08
3.31575e-09
4.42765e-08
3.38828e-09
4.42986e-08
3.41666e-09
4.43099e-08
3.49261e-09
4.43186e-08
3.50123e-09
4.43149e-08
3.57322e-09
4.43094e-08
3.55852e-09
4.42899e-08
3.6433e-09
4.42677e-08
3.61475e-09
4.42258e-08
3.73068e-09
4.41776e-08
3.67528e-09
4.41042e-08
3.81978e-09
4.40221e-08
3.71047e-09
4.39071e-08
3.91448e-09
4.37773e-08
3.73041e-09
4.36111e-08
4.02099e-09
4.34029e-08
3.76228e-09
4.31998e-08
4.02765e-09
3.81142e-09
4.64487e-08
2.22255e-09
-4.63226e-08
4.66227e-08
2.53637e-09
4.68369e-08
2.83351e-09
4.70517e-08
3.06527e-09
4.72174e-08
3.17279e-09
4.73208e-08
3.17161e-09
4.74023e-08
3.12282e-09
4.74846e-08
3.11674e-09
4.75599e-08
3.13128e-09
4.76144e-08
3.1527e-09
4.76537e-08
3.14403e-09
4.76851e-08
3.14984e-09
4.77168e-08
3.14729e-09
4.77458e-08
3.1813e-09
4.77762e-08
3.19918e-09
4.78035e-08
3.2577e-09
4.78331e-08
3.2862e-09
4.78587e-08
3.36267e-09
4.78854e-08
3.38992e-09
4.79057e-08
3.47229e-09
4.79254e-08
3.48161e-09
4.79372e-08
3.56139e-09
4.79487e-08
3.54703e-09
4.79521e-08
3.6399e-09
4.79556e-08
3.61126e-09
4.79488e-08
3.73743e-09
4.79396e-08
3.68448e-09
4.79174e-08
3.84202e-09
4.78904e-08
3.73739e-09
4.78464e-08
3.95854e-09
4.77899e-08
3.78692e-09
4.77192e-08
4.09165e-09
4.75949e-08
3.88662e-09
4.74957e-08
4.12686e-09
3.97848e-09
5.03742e-08
2.10635e-09
-5.0258e-08
5.05301e-08
2.38047e-09
5.07197e-08
2.64393e-09
5.09178e-08
2.8671e-09
5.10881e-08
3.00253e-09
5.1207e-08
3.05272e-09
5.12925e-08
3.03733e-09
5.13721e-08
3.03712e-09
5.14496e-08
3.05378e-09
5.15119e-08
3.09038e-09
5.15575e-08
3.09843e-09
5.15913e-08
3.11602e-09
5.16226e-08
3.11599e-09
5.16513e-08
3.15269e-09
5.16804e-08
3.17e-09
5.17072e-08
3.23099e-09
5.17355e-08
3.25781e-09
5.17619e-08
3.33632e-09
5.17897e-08
3.36215e-09
5.1814e-08
3.44798e-09
5.18377e-08
3.45786e-09
5.18564e-08
3.54275e-09
5.18739e-08
3.52944e-09
5.18862e-08
3.62766e-09
5.18981e-08
3.59931e-09
5.1905e-08
3.7306e-09
5.191e-08
3.67941e-09
5.19096e-08
3.84243e-09
5.19058e-08
3.74124e-09
5.18963e-08
3.96804e-09
5.18753e-08
3.80793e-09
5.18605e-08
4.10638e-09
5.17889e-08
3.95822e-09
5.17514e-08
4.16443e-09
4.06976e-09
5.46269e-08
1.99901e-09
-5.45195e-08
5.47675e-08
2.23979e-09
5.49371e-08
2.47434e-09
5.51189e-08
2.68535e-09
5.5287e-08
2.8344e-09
5.54181e-08
2.92161e-09
5.55128e-08
2.9426e-09
5.5593e-08
2.95691e-09
5.56711e-08
2.97567e-09
5.57401e-08
3.02145e-09
5.57939e-08
3.04456e-09
5.58337e-08
3.07627e-09
5.58674e-08
3.08224e-09
5.58978e-08
3.12231e-09
5.59278e-08
3.14001e-09
5.59557e-08
3.20308e-09
5.59843e-08
3.22923e-09
5.60117e-08
3.30887e-09
5.60402e-08
3.33365e-09
5.60669e-08
3.42131e-09
5.6093e-08
3.43181e-09
5.61151e-08
3.52058e-09
5.61356e-08
3.50896e-09
5.61514e-08
3.61188e-09
5.61659e-08
3.58483e-09
5.61771e-08
3.71938e-09
5.61859e-08
3.6706e-09
5.61927e-08
3.83561e-09
5.61948e-08
3.73914e-09
5.61985e-08
3.96434e-09
5.61881e-08
3.81837e-09
5.61979e-08
4.0966e-09
5.61543e-08
4.0018e-09
5.6142e-08
4.1767e-09
4.11959e-09
5.92322e-08
1.89957e-09
-5.91328e-08
5.936e-08
2.11203e-09
5.95129e-08
2.32141e-09
5.96796e-08
2.51868e-09
5.98415e-08
2.67244e-09
5.99793e-08
2.78378e-09
6.0085e-08
2.83691e-09
6.01698e-08
2.87219e-09
6.02487e-08
2.89678e-09
6.03222e-08
2.94789e-09
6.03843e-08
2.98248e-09
6.04324e-08
3.02822e-09
6.04713e-08
3.04329e-09
6.05054e-08
3.08817e-09
6.05381e-08
3.10735e-09
6.05689e-08
3.17233e-09
6.05994e-08
3.19868e-09
6.06289e-08
3.2794e-09
6.0659e-08
3.30355e-09
6.06876e-08
3.3927e-09
6.07158e-08
3.40355e-09
6.07403e-08
3.49612e-09
6.07632e-08
3.4861e-09
6.0781e-08
3.59408e-09
6.07969e-08
3.56895e-09
6.08098e-08
3.70639e-09
6.08195e-08
3.66094e-09
6.08289e-08
3.82622e-09
6.08306e-08
3.73743e-09
6.08392e-08
3.95575e-09
6.08286e-08
3.82896e-09
6.08451e-08
4.08006e-09
6.08158e-08
4.0311e-09
6.08087e-08
4.18386e-09
4.15302e-09
6.42193e-08
1.80705e-09
-6.41268e-08
6.43361e-08
1.99519e-09
6.4475e-08
2.18254e-09
6.46282e-08
2.36553e-09
6.47821e-08
2.51854e-09
6.49217e-08
2.64414e-09
6.50365e-08
2.72211e-09
6.51287e-08
2.78004e-09
6.521e-08
2.81544e-09
6.52868e-08
2.87109e-09
6.53557e-08
2.91361e-09
6.54126e-08
2.9713e-09
6.54588e-08
2.99709e-09
6.54984e-08
3.0486e-09
6.55351e-08
3.07058e-09
6.55697e-08
3.13772e-09
6.56036e-08
3.1648e-09
6.5636e-08
3.24707e-09
6.56686e-08
3.2709e-09
6.56993e-08
3.36203e-09
6.57299e-08
3.37288e-09
6.57564e-08
3.46969e-09
6.57816e-08
3.46092e-09
6.58013e-08
3.57438e-09
6.58187e-08
3.55155e-09
6.58333e-08
3.6917e-09
6.58436e-08
3.65071e-09
6.58551e-08
3.81465e-09
6.58553e-08
3.73725e-09
6.5867e-08
3.9441e-09
6.58544e-08
3.84154e-09
6.58703e-08
4.06409e-09
6.58494e-08
4.05201e-09
6.58407e-08
4.19254e-09
4.18222e-09
6.962e-08
1.72032e-09
-6.95333e-08
6.97277e-08
1.88747e-09
6.98548e-08
2.05552e-09
6.99959e-08
2.22438e-09
7.01411e-08
2.37333e-09
7.02791e-08
2.50612e-09
7.03997e-08
2.60157e-09
7.05e-08
2.67974e-09
7.0586e-08
2.72945e-09
7.06658e-08
2.79126e-09
7.07398e-08
2.83958e-09
7.08048e-08
2.90636e-09
7.08592e-08
2.94268e-09
7.09055e-08
3.00231e-09
7.09474e-08
3.02862e-09
7.09866e-08
3.09858e-09
7.10246e-08
3.12681e-09
7.10604e-08
3.2112e-09
7.10963e-08
3.23508e-09
7.11294e-08
3.32886e-09
7.11626e-08
3.33965e-09
7.11912e-08
3.44115e-09
7.12186e-08
3.43353e-09
7.12405e-08
3.55244e-09
7.12596e-08
3.5325e-09
7.12764e-08
3.67484e-09
7.12876e-08
3.63957e-09
7.13018e-08
3.80042e-09
7.13012e-08
3.73783e-09
7.13156e-08
3.92969e-09
7.13027e-08
3.85445e-09
7.13162e-08
4.0506e-09
7.13013e-08
4.06695e-09
7.12908e-08
4.20298e-09
4.21055e-09
7.54686e-08
1.63805e-09
-7.53863e-08
7.55689e-08
1.78717e-09
7.5686e-08
1.93843e-09
7.58166e-08
2.09378e-09
7.59532e-08
2.23671e-09
7.60875e-08
2.3718e-09
7.62105e-08
2.47853e-09
7.63177e-08
2.57256e-09
7.64099e-08
2.63727e-09
7.64936e-08
2.70754e-09
7.65718e-08
2.76135e-09
7.66434e-08
2.83479e-09
7.67059e-08
2.88025e-09
7.67597e-08
2.94845e-09
7.68078e-08
2.98056e-09
7.68521e-08
3.0543e-09
7.68945e-08
3.08435e-09
7.69344e-08
3.17128e-09
7.69738e-08
3.19572e-09
7.701e-08
3.29266e-09
7.70459e-08
3.30373e-09
7.7077e-08
3.41003e-09
7.71065e-08
3.40407e-09
7.71311e-08
3.52787e-09
7.71519e-08
3.51162e-09
7.71714e-08
3.65538e-09
7.71839e-08
3.62707e-09
7.7201e-08
3.78335e-09
7.72011e-08
3.73771e-09
7.72178e-08
3.913e-09
7.72067e-08
3.86554e-09
7.72179e-08
4.03939e-09
7.72076e-08
4.07721e-09
7.71967e-08
4.21391e-09
4.23769e-09
8.18017e-08
1.55882e-09
-8.17225e-08
8.18962e-08
1.69273e-09
8.20051e-08
1.82954e-09
8.21265e-08
1.97237e-09
8.2255e-08
2.10823e-09
8.23845e-08
2.24228e-09
8.25076e-08
2.35545e-09
8.26194e-08
2.46068e-09
8.2718e-08
2.53873e-09
8.28067e-08
2.61877e-09
8.28891e-08
2.679e-09
8.29661e-08
2.75774e-09
8.30357e-08
2.8107e-09
8.30973e-08
2.88685e-09
8.31521e-08
2.92574e-09
8.32022e-08
3.00419e-09
8.32495e-08
3.03703e-09
8.32939e-08
3.12693e-09
8.3337e-08
3.15255e-09
8.33768e-08
3.25291e-09
8.34156e-08
3.26495e-09
8.34498e-08
3.37581e-09
8.34814e-08
3.37246e-09
8.35089e-08
3.5004e-09
8.35319e-08
3.48859e-09
8.35542e-08
3.63307e-09
8.35687e-08
3.61257e-09
8.35885e-08
3.76361e-09
8.35909e-08
3.73532e-09
8.36092e-08
3.89464e-09
8.36015e-08
3.87321e-09
8.36112e-08
4.02969e-09
8.36048e-08
4.08361e-09
8.35944e-08
4.22434e-09
4.2627e-09
8.86589e-08
1.48133e-09
-8.85814e-08
8.87489e-08
1.60275e-09
8.88511e-08
1.72731e-09
8.89646e-08
1.85887e-09
8.90856e-08
1.98719e-09
8.92099e-08
2.11798e-09
8.93314e-08
2.23396e-09
8.94458e-08
2.34625e-09
8.95497e-08
2.43485e-09
8.96441e-08
2.52435e-09
8.97311e-08
2.59203e-09
8.98131e-08
2.6758e-09
8.98887e-08
2.73504e-09
8.99576e-08
2.81801e-09
9.00194e-08
2.86387e-09
9.00759e-08
2.94769e-09
9.01286e-08
2.98439e-09
9.01777e-08
3.07778e-09
9.02249e-08
3.10532e-09
9.02687e-08
3.20913e-09
9.03106e-08
3.22308e-09
9.03484e-08
3.33801e-09
9.03826e-08
3.33828e-09
9.04131e-08
3.46982e-09
9.04388e-08
3.46295e-09
9.04642e-08
3.6077e-09
9.04814e-08
3.59537e-09
9.05036e-08
3.74142e-09
9.05096e-08
3.72929e-09
9.05293e-08
3.87496e-09
9.0526e-08
3.87649e-09
9.05351e-08
4.02062e-09
9.05321e-08
4.08661e-09
9.05228e-08
4.2336e-09
4.28491e-09
9.60827e-08
1.40477e-09
-9.60061e-08
9.61694e-08
1.51603e-09
9.62663e-08
1.63041e-09
9.63731e-08
1.75204e-09
9.64874e-08
1.87286e-09
9.66065e-08
1.99893e-09
9.67254e-08
2.11506e-09
9.68406e-08
2.23101e-09
9.69483e-08
2.32717e-09
9.70481e-08
2.42461e-09
9.71401e-08
2.5e-09
9.72268e-08
2.58907e-09
9.73079e-08
2.65398e-09
9.73832e-08
2.74272e-09
9.74519e-08
2.79516e-09
9.7515e-08
2.88453e-09
9.75735e-08
2.92591e-09
9.76279e-08
3.02339e-09
9.76795e-08
3.05377e-09
9.77277e-08
3.16096e-09
9.77729e-08
3.1778e-09
9.78146e-08
3.29635e-09
9.7852e-08
3.30086e-09
9.7886e-08
3.43586e-09
9.79146e-08
3.43428e-09
9.79433e-08
3.57901e-09
9.7964e-08
3.57473e-09
9.79885e-08
3.71683e-09
9.79992e-08
3.71859e-09
9.80203e-08
3.85388e-09
9.8022e-08
3.8748e-09
9.80313e-08
4.01128e-09
9.80315e-08
4.08641e-09
9.80241e-08
4.24107e-09
4.3039e-09
1.04119e-07
1.32884e-09
-1.04043e-07
1.04203e-07
1.43171e-09
1.04296e-07
1.53771e-09
1.04397e-07
1.65072e-09
1.04506e-07
1.7644e-09
1.0462e-07
1.88495e-09
1.04736e-07
1.99927e-09
1.0485e-07
2.11625e-09
1.0496e-07
2.21718e-09
1.05064e-07
2.32059e-09
1.05161e-07
2.40296e-09
1.05253e-07
2.49747e-09
1.05339e-07
2.56789e-09
1.0542e-07
2.66171e-09
1.05495e-07
2.72017e-09
1.05565e-07
2.81481e-09
1.0563e-07
2.86128e-09
1.0569e-07
2.96324e-09
1.05746e-07
2.99751e-09
1.05799e-07
3.10814e-09
1.05848e-07
3.12865e-09
1.05893e-07
3.25081e-09
1.05935e-07
3.25962e-09
1.05973e-07
3.3979e-09
1.06005e-07
3.4022e-09
1.06037e-07
3.54681e-09
1.06062e-07
3.55e-09
1.06089e-07
3.68957e-09
1.06105e-07
3.7026e-09
1.06128e-07
3.83096e-09
1.06135e-07
3.86787e-09
1.06145e-07
4.00075e-09
1.06149e-07
4.08306e-09
1.06144e-07
4.24618e-09
4.31934e-09
1.12818e-07
1.25349e-09
-1.12743e-07
1.12901e-07
1.34934e-09
1.1299e-07
1.44836e-09
1.13087e-07
1.55394e-09
1.1319e-07
1.66098e-09
1.133e-07
1.77568e-09
1.13412e-07
1.88683e-09
1.13525e-07
2.00286e-09
1.13636e-07
2.1062e-09
1.13743e-07
2.21356e-09
1.13845e-07
2.3016e-09
1.13941e-07
2.40117e-09
1.14032e-07
2.47699e-09
1.14118e-07
2.57547e-09
1.14199e-07
2.63953e-09
1.14275e-07
2.73897e-09
1.14345e-07
2.79051e-09
1.14412e-07
2.89704e-09
1.14473e-07
2.93598e-09
1.14531e-07
3.05052e-09
1.14584e-07
3.07513e-09
1.14634e-07
3.20118e-09
1.14679e-07
3.21438e-09
1.14722e-07
3.35512e-09
1.14758e-07
3.36607e-09
1.14794e-07
3.51102e-09
1.14823e-07
3.52081e-09
1.14854e-07
3.65902e-09
1.14875e-07
3.68106e-09
1.14901e-07
3.80563e-09
1.14913e-07
3.85556e-09
1.14926e-07
3.98806e-09
1.14932e-07
4.07643e-09
1.1493e-07
4.2484e-09
4.33091e-09
1.22235e-07
1.17891e-09
-1.22161e-07
1.22316e-07
1.26882e-09
1.22402e-07
1.36183e-09
1.22495e-07
1.46094e-09
1.22594e-07
1.56189e-09
1.22699e-07
1.67071e-09
1.22808e-07
1.77783e-09
1.2292e-07
1.89143e-09
1.23031e-07
1.99531e-09
1.23139e-07
2.10476e-09
1.23244e-07
2.19703e-09
1.23344e-07
2.30073e-09
1.2344e-07
2.38161e-09
1.23531e-07
2.48441e-09
1.23617e-07
2.5537e-09
1.23698e-07
2.65764e-09
1.23775e-07
2.71385e-09
1.23847e-07
2.82477e-09
1.23914e-07
2.86871e-09
1.23977e-07
2.98772e-09
1.24035e-07
3.01703e-09
1.24089e-07
3.1469e-09
1.24139e-07
3.16518e-09
1.24187e-07
3.30708e-09
1.24228e-07
3.32488e-09
1.24268e-07
3.47133e-09
1.24301e-07
3.48724e-09
1.24336e-07
3.62435e-09
1.24363e-07
3.65369e-09
1.24391e-07
3.77737e-09
1.24409e-07
3.8378e-09
1.24425e-07
3.9724e-09
1.24435e-07
4.06623e-09
1.24436e-07
4.24728e-09
4.33828e-09
1.32429e-07
1.10541e-09
-1.32356e-07
1.32508e-07
1.19026e-09
1.32591e-07
1.27797e-09
1.32681e-07
1.37125e-09
1.32776e-07
1.4666e-09
1.32877e-07
1.56969e-09
1.32983e-07
1.6723e-09
1.33092e-07
1.7824e-09
1.33202e-07
1.88536e-09
1.33311e-07
1.99534e-09
1.33418e-07
2.09039e-09
1.33522e-07
2.1972e-09
1.33621e-07
2.28229e-09
1.33716e-07
2.38907e-09
1.33807e-07
2.46305e-09
1.33893e-07
2.57132e-09
1.33975e-07
2.63184e-09
1.34053e-07
2.74659e-09
1.34126e-07
2.79564e-09
1.34195e-07
2.91917e-09
1.34258e-07
2.9542e-09
1.34317e-07
3.08743e-09
1.34371e-07
3.11161e-09
1.34424e-07
3.25399e-09
1.34471e-07
3.27772e-09
1.34516e-07
3.42682e-09
1.34553e-07
3.44948e-09
1.34593e-07
3.58506e-09
1.34626e-07
3.62002e-09
1.34658e-07
3.74574e-09
1.34681e-07
3.81445e-09
1.34701e-07
3.95312e-09
1.34715e-07
4.05196e-09
1.3472e-07
4.24237e-09
4.34129e-09
1.43464e-07
1.03363e-09
-1.43392e-07
1.4354e-07
1.11397e-09
1.43621e-07
1.19657e-09
1.43708e-07
1.2846e-09
1.438e-07
1.37481e-09
1.43897e-07
1.47237e-09
1.43999e-07
1.57013e-09
1.44106e-07
1.67609e-09
1.44214e-07
1.77694e-09
1.44323e-07
1.88635e-09
1.44431e-07
1.98275e-09
1.44536e-07
2.09172e-09
1.44638e-07
2.17991e-09
1.44737e-07
2.29006e-09
1.44832e-07
2.36817e-09
1.44923e-07
2.4803e-09
1.4501e-07
2.54508e-09
1.45094e-07
2.66286e-09
1.45172e-07
2.71698e-09
1.45247e-07
2.84471e-09
1.45315e-07
2.88618e-09
1.4538e-07
3.02264e-09
1.45439e-07
3.05276e-09
1.45497e-07
3.19602e-09
1.4555e-07
3.22458e-09
1.456e-07
3.37624e-09
1.45643e-07
3.40714e-09
1.45687e-07
3.54118e-09
1.45727e-07
3.57962e-09
1.45763e-07
3.71004e-09
1.45792e-07
3.78532e-09
1.45815e-07
3.92974e-09
1.45834e-07
4.03308e-09
1.45844e-07
4.23284e-09
4.33969e-09
1.55408e-07
9.64152e-10
-1.55339e-07
1.55483e-07
1.03973e-09
1.55562e-07
1.11776e-09
1.55645e-07
1.20123e-09
1.55733e-07
1.28649e-09
1.55827e-07
1.3785e-09
1.55926e-07
1.47109e-09
1.5603e-07
1.57263e-09
1.56136e-07
1.67065e-09
1.56244e-07
1.77866e-09
1.56351e-07
1.87529e-09
1.56457e-07
1.98534e-09
1.56562e-07
2.07568e-09
1.56664e-07
2.1882e-09
1.56762e-07
2.26989e-09
1.56857e-07
2.38506e-09
1.56948e-07
2.45401e-09
1.57037e-07
2.5742e-09
1.57121e-07
2.63306e-09
1.57201e-07
2.76457e-09
1.57274e-07
2.81258e-09
1.57345e-07
2.95225e-09
1.57409e-07
2.98826e-09
1.57473e-07
3.13254e-09
1.57531e-07
3.16618e-09
1.57588e-07
3.31893e-09
1.57637e-07
3.35899e-09
1.57685e-07
3.49245e-09
1.57732e-07
3.53287e-09
1.57773e-07
3.669e-09
1.57808e-07
3.75013e-09
1.57837e-07
3.90146e-09
1.5786e-07
4.00927e-09
1.57875e-07
4.21835e-09
4.33215e-09
1.68338e-07
8.96109e-10
-1.6827e-07
1.6841e-07
9.67865e-10
1.68485e-07
1.04302e-09
1.68564e-07
1.12166e-09
1.68649e-07
1.20139e-09
1.6874e-07
1.28737e-09
1.68837e-07
1.37456e-09
1.68938e-07
1.47177e-09
1.69042e-07
1.56689e-09
1.69147e-07
1.67279e-09
1.69254e-07
1.76885e-09
1.6936e-07
1.87885e-09
1.69466e-07
1.97048e-09
1.6957e-07
2.08425e-09
1.69671e-07
2.16882e-09
1.69769e-07
2.28622e-09
1.69864e-07
2.35903e-09
1.69957e-07
2.48126e-09
1.70046e-07
2.54461e-09
1.70131e-07
2.67907e-09
1.7021e-07
2.73366e-09
1.70287e-07
2.8758e-09
1.70357e-07
2.91828e-09
1.70426e-07
3.06295e-09
1.7049e-07
3.10278e-09
1.70553e-07
3.25532e-09
1.70608e-07
3.30402e-09
1.70663e-07
3.43791e-09
1.70715e-07
3.48068e-09
1.70762e-07
3.62175e-09
1.70804e-07
3.70828e-09
1.70838e-07
3.86734e-09
1.70868e-07
3.9795e-09
1.70887e-07
4.19895e-09
4.3162e-09
6.55786e-07
6.95073e-10
-6.55585e-07
6.55998e-07
7.55824e-10
6.56215e-07
8.25626e-10
6.56442e-07
8.94452e-10
6.56682e-07
9.6118e-10
6.5694e-07
1.02997e-09
6.57215e-07
1.09951e-09
6.57509e-07
1.17794e-09
6.57817e-07
1.2584e-09
6.58138e-07
1.35242e-09
6.58466e-07
1.44055e-09
6.58802e-07
1.543e-09
6.5914e-07
1.63187e-09
6.59482e-07
1.74211e-09
6.59822e-07
1.829e-09
6.60162e-07
1.94668e-09
6.60494e-07
2.02718e-09
6.60824e-07
2.15089e-09
6.61143e-07
2.22514e-09
6.61462e-07
2.36037e-09
6.61762e-07
2.43369e-09
6.62059e-07
2.57886e-09
6.62331e-07
2.64656e-09
6.62603e-07
2.79106e-09
6.62852e-07
2.8533e-09
6.63106e-07
3.00139e-09
6.63342e-07
3.06861e-09
6.63569e-07
3.21083e-09
6.63779e-07
3.27056e-09
6.63984e-07
3.41672e-09
6.64178e-07
3.51434e-09
6.64341e-07
3.7044e-09
6.64489e-07
3.83087e-09
6.64615e-07
4.07338e-09
4.19754e-09
7.09775e-07
5.67495e-10
-7.09647e-07
7.09919e-07
6.11547e-10
7.10081e-07
6.6352e-10
7.10256e-07
7.19769e-10
7.10439e-07
7.77806e-10
7.10631e-07
8.38667e-10
7.1083e-07
9.00208e-10
7.1104e-07
9.67643e-10
7.11263e-07
1.03548e-09
7.11502e-07
1.1134e-09
7.11754e-07
1.18837e-09
7.1202e-07
1.27754e-09
7.12294e-07
1.35732e-09
7.12579e-07
1.45731e-09
7.12869e-07
1.5394e-09
7.13166e-07
1.65e-09
7.13461e-07
1.73166e-09
7.13761e-07
1.8513e-09
7.14055e-07
1.93089e-09
7.14355e-07
2.06032e-09
7.14647e-07
2.14186e-09
7.14943e-07
2.2825e-09
7.15223e-07
2.36626e-09
7.15504e-07
2.51059e-09
7.15767e-07
2.5897e-09
7.16036e-07
2.7326e-09
7.16296e-07
2.80895e-09
7.16553e-07
2.95426e-09
7.16793e-07
3.02997e-09
7.17028e-07
3.18179e-09
7.17262e-07
3.28019e-09
7.17477e-07
3.48938e-09
7.17682e-07
3.62579e-09
7.1788e-07
3.87609e-09
4.0211e-09
7.67895e-07
4.84728e-10
-7.67813e-07
7.6799e-07
5.16596e-10
7.68098e-07
5.55604e-10
7.68219e-07
5.98908e-10
7.68351e-07
6.46257e-10
7.68492e-07
6.97518e-10
7.68641e-07
7.50824e-10
7.688e-07
8.08517e-10
7.6897e-07
8.66168e-10
7.69152e-07
9.31312e-10
7.69346e-07
9.94492e-10
7.69553e-07
1.07014e-09
7.69771e-07
1.13944e-09
7.70001e-07
1.22692e-09
7.7024e-07
1.30102e-09
7.70489e-07
1.40051e-09
7.70743e-07
1.47789e-09
7.71005e-07
1.58866e-09
7.71268e-07
1.66792e-09
7.7154e-07
1.78861e-09
7.71811e-07
1.87128e-09
7.72091e-07
2.00268e-09
7.72365e-07
2.09167e-09
7.72645e-07
2.23081e-09
7.72915e-07
2.31977e-09
7.7319e-07
2.4574e-09
7.73459e-07
2.53986e-09
7.73732e-07
2.68109e-09
7.73998e-07
2.76474e-09
7.74259e-07
2.92077e-09
7.74518e-07
3.0203e-09
7.74776e-07
3.23233e-09
7.75027e-07
3.3739e-09
7.75277e-07
3.62661e-09
3.77511e-09
8.30467e-07
4.18313e-10
-8.30401e-07
8.30539e-07
4.44748e-10
8.30618e-07
4.766e-10
8.30706e-07
5.11181e-10
8.30803e-07
5.49427e-10
8.30909e-07
5.90749e-10
8.31026e-07
6.34743e-10
8.31151e-07
6.82587e-10
8.31286e-07
7.31462e-10
8.31431e-07
7.86403e-10
8.31585e-07
8.40345e-10
8.31751e-07
9.04441e-10
8.31926e-07
9.64228e-10
8.32114e-07
1.03946e-09
8.3231e-07
1.10464e-09
8.32519e-07
1.19148e-09
8.32735e-07
1.26143e-09
8.32964e-07
1.36014e-09
8.33197e-07
1.43478e-09
8.33441e-07
1.54442e-09
8.33688e-07
1.62453e-09
8.33946e-07
1.74435e-09
8.34206e-07
1.83208e-09
8.34476e-07
1.96058e-09
8.34744e-07
2.05202e-09
8.35019e-07
2.18215e-09
8.35291e-07
2.26761e-09
8.35572e-07
2.40103e-09
8.35851e-07
2.48554e-09
8.36132e-07
2.6395e-09
8.36412e-07
2.74075e-09
8.36697e-07
2.94639e-09
8.36984e-07
3.08747e-09
8.37278e-07
3.3328e-09
3.4738e-09
8.9794e-07
3.5795e-10
-8.97879e-07
8.98003e-07
3.81349e-10
8.98071e-07
4.08349e-10
8.98146e-07
4.36804e-10
8.98227e-07
4.68276e-10
8.98316e-07
5.01884e-10
8.98412e-07
5.38241e-10
8.98517e-07
5.77839e-10
8.98629e-07
6.19206e-10
8.9875e-07
6.65681e-10
8.98878e-07
7.12006e-10
8.99016e-07
7.66509e-10
8.99163e-07
8.17839e-10
8.9932e-07
8.8176e-10
8.99487e-07
9.38028e-10
8.99666e-07
1.01258e-09
8.99853e-07
1.07415e-09
9.00053e-07
1.16022e-09
9.0026e-07
1.2278e-09
9.00479e-07
1.32498e-09
9.00704e-07
1.39948e-09
9.00942e-07
1.5066e-09
9.01185e-07
1.58931e-09
9.01441e-07
1.70495e-09
9.017e-07
1.7931e-09
9.01969e-07
1.91281e-09
9.02239e-07
1.99727e-09
9.02519e-07
2.12118e-09
9.02801e-07
2.20347e-09
9.03092e-07
2.34888e-09