/*--------------------------------*- C++ -*----------------------------------*\
| =========                 |                                                 |
| \\      /  F ield         | OpenFOAM: The Open Source CFD Toolbox           |
|  \\    /   O peration     | Version:  1.4.1-dev                             |
|   \\  /    A nd           | Web:      http://www.openfoam.org               |
|    \\/     M anipulation  |                                                 |
\*---------------------------------------------------------------------------*/

FoamFile
{
    version 2.0;
    format ascii;

    root "/home/mjaworsk/OpenFOAM/mjaworsk-1.4.1-dev/run/FlatPlate-Blasius";
    case "icoHeatFoam-flatPlate2";
    instance "0.5";
    local "";

    class volVectorField;
    object U;
}

// * * * * * * * * * * * * * * * * * * * * * * * * * * * * * * * * * * * * * //

dimensions      [0 1 -1 0 0 0 0];

internalField   nonuniform List<vector> 
2475
(
(0.132191 0.00805883 0)
(0.079632 0.00527911 0)
(0.0536717 0.00186791 0)
(0.0398658 0.000631736 0)
(0.0322822 0.000267493 0)
(0.0280451 0.000142532 0)
(0.0252803 0.000103867 0)
(0.0231613 8.60235e-05 0)
(0.0214185 7.08101e-05 0)
(0.0199479 5.80038e-05 0)
(0.0186851 4.80278e-05 0)
(0.0175826 4.03088e-05 0)
(0.0166079 3.41331e-05 0)
(0.0157372 2.91597e-05 0)
(0.0149541 2.50134e-05 0)
(0.0142448 2.16237e-05 0)
(0.0135991 1.87305e-05 0)
(0.0130073 1.63827e-05 0)
(0.0124624 1.43199e-05 0)
(0.0119582 1.26689e-05 0)
(0.0114887 1.11428e-05 0)
(0.0110518 9.95725e-06 0)
(0.0106406 8.78404e-06 0)
(0.0102579 7.93385e-06 0)
(0.009892 6.99906e-06 0)
(0.00955481 6.38995e-06 0)
(0.0092238 5.61999e-06 0)
(0.00892802 5.20051e-06 0)
(0.00862251 4.51939e-06 0)
(0.00837052 4.2388e-06 0)
(0.00807751 3.62546e-06 0)
(0.00787928 3.48676e-06 0)
(0.00756735 3.05538e-06 0)
(0.00744769 2.92106e-06 0)
(0.00706225 2.90975e-06 0)
(0.182736 0.0167986 0)
(0.161605 0.0149786 0)
(0.139625 0.00823144 0)
(0.117825 0.00412644 0)
(0.0998389 0.00225236 0)
(0.0871499 0.00133804 0)
(0.0782765 0.000887616 0)
(0.0715598 0.000659131 0)
(0.0661215 0.000519789 0)
(0.0615563 0.000420333 0)
(0.0576409 0.00034559 0)
(0.0542246 0.000288356 0)
(0.051207 0.000243184 0)
(0.0485133 0.000206976 0)
(0.0460926 0.000177173 0)
(0.0439012 0.000152791 0)
(0.0419071 0.000132281 0)
(0.0400808 0.000115459 0)
(0.0383992 0.000100966 0)
(0.0368442 8.91056e-05 0)
(0.0353962 7.84927e-05 0)
(0.0340498 6.99183e-05 0)
(0.0327816 6.18536e-05 0)
(0.0316028 5.55993e-05 0)
(0.0304749 4.92606e-05 0)
(0.0294372 4.46889e-05 0)
(0.0284172 3.94933e-05 0)
(0.027509 3.61964e-05 0)
(0.0265696 3.16343e-05 0)
(0.0257979 2.94345e-05 0)
(0.024898 2.52719e-05 0)
(0.0242905 2.43545e-05 0)
(0.0233388 2.06512e-05 0)
(0.0229752 2.05975e-05 0)
(0.0218192 1.82122e-05 0)
(0.190062 0.0169415 0)
(0.189662 0.0186015 0)
(0.183565 0.0130306 0)
(0.171225 0.00855661 0)
(0.156199 0.00593924 0)
(0.14219 0.00416098 0)
(0.130364 0.00293791 0)
(0.120467 0.0021704 0)
(0.112054 0.00168699 0)
(0.104795 0.00135537 0)
(0.0984516 0.00111149 0)
(0.0928421 0.000925824 0)
(0.0878358 0.000780006 0)
(0.083332 0.000663299 0)
(0.079259 0.000567622 0)
(0.0755546 0.000489236 0)
(0.0721702 0.000423589 0)
(0.0690633 0.000369483 0)
(0.0661949 0.000323195 0)
(0.0635401 0.00028498 0)
(0.0610624 0.000251216 0)
(0.0587585 0.000223518 0)
(0.0565829 0.000197975 0)
(0.0545629 0.000177634 0)
(0.0526242 0.000157666 0)
(0.0508444 0.000142687 0)
(0.049088 0.00012634 0)
(0.0475312 0.000115354 0)
(0.0459118 0.000101038 0)
(0.0445912 9.37187e-05 0)
(0.0430381 8.05778e-05 0)
(0.0419999 7.76765e-05 0)
(0.0403628 6.49488e-05 0)
(0.0397462 6.57531e-05 0)
(0.0377847 5.52072e-05 0)
(0.190624 0.0143192 0)
(0.195458 0.0179206 0)
(0.198242 0.0144274 0)
(0.195421 0.0107554 0)
(0.18825 0.00851915 0)
(0.179374 0.00681266 0)
(0.170266 0.00534792 0)
(0.161388 0.00421665 0)
(0.152909 0.00339511 0)
(0.14494 0.00278587 0)
(0.137531 0.00231667 0)
(0.130678 0.0019479 0)
(0.12435 0.00165224 0)
(0.118511 0.00141215 0)
(0.113119 0.00121336 0)
(0.108139 0.00104894 0)
(0.103528 0.000910452 0)
(0.099257 0.000795447 0)
(0.0952797 0.000696909 0)
(0.0915808 0.000615026 0)
(0.0881059 0.000542886 0)
(0.0848675 0.000483243 0)
(0.0817905 0.000428584 0)
(0.0789335 0.000384528 0)
(0.076173 0.000341776 0)
(0.0736455 0.000309176 0)
(0.0711299 0.000274097 0)
(0.0689143 0.000249978 0)
(0.0665831 0.000219221 0)
(0.0647033 0.000203154 0)
(0.0624577 0.000174782 0)
(0.060983 0.000168471 0)
(0.0586175 0.000139959 0)
(0.0577468 0.000142285 0)
(0.054946 0.000116592 0)
(0.191781 0.0121676 0)
(0.195816 0.0160691 0)
(0.200811 0.014166 0)
(0.20254 0.0111954 0)
(0.200801 0.00940964 0)
(0.197144 0.00814917 0)
(0.192548 0.00693751 0)
(0.187305 0.00585243 0)
(0.181551 0.00497076 0)
(0.175465 0.00425829 0)
(0.16922 0.00366515 0)
(0.162959 0.00316523 0)
(0.156781 0.00274057 0)
(0.150767 0.00237997 0)
(0.144961 0.00207064 0)
(0.139411 0.0018075 0)
(0.134119 0.00158083 0)
(0.129111 0.00138918 0)
(0.124354 0.00122279 0)
(0.119876 0.00108302 0)
(0.115606 0.000959097 0)
(0.111602 0.000855895 0)
(0.107748 0.000761035 0)
(0.104163 0.000684017 0)
(0.100652 0.000609247 0)
(0.0974475 0.000551843 0)
(0.0942081 0.000490062 0)
(0.0913791 0.00044727 0)
(0.0883436 0.000392768 0)
(0.0859347 0.000364208 0)
(0.0829835 0.00031356 0)
(0.0810961 0.000302327 0)
(0.0779779 0.000250459 0)
(0.0768676 0.00025468 0)
(0.0732089 0.000206098 0)
(0.193058 0.0108198 0)
(0.195832 0.0143391 0)
(0.200361 0.0135354 0)
(0.203326 0.011073 0)
(0.20387 0.00945121 0)
(0.203001 0.00848619 0)
(0.201463 0.00758539 0)
(0.19938 0.00669943 0)
(0.19669 0.00593047 0)
(0.19342 0.00528559 0)
(0.189633 0.00472394 0)
(0.185431 0.00422227 0)
(0.180885 0.00376807 0)
(0.176105 0.00335913 0)
(0.171152 0.00298819 0)
(0.166141 0.00265737 0)
(0.161105 0.00235957 0)
(0.156155 0.0020991 0)
(0.151271 0.00186585 0)
(0.146566 0.00166584 0)
(0.141951 0.00148498 0)
(0.137569 0.00133273 0)
(0.133247 0.00119082 0)
(0.129208 0.00107493 0)
(0.125157 0.000960982 0)
(0.121472 0.000873422 0)
(0.117646 0.000777874 0)
(0.114345 0.000711955 0)
(0.110687 0.000626569 0)
(0.10785 0.000582356 0)
(0.104235 0.000502004 0)
(0.102009 0.000484604 0)
(0.0981591 0.000401421 0)
(0.0968509 0.000407755 0)
(0.0923555 0.000328222 0)
(0.19392 0.00992565 0)
(0.195979 0.012832 0)
(0.199599 0.012796 0)
(0.202595 0.0108514 0)
(0.203853 0.00927186 0)
(0.203996 0.00839886 0)
(0.203749 0.00769705 0)
(0.203292 0.00697971 0)
(0.202499 0.00632596 0)
(0.201316 0.0057784 0)
(0.199689 0.00530585 0)
(0.197654 0.00487933 0)
(0.195174 0.0044795 0)
(0.192317 0.00410507 0)
(0.189054 0.0037477 0)
(0.185508 0.00341382 0)
(0.181651 0.00309626 0)
(0.177656 0.00280625 0)
(0.173461 0.00253354 0)
(0.169283 0.00229244 0)
(0.164976 0.00206615 0)
(0.160815 0.00187268 0)
(0.156528 0.00168699 0)
(0.152502 0.00153462 0)
(0.148288 0.00138043 0)
(0.144481 0.00126252 0)
(0.140345 0.00112974 0)
(0.136846 0.0010396 0)
(0.132759 0.000918279 0)
(0.129698 0.000857329 0)
(0.125551 0.000740796 0)
(0.123131 0.000716984 0)
(0.11865 0.00059527 0)
(0.117228 0.000604142 0)
(0.111994 0.00048638 0)
(0.194423 0.00925449 0)
(0.196074 0.0115133 0)
(0.198908 0.0119396 0)
(0.201631 0.0105536 0)
(0.203112 0.00906483 0)
(0.2036 0.00818987 0)
(0.203734 0.00759077 0)
(0.203838 0.00699243 0)
(0.203822 0.00641447 0)
(0.203657 0.00592562 0)
(0.203233 0.00551694 0)
(0.202602 0.00516152 0)
(0.201642 0.00483072 0)
(0.200424 0.00452129 0)
(0.198802 0.00421865 0)
(0.196907 0.00393024 0)
(0.194577 0.0036425 0)
(0.192035 0.00337099 0)
(0.189087 0.00310046 0)
(0.186056 0.0028542 0)
(0.182663 0.00261023 0)
(0.179344 0.00239867 0)
(0.17566 0.00218572 0)
(0.172213 0.00201126 0)
(0.168326 0.00182562 0)
(0.164882 0.00168588 0)
(0.160838 0.00151925 0)
(0.157543 0.00140993 0)
(0.153348 0.00125245 0)
(0.150379 0.00117785 0)
(0.14595 0.00102191 0)
(0.143566 0.000993545 0)
(0.138667 0.000828678 0)
(0.137267 0.00084121 0)
(0.13151 0.000680767 0)
(0.194732 0.00868621 0)
(0.196102 0.0103979 0)
(0.198315 0.0110243 0)
(0.200683 0.0101573 0)
(0.202223 0.00885468 0)
(0.202898 0.00796658 0)
(0.203144 0.00740975 0)
(0.203386 0.00690079 0)
(0.203583 0.00638185 0)
(0.203775 0.00592286 0)
(0.203812 0.00554073 0)
(0.203818 0.00522342 0)
(0.203613 0.00493666 0)
(0.203349 0.00467809 0)
(0.202775 0.00442606 0)
(0.202096 0.00419108 0)
(0.201001 0.00394993 0)
(0.199802 0.00372226 0)
(0.198115 0.00348207 0)
(0.1964 0.00326142 0)
(0.194159 0.00302777 0)
(0.192031 0.00282564 0)
(0.189318 0.00260821 0)
(0.186894 0.00243407 0)
(0.183759 0.00223407 0)
(0.181146 0.00208954 0)
(0.177619 0.00190028 0)
(0.17497 0.00178409 0)
(0.171063 0.00159705 0)
(0.168569 0.00151764 0)
(0.164215 0.00132488 0)
(0.162158 0.00129711 0)
(0.157175 0.00108934 0)
(0.155974 0.0011076 0)
(0.15006 0.000905675 0)
(0.194979 0.00816759 0)
(0.196132 0.00947731 0)
(0.197866 0.0101315 0)
(0.199863 0.00967527 0)
(0.201353 0.00862874 0)
(0.202162 0.00776109 0)
(0.202473 0.00721033 0)
(0.202752 0.00676571 0)
(0.202968 0.0063049 0)
(0.203259 0.00587212 0)
(0.203409 0.00549849 0)
(0.203632 0.00519544 0)
(0.203678 0.00492724 0)
(0.203821 0.0046964 0)
(0.203707 0.0044734 0)
(0.203683 0.00427623 0)
(0.203282 0.00407116 0)
(0.202973 0.00388558 0)
(0.202163 0.00367906 0)
(0.201501 0.00349456 0)
(0.200228 0.00328344 0)
(0.199227 0.00310725 0)
(0.197491 0.00290084 0)
(0.196199 0.00274568 0)
(0.193983 0.00254775 0)
(0.19244 0.00241697 0)
(0.189708 0.00221981 0)
(0.188012 0.00211283 0)
(0.184744 0.00190827 0)
(0.183047 0.00183725 0)
(0.179158 0.00161705 0)
(0.177702 0.00159837 0)
(0.173049 0.00135468 0)
(0.172219 0.00138102 0)
(0.166635 0.001147 0)
(0.195253 0.007684 0)
(0.196227 0.00871348 0)
(0.197596 0.00931313 0)
(0.199252 0.00913828 0)
(0.20061 0.00836704 0)
(0.201501 0.00757174 0)
(0.201871 0.00701656 0)
(0.202175 0.00661019 0)
(0.20236 0.00620462 0)
(0.202674 0.00580633 0)
(0.20282 0.00544023 0)
(0.203105 0.00514263 0)
(0.203182 0.0048793 0)
(0.203458 0.00466202 0)
(0.203465 0.00445104 0)
(0.203712 0.00427539 0)
(0.203578 0.00408938 0)
(0.203722 0.00393303 0)
(0.203351 0.00374922 0)
(0.203328 0.00359568 0)
(0.202644 0.00340362 0)
(0.202438 0.00325479 0)
(0.201409 0.00306156 0)
(0.201031 0.00293178 0)
(0.199605 0.00274304 0)
(0.199045 0.00263675 0)
(0.197135 0.00244237 0)
(0.196419 0.00235684 0)
(0.193959 0.00214696 0)
(0.193169 0.00209643 0)
(0.190043 0.00186217 0)
(0.189327 0.00186181 0)
(0.185392 0.00159583 0)
(0.185018 0.00163086 0)
(0.180274 0.00138226 0)
(0.195587 0.00723602 0)
(0.196414 0.00806576 0)
(0.197504 0.00858814 0)
(0.19887 0.00858264 0)
(0.200057 0.00805984 0)
(0.200975 0.007383 0)
(0.201392 0.00683691 0)
(0.201732 0.00644872 0)
(0.201881 0.00608785 0)
(0.202195 0.00573145 0)
(0.202307 0.00537978 0)
(0.202608 0.00508813 0)
(0.202652 0.00482445 0)
(0.20296 0.00461488 0)
(0.202956 0.00440743 0)
(0.203287 0.00424423 0)
(0.203207 0.00406547 0)
(0.203533 0.00392732 0)
(0.203317 0.00375446 0)
(0.203599 0.00362265 0)
(0.203189 0.00344095 0)
(0.203411 0.00331305 0)
(0.202778 0.00312729 0)
(0.202949 0.00301891 0)
(0.202051 0.00283735 0)
(0.202153 0.0027553 0)
(0.200899 0.00256672 0)
(0.200915 0.00250557 0)
(0.199224 0.00229752 0)
(0.199179 0.00227225 0)
(0.196919 0.0020358 0)
(0.196866 0.00205882 0)
(0.19389 0.00178794 0)
(0.193912 0.00182791 0)
(0.190364 0.00158591 0)
(0.195973 0.00682519 0)
(0.196678 0.00750436 0)
(0.197552 0.00795315 0)
(0.198686 0.00803901 0)
(0.199695 0.00771275 0)
(0.200593 0.00717843 0)
(0.201043 0.00666797 0)
(0.201426 0.00629119 0)
(0.201554 0.00596077 0)
(0.201862 0.00564727 0)
(0.201942 0.00531812 0)
(0.202242 0.00503751 0)
(0.202251 0.00477302 0)
(0.202555 0.00456906 0)
(0.202515 0.00436168 0)
(0.202855 0.00420692 0)
(0.202765 0.00402958 0)
(0.203137 0.00390308 0)
(0.202963 0.00373397 0)
(0.203348 0.00361676 0)
(0.203054 0.00343919 0)
(0.203438 0.00332546 0)
(0.203005 0.00314182 0)
(0.203401 0.00304764 0)
(0.20281 0.00286852 0)
(0.203212 0.00280389 0)
(0.202405 0.00261922 0)
(0.20279 0.00257723 0)
(0.201701 0.00237265 0)
(0.202073 0.00236874 0)
(0.200592 0.00213659 0)
(0.200949 0.00218025 0)
(0.198954 0.00192098 0)
(0.199191 0.0019575 0)
(0.196905 0.00173908 0)
(0.196379 0.00644901 0)
(0.196982 0.00700967 0)
(0.197689 0.0073944 0)
(0.198637 0.00752534 0)
(0.199487 0.00734 0)
(0.20033 0.00694732 0)
(0.200797 0.00649868 0)
(0.201219 0.00613978 0)
(0.201353 0.00582876 0)
(0.201651 0.00555303 0)
(0.201716 0.00525175 0)
(0.202006 0.0049888 0)
(0.202002 0.00472643 0)
(0.202285 0.00452772 0)
(0.20223 0.0043194 0)
(0.202541 0.00417102 0)
(0.202448 0.00399296 0)
(0.202798 0.00387419 0)
(0.202653 0.00370567 0)
(0.203034 0.00359819 0)
(0.202814 0.00342242 0)
(0.203209 0.00331823 0)
(0.202901 0.00313502 0)
(0.203317 0.00304946 0)
(0.202918 0.00287031 0)
(0.203359 0.00281573 0)
(0.202843 0.00263282 0)
(0.203299 0.00260212 0)
(0.202629 0.00240015 0)
(0.203104 0.0024093 0)
(0.202206 0.00218311 0)
(0.202687 0.00223806 0)
(0.201507 0.00200221 0)
(0.201766 0.00202568 0)
(0.200516 0.00183784 0)
(0.196776 0.00610353 0)
(0.19729 0.00656884 0)
(0.197871 0.00689802 0)
(0.198665 0.00704834 0)
(0.199384 0.0069577 0)
(0.20015 0.00668837 0)
(0.200622 0.00631775 0)
(0.201067 0.00598999 0)
(0.20123 0.00569479 0)
(0.201518 0.00544891 0)
(0.20159 0.00517659 0)
(0.201859 0.00493666 0)
(0.20187 0.00468158 0)
(0.202123 0.00448907 0)
(0.202083 0.00428045 0)
(0.202348 0.00413705 0)
(0.202278 0.00395819 0)
(0.202575 0.00384449 0)
(0.202475 0.00367582 0)
(0.202798 0.00357451 0)
(0.202656 0.00340038 0)
(0.20299 0.00330286 0)
(0.202792 0.00312088 0)
(0.203135 0.00304098 0)
(0.202879 0.00286203 0)
(0.203239 0.00281271 0)
(0.202918 0.00263107 0)
(0.203293 0.00260562 0)
(0.202894 0.00240569 0)
(0.203294 0.00242031 0)
(0.202774 0.00220017 0)
(0.203187 0.00225507 0)
(0.202569 0.00204841 0)
(0.202742 0.00205294 0)
(0.202155 0.00189293 0)
(0.19715 0.00578544 0)
(0.197584 0.0061728 0)
(0.198069 0.00645351 0)
(0.198734 0.00660835 0)
(0.199348 0.00657914 0)
(0.200028 0.00640758 0)
(0.200494 0.00611847 0)
(0.200941 0.00583458 0)
(0.201145 0.00555874 0)
(0.201423 0.00533606 0)
(0.20152 0.00509036 0)
(0.201762 0.00487572 0)
(0.201807 0.00463348 0)
(0.202026 0.00444928 0)
(0.202025 0.00424224 0)
(0.202241 0.00410293 0)
(0.202215 0.0039242 0)
(0.202447 0.00381393 0)
(0.202406 0.00364556 0)
(0.202657 0.00354811 0)
(0.202592 0.00337593 0)
(0.202848 0.00328354 0)
(0.202745 0.0031039 0)
(0.203001 0.00302869 0)
(0.202852 0.00285108 0)
(0.203114 0.00280497 0)
(0.20292 0.00262515 0)
(0.203191 0.00260187 0)
(0.20295 0.00240453 0)
(0.203236 0.00241967 0)
(0.202932 0.00220669 0)
(0.203215 0.00225244 0)
(0.202924 0.00207543 0)
(0.203 0.00206112 0)
(0.202739 0.00192165 0)
(0.197496 0.00549159 0)
(0.197858 0.00581418 0)
(0.19827 0.00605249 0)
(0.198826 0.00620272 0)
(0.199358 0.00621238 0)
(0.199949 0.00611347 0)
(0.2004 0.00589963 0)
(0.200832 0.00566725 0)
(0.201077 0.00541782 0)
(0.201345 0.00521554 0)
(0.201475 0.00499286 0)
(0.201691 0.00480281 0)
(0.201775 0.00457752 0)
(0.201964 0.00440438 0)
(0.202009 0.00420161 0)
(0.202183 0.00406633 0)
(0.202205 0.00388885 0)
(0.202384 0.00378144 0)
(0.202396 0.00361403 0)
(0.202586 0.0035197 0)
(0.202582 0.0033494 0)
(0.202775 0.00326177 0)
(0.202739 0.00308488 0)
(0.202932 0.00301461 0)
(0.202852 0.00283905 0)
(0.203046 0.00279574 0)
(0.202924 0.00261847 0)
(0.203124 0.00259608 0)
(0.202966 0.00240293 0)
(0.203167 0.00241523 0)
(0.202978 0.00221213 0)
(0.203149 0.00224342 0)
(0.203018 0.00209299 0)
(0.20304 0.00206431 0)
(0.202894 0.00193883 0)
(0.197817 0.00521957 0)
(0.198114 0.00548775 0)
(0.198468 0.00568888 0)
(0.198934 0.00582909 0)
(0.199399 0.00586227 0)
(0.19991 0.00581527 0)
(0.200336 0.00566508 0)
(0.200742 0.00548543 0)
(0.201016 0.00526889 0)
(0.201278 0.00508779 0)
(0.201439 0.00488534 0)
(0.201635 0.00471742 0)
(0.201753 0.00451091 0)
(0.201921 0.00435132 0)
(0.202005 0.00415579 0)
(0.202153 0.00402548 0)
(0.202214 0.00385026 0)
(0.202357 0.00374602 0)
(0.202407 0.00358003 0)
(0.202557 0.00348933 0)
(0.202591 0.00332066 0)
(0.202747 0.00323808 0)
(0.202748 0.00306372 0)
(0.202907 0.00299905 0)
(0.202862 0.00282592 0)
(0.203024 0.00278541 0)
(0.202935 0.00261149 0)
(0.203103 0.00258905 0)
(0.202984 0.00240246 0)
(0.203137 0.00240893 0)
(0.20301 0.00221903 0)
(0.203109 0.00223398 0)
(0.203046 0.00210539 0)
(0.203054 0.00206806 0)
(0.202933 0.00195274 0)
(0.198112 0.00496641 0)
(0.198355 0.00518867 0)
(0.198659 0.00535714 0)
(0.199054 0.00548448 0)
(0.199463 0.00553065 0)
(0.199906 0.00551969 0)
(0.2003 0.00542022 0)
(0.200676 0.00528941 0)
(0.200963 0.00510939 0)
(0.201221 0.00495199 0)
(0.201405 0.00476892 0)
(0.201593 0.00462053 0)
(0.201732 0.00443273 0)
(0.20189 0.0042882 0)
(0.202 0.00410255 0)
(0.202136 0.00397901 0)
(0.202223 0.00380713 0)
(0.202349 0.00370688 0)
(0.202421 0.00354265 0)
(0.202552 0.00345652 0)
(0.202604 0.00328958 0)
(0.202741 0.00321259 0)
(0.202758 0.00304044 0)
(0.202904 0.00298176 0)
(0.202874 0.00281156 0)
(0.203025 0.00277358 0)
(0.20295 0.00260397 0)
(0.203106 0.00258035 0)
(0.203007 0.00240287 0)
(0.203136 0.00240091 0)
(0.203045 0.00222673 0)
(0.203107 0.00222592 0)
(0.203069 0.00211425 0)
(0.203083 0.00207305 0)
(0.202965 0.0019662 0)
(0.198385 0.00472858 0)
(0.19858 0.00491216 0)
(0.198843 0.00505223 0)
(0.199182 0.0051656 0)
(0.199543 0.00521785 0)
(0.199931 0.00523119 0)
(0.200291 0.00517069 0)
(0.200636 0.00508191 0)
(0.200922 0.00493861 0)
(0.201176 0.00480718 0)
(0.201374 0.00464421 0)
(0.20156 0.00451372 0)
(0.201711 0.00434364 0)
(0.201867 0.00421457 0)
(0.201993 0.00404059 0)
(0.202127 0.00392585 0)
(0.202229 0.00375882 0)
(0.202351 0.00366347 0)
(0.202433 0.00350152 0)
(0.202556 0.00342062 0)
(0.202615 0.00325595 0)
(0.202745 0.00318517 0)
(0.202769 0.00301529 0)
(0.202909 0.00296236 0)
(0.202888 0.00279592 0)
(0.203032 0.00275996 0)
(0.202969 0.00259562 0)
(0.203116 0.0025697 0)
(0.203035 0.00240329 0)
(0.203148 0.00239132 0)
(0.203082 0.00223385 0)
(0.203128 0.00221935 0)
(0.203099 0.00212043 0)
(0.203122 0.00207854 0)
(0.20301 0.00197935 0)
(0.198635 0.00450198 0)
(0.19879 0.00465362 0)
(0.199016 0.00476972 0)
(0.199314 0.00486939 0)
(0.199636 0.00492343 0)
(0.199979 0.00495255 0)
(0.200304 0.00492126 0)
(0.200619 0.00486677 0)
(0.200893 0.0047575 0)
(0.201143 0.00465275 0)
(0.201346 0.00451103 0)
(0.201533 0.0043979 0)
(0.201691 0.00424467 0)
(0.201849 0.00413067 0)
(0.201983 0.00396932 0)
(0.202121 0.00386488 0)
(0.20223 0.00370475 0)
(0.202354 0.00361532 0)
(0.202441 0.00345647 0)
(0.202563 0.00338109 0)
(0.202624 0.00321928 0)
(0.202751 0.00315523 0)
(0.20278 0.00298849 0)
(0.202915 0.00294046 0)
(0.202903 0.00277871 0)
(0.203039 0.00274442 0)
(0.202989 0.00258609 0)
(0.203127 0.00255718 0)
(0.203065 0.0024027 0)
(0.203166 0.00238058 0)
(0.203118 0.00223928 0)
(0.20316 0.0022138 0)
(0.203134 0.00212448 0)
(0.203164 0.00208393 0)
(0.203063 0.0019917 0)
(0.198864 0.00428095 0)
(0.198983 0.00440721 0)
(0.199178 0.00450398 0)
(0.199445 0.00459131 0)
(0.199734 0.00464481 0)
(0.200043 0.00468387 0)
(0.200335 0.0046742 0)
(0.200622 0.00464685 0)
(0.200878 0.00456748 0)
(0.201119 0.0044884 0)
(0.201321 0.00436874 0)
(0.201511 0.00427311 0)
(0.201671 0.00413655 0)
(0.201833 0.00403706 0)
(0.201971 0.00388874 0)
(0.202115 0.00379526 0)
(0.202227 0.003644 0)
(0.202355 0.00356194 0)
(0.202444 0.0034073 0)
(0.202567 0.00333769 0)
(0.202631 0.00317928 0)
(0.202754 0.00312186 0)
(0.202789 0.00295992 0)
(0.202919 0.00291602 0)
(0.202917 0.0027593 0)
(0.203044 0.0027267 0)
(0.203009 0.00257496 0)
(0.203136 0.00254295 0)
(0.203093 0.00240016 0)
(0.203185 0.00236908 0)
(0.203151 0.00224241 0)
(0.203194 0.00220882 0)
(0.203172 0.00212672 0)
(0.203204 0.00208885 0)
(0.203118 0.00200287 0)
(0.199074 0.00406234 0)
(0.199159 0.00416926 0)
(0.199328 0.00425131 0)
(0.199572 0.00432826 0)
(0.199836 0.00438014 0)
(0.200117 0.0044251 0)
(0.200379 0.0044313 0)
(0.20064 0.0044249 0)
(0.200874 0.00437093 0)
(0.201104 0.00431518 0)
(0.201301 0.0042174 0)
(0.20149 0.00413942 0)
(0.20165 0.00401973 0)
(0.201815 0.00393452 0)
(0.201955 0.00379935 0)
(0.202104 0.00371693 0)
(0.202219 0.00357568 0)
(0.20235 0.00350265 0)
(0.202441 0.0033538 0)
(0.202565 0.00329022 0)
(0.202631 0.00313614 0)
(0.202752 0.00308445 0)
(0.202793 0.00292888 0)
(0.202917 0.0028893 0)
(0.202927 0.00273739 0)
(0.203044 0.00270628 0)
(0.203025 0.00256166 0)
(0.203141 0.00252708 0)
(0.203118 0.00239474 0)
(0.203201 0.00235675 0)
(0.203181 0.00224278 0)
(0.203225 0.00220394 0)
(0.203208 0.00212737 0)
(0.203241 0.00209304 0)
(0.20317 0.00201261 0)
(0.199266 0.00384637 0)
(0.19932 0.00393894 0)
(0.199465 0.00401037 0)
(0.199691 0.00407894 0)
(0.199936 0.00412872 0)
(0.200196 0.00417653 0)
(0.200432 0.00419394 0)
(0.200669 0.00420325 0)
(0.20088 0.00417015 0)
(0.201096 0.00413476 0)
(0.201283 0.00405752 0)
(0.20147 0.00399697 0)
(0.201627 0.0038942 0)
(0.201794 0.0038235 0)
(0.201934 0.00370161 0)
(0.202088 0.00363016 0)
(0.202204 0.00349928 0)
(0.202338 0.00343626 0)
(0.20243 0.00329539 0)
(0.202555 0.00323822 0)
(0.202623 0.0030898 0)
(0.202743 0.00304315 0)
(0.20279 0.00289417 0)
(0.202908 0.00286016 0)
(0.202929 0.00271336 0)
(0.203037 0.00268299 0)
(0.203034 0.00254562 0)
(0.20314 0.00250976 0)
(0.203135 0.002386 0)
(0.203211 0.00234335 0)
(0.203204 0.00224007 0)
(0.203249 0.00219849 0)
(0.203239 0.00212629 0)
(0.20327 0.00209616 0)
(0.203216 0.00202078 0)
(0.199442 0.00363249 0)
(0.199466 0.00371499 0)
(0.19959 0.00377945 0)
(0.199801 0.00384191 0)
(0.200031 0.0038896 0)
(0.200275 0.00393834 0)
(0.200489 0.00396321 0)
(0.200703 0.00398404 0)
(0.200892 0.00396763 0)
(0.201092 0.00394968 0)
(0.201266 0.00389096 0)
(0.20145 0.00384697 0)
(0.201601 0.00376075 0)
(0.201768 0.00370461 0)
(0.201906 0.00359645 0)
(0.202064 0.00353576 0)
(0.202181 0.00341517 0)
(0.202318 0.00336196 0)
(0.202409 0.00323088 0)
(0.202534 0.00318115 0)
(0.202605 0.00303938 0)
(0.202723 0.00299824 0)
(0.202777 0.00285485 0)
(0.202889 0.00282687 0)
(0.202921 0.00268715 0)
(0.203021 0.00265707 0)
(0.203034 0.00252608 0)
(0.203129 0.00249078 0)
(0.203141 0.00237407 0)
(0.20321 0.00232879 0)
(0.203217 0.00223451 0)
(0.203262 0.00219227 0)
(0.20326 0.00212362 0)
(0.20329 0.00209776 0)
(0.203251 0.00202714 0)
(0.199605 0.00341951 0)
(0.199601 0.00349549 0)
(0.199705 0.00355601 0)
(0.199902 0.00361469 0)
(0.200119 0.00366074 0)
(0.20035 0.00370938 0)
(0.200546 0.00373885 0)
(0.200741 0.00376787 0)
(0.200908 0.00376465 0)
(0.201091 0.00376142 0)
(0.201251 0.00371929 0)
(0.201428 0.0036905 0)
(0.201573 0.00362026 0)
(0.201737 0.00357835 0)
(0.201871 0.00348451 0)
(0.202031 0.00343485 0)
(0.202149 0.00332432 0)
(0.202288 0.00328036 0)
(0.202378 0.00315938 0)
(0.202502 0.00311873 0)
(0.202575 0.00298441 0)
(0.202691 0.00294963 0)
(0.202753 0.00281162 0)
(0.202861 0.00278754 0)
(0.202901 0.00265705 0)
(0.202993 0.00262866 0)
(0.203022 0.00250243 0)
(0.203108 0.00246845 0)
(0.203136 0.00235847 0)
(0.203199 0.00231225 0)
(0.203219 0.0022257 0)
(0.203262 0.00218459 0)
(0.20327 0.00211949 0)
(0.203297 0.00209797 0)
(0.203273 0.00203163 0)
(0.199755 0.00320909 0)
(0.199727 0.00328078 0)
(0.199811 0.00333948 0)
(0.199994 0.00339617 0)
(0.2002 0.00344128 0)
(0.200419 0.00348912 0)
(0.200601 0.00352119 0)
(0.200779 0.00355541 0)
(0.200926 0.00356249 0)
(0.201091 0.00357135 0)
(0.201237 0.00354412 0)
(0.201404 0.00352908 0)
(0.201542 0.00347382 0)
(0.201701 0.00344564 0)
(0.20183 0.00336613 0)
(0.201989 0.00332849 0)
(0.202107 0.00322795 0)
(0.202247 0.00319279 0)
(0.202337 0.00308137 0)
(0.202459 0.00305046 0)
(0.202533 0.00292539 0)
(0.202647 0.002897 0)
(0.202715 0.00276605 0)
(0.202821 0.00274313 0)
(0.20287 0.00262127 0)
(0.202954 0.00259767 0)
(0.202997 0.00247604 0)
(0.203076 0.0024418 0)
(0.203118 0.0023384 0)
(0.203174 0.00229341 0)
(0.203207 0.00221298 0)
(0.203248 0.00217429 0)
(0.203267 0.00211282 0)
(0.203292 0.00209591 0)
(0.203281 0.00203394 0)
(0.199895 0.00300334 0)
(0.199845 0.0030717 0)
(0.19991 0.00312985 0)
(0.200078 0.0031857 0)
(0.200273 0.00323069 0)
(0.200481 0.00327752 0)
(0.200651 0.00331084 0)
(0.200814 0.00334795 0)
(0.200944 0.00336257 0)
(0.201092 0.00338131 0)
(0.201222 0.00336702 0)
(0.201379 0.00336484 0)
(0.201508 0.0033231 0)
(0.201661 0.00330821 0)
(0.201785 0.00324239 0)
(0.201938 0.00321751 0)
(0.202055 0.00312786 0)
(0.202195 0.00310096 0)
(0.202286 0.00299908 0)
(0.202405 0.00297694 0)
(0.202481 0.00286317 0)
(0.202592 0.00284148 0)
(0.202665 0.00271908 0)
(0.202769 0.00269762 0)
(0.202828 0.00258099 0)
(0.202904 0.00256374 0)
(0.202958 0.00244975 0)
(0.203031 0.00241358 0)
(0.203087 0.00231446 0)
(0.203137 0.00227361 0)
(0.203182 0.00219801 0)
(0.203221 0.00216239 0)
(0.20325 0.00210433 0)
(0.203273 0.00209237 0)
(0.203275 0.0020338 0)
(0.200025 0.0028002 0)
(0.199957 0.00286529 0)
(0.200005 0.00292299 0)
(0.200157 0.00297875 0)
(0.200338 0.00302393 0)
(0.200535 0.00307002 0)
(0.200694 0.00310334 0)
(0.200845 0.00314176 0)
(0.200961 0.00316095 0)
(0.201093 0.00318741 0)
(0.201209 0.00318363 0)
(0.201353 0.00319328 0)
(0.201473 0.00316386 0)
(0.201618 0.00316137 0)
(0.201735 0.00310892 0)
(0.201882 0.0030966 0)
(0.201996 0.00301966 0)
(0.202133 0.00300138 0)
(0.202226 0.00290954 0)
(0.202342 0.00289582 0)
(0.20242 0.00279363 0)
(0.202525 0.0027805 0)
(0.202603 0.00266715 0)
(0.202703 0.00264988 0)
(0.202774 0.00253735 0)
(0.202845 0.00252405 0)
(0.202906 0.00242141 0)
(0.202973 0.00238572 0)
(0.203042 0.00228748 0)
(0.203089 0.0022525 0)
(0.203144 0.00218181 0)
(0.20318 0.00215036 0)
(0.20322 0.00209454 0)
(0.203241 0.00208905 0)
(0.203255 0.00203297 0)
(0.200143 0.00260756 0)
(0.200062 0.00266897 0)
(0.200095 0.00272598 0)
(0.200231 0.0027819 0)
(0.200396 0.00282737 0)
(0.200579 0.00287289 0)
(0.200728 0.00290562 0)
(0.200868 0.00294384 0)
(0.200974 0.00296496 0)
(0.201093 0.00299557 0)
(0.201196 0.002999 0)
(0.201326 0.00301705 0)
(0.201438 0.00299786 0)
(0.201573 0.00300501 0)
(0.201683 0.0029643 0)
(0.201821 0.00296264 0)
(0.201931 0.0028982 0)
(0.202063 0.0028892 0)
(0.202158 0.0028074 0)
(0.202271 0.00280189 0)
(0.202351 0.0027106 0)
(0.20245 0.00270595 0)
(0.20253 0.00260336 0)
(0.202626 0.00259101 0)
(0.202707 0.00248609 0)
(0.202776 0.00247353 0)
(0.202843 0.0023816 0)
(0.202901 0.00235104 0)
(0.202984 0.00225465 0)
(0.203028 0.00222365 0)
(0.203092 0.00215935 0)
(0.203124 0.00213335 0)
(0.203177 0.00208062 0)
(0.203196 0.0020801 0)
(0.203223 0.00202825 0)
(0.200376 0.00220412 0)
(0.200287 0.00225803 0)
(0.200295 0.00231375 0)
(0.200389 0.00236997 0)
(0.200516 0.00241799 0)
(0.200661 0.00246439 0)
(0.200782 0.00249899 0)
(0.200896 0.00253726 0)
(0.200981 0.00256125 0)
(0.201072 0.00259509 0)
(0.20115 0.00260724 0)
(0.201249 0.00263512 0)
(0.20134 0.00263104 0)
(0.201451 0.00265235 0)
(0.201546 0.00263048 0)
(0.20166 0.00264575 0)
(0.201759 0.00260401 0)
(0.201876 0.00261298 0)
(0.201975 0.00255429 0)
(0.202079 0.0025626 0)
(0.202165 0.00249495 0)
(0.20225 0.00250235 0)
(0.202334 0.0024267 0)
(0.20242 0.00242535 0)
(0.202518 0.00234371 0)
(0.202586 0.00233511 0)
(0.202667 0.00225828 0)
(0.202706 0.00223891 0)
(0.202808 0.00215899 0)
(0.202855 0.00213363 0)
(0.202935 0.00207901 0)
(0.202959 0.00206997 0)
(0.203038 0.00202672 0)
(0.203054 0.00203829 0)
(0.203111 0.00199668 0)
(0.200501 0.00172695 0)
(0.200482 0.00176982 0)
(0.200501 0.00181843 0)
(0.200555 0.00186866 0)
(0.200623 0.00191443 0)
(0.200702 0.00195837 0)
(0.200774 0.00199342 0)
(0.200847 0.00203078 0)
(0.200908 0.00205734 0)
(0.200973 0.00209326 0)
(0.201033 0.00211342 0)
(0.201104 0.00214958 0)
(0.201175 0.00216077 0)
(0.201255 0.00219551 0)
(0.201333 0.00219451 0)
(0.201416 0.00222669 0)
(0.201499 0.00221197 0)
(0.201587 0.00224008 0)
(0.201678 0.00221169 0)
(0.201765 0.00223519 0)
(0.201852 0.00219764 0)
(0.201923 0.00221763 0)
(0.202007 0.00217479 0)
(0.202075 0.00218748 0)
(0.202178 0.00213566 0)
(0.20224 0.0021355 0)
(0.202336 0.00207691 0)
(0.202367 0.00207017 0)
(0.202473 0.00201171 0)
(0.202518 0.00199994 0)
(0.202619 0.00195342 0)
(0.202637 0.00196635 0)
(0.202738 0.00193617 0)
(0.202755 0.00196149 0)
(0.202847 0.00193199 0)
(0.200536 0.00146055 0)
(0.200563 0.00149226 0)
(0.200592 0.00152802 0)
(0.200622 0.00156456 0)
(0.200654 0.00159984 0)
(0.200687 0.00163487 0)
(0.200725 0.00166519 0)
(0.200765 0.00169821 0)
(0.20081 0.00172372 0)
(0.200856 0.00175733 0)
(0.200907 0.0017787 0)
(0.200958 0.0018142 0)
(0.201016 0.00182966 0)
(0.201071 0.00186596 0)
(0.201134 0.00187297 0)
(0.201192 0.00190905 0)
(0.201262 0.00190677 0)
(0.201324 0.00194135 0)
(0.201403 0.00192951 0)
(0.201467 0.00196015 0)
(0.201551 0.0019405 0)
(0.201607 0.00196683 0)
(0.201692 0.00194313 0)
(0.201743 0.00196351 0)
(0.201843 0.00193221 0)
(0.201892 0.00193953 0)
(0.201995 0.00189698 0)
(0.202026 0.00189676 0)
(0.202132 0.00185286 0)
(0.202166 0.00185351 0)
(0.202281 0.00181576 0)
(0.202297 0.00184003 0)
(0.202413 0.00182044 0)
(0.202426 0.00185489 0)
(0.202546 0.00183267 0)
(0.200508 0.00126646 0)
(0.200543 0.00128835 0)
(0.200571 0.00131287 0)
(0.200589 0.00133692 0)
(0.200607 0.00136197 0)
(0.200622 0.0013874 0)
(0.200645 0.00141167 0)
(0.200668 0.00143852 0)
(0.200703 0.00146098 0)
(0.200734 0.00148966 0)
(0.200777 0.00150923 0)
(0.200812 0.00154 0)
(0.20086 0.00155516 0)
(0.200897 0.00158772 0)
(0.20095 0.00159713 0)
(0.20099 0.0016311 0)
(0.20105 0.00163443 0)
(0.201092 0.00166889 0)
(0.201161 0.00166633 0)
(0.201206 0.00169895 0)
(0.201283 0.00169136 0)
(0.201325 0.00172029 0)
(0.201408 0.00170959 0)
(0.201446 0.00173311 0)
(0.20154 0.00171656 0)
(0.201576 0.00172961 0)
(0.201679 0.00170149 0)
(0.201707 0.00170698 0)
(0.201814 0.00167375 0)
(0.201838 0.00168396 0)
(0.201958 0.0016565 0)
(0.201972 0.00168753 0)
(0.202097 0.00167625 0)
(0.202106 0.0017158 0)
(0.202243 0.00169989 0)
(0.200442 0.00108765 0)
(0.200467 0.00110346 0)
(0.200491 0.00112168 0)
(0.200503 0.00113867 0)
(0.200519 0.00115771 0)
(0.200529 0.0011768 0)
(0.200549 0.00119647 0)
(0.200565 0.00121797 0)
(0.200594 0.00123716 0)
(0.200615 0.00126095 0)
(0.20065 0.00127821 0)
(0.200674 0.00130428 0)
(0.200714 0.00131843 0)
(0.20074 0.00134689 0)
(0.200786 0.00135718 0)
(0.200813 0.00138791 0)
(0.200865 0.00139418 0)
(0.200894 0.00142641 0)
(0.200955 0.00142921 0)