# vtk DataFile Version 2.0
inlet
ASCII
DATASET POLYDATA
POINTS 182 float
-0.02 0.02 0 -0.02 0.02 0.001 -0.02 0.0207299 0.001 -0.02 0.0207299
0 -0.02 0.021488 0.001 -0.02 0.021488 0 -0.02 0.0222754 0.001
-0.02 0.0222754 0 -0.02 0.0230932 0.001 -0.02 0.0230932 0 -0.02
0.0239425 0.001 -0.02 0.0239425 0 -0.02 0.0248247 0.001 -0.02 0.0248247
0 -0.02 0.0257409 0.001 -0.02 0.0257409 0 -0.02 0.0266925 0.001
-0.02 0.0266925 0 -0.02 0.0276808 0.001 -0.02 0.0276808 0 -0.02
0.0287073 0.001 -0.02 0.0287073 0 -0.02 0.0297734 0.001 -0.02 0.0297734
0 -0.02 0.0308807 0.001 -0.02 0.0308807 0 -0.02 0.0320307 0.001
-0.02 0.0320307 0 -0.02 0.0332251 0.001 -0.02 0.0332251 0 -0.02
0.0344656 0.001 -0.02 0.0344656 0 -0.02 0.0357541 0.001 -0.02 0.0357541
0 -0.02 0.0370923 0.001 -0.02 0.0370923 0 -0.02 0.0384821 0.001
-0.02 0.0384821 0 -0.02 0.0399257 0.001 -0.02 0.0399257 0 -0.02
0.0414249 0.001 -0.02 0.0414249 0 -0.02 0.042982 0.001 -0.02 0.042982
0 -0.02 0.0445993 0.001 -0.02 0.0445993 0 -0.02 0.046279 0.001
-0.02 0.046279 0 -0.02 0.0480236 0.001 -0.02 0.0480236 0 -0.02
0.0498355 0.001 -0.02 0.0498355 0 -0.02 0.0517173 0.001 -0.02 0.0517173
0 -0.02 0.0536719 0.001 -0.02 0.0536719 0 -0.02 0.0557019 0.001
-0.02 0.0557019 0 -0.02 0.0578102 0.001 -0.02 0.0578102 0 -0.02
0.06 0.001 -0.02 0.06 0 -0.02 0 0 -0.02 0
0.001 -0.02 8.46956e-05 0.001 -0.02 8.46956e-05 0 -0.02 0.000172762 0.001
-0.02 0.000172762 0 -0.02 0.000264333 0.001 -0.02 0.000264333 0 -0.02
0.000359549 0.001 -0.02 0.000359549 0 -0.02 0.000458554 0.001 -0.02 0.000458554
0 -0.02 0.0005615 0.001 -0.02 0.0005615 0 -0.02 0.000668542 0.001
-0.02 0.000668542 0 -0.02 0.000779845 0.001 -0.02 0.000779845 0 -0.02
0.000895577 0.001 -0.02 0.000895577 0 -0.02 0.00101591 0.001 -0.02 0.00101591
0 -0.02 0.00114104 0.001 -0.02 0.00114104 0 -0.02 0.00127115 0.001
-0.02 0.00127115 0 -0.02 0.00140644 0.001 -0.02 0.00140644 0 -0.02
0.0015471 0.001 -0.02 0.0015471 0 -0.02 0.00169337 0.001 -0.02 0.00169337
0 -0.02 0.00184546 0.001 -0.02 0.00184546 0 -0.02 0.0020036 0.001
-0.02 0.0020036 0 -0.02 0.00216804 0.001 -0.02 0.00216804 0 -0.02
0.00233902 0.001 -0.02 0.00233902 0 -0.02 0.00251681 0.001 -0.02 0.00251681
0 -0.02 0.00270167 0.001 -0.02 0.00270167 0 -0.02 0.00289388 0.001
-0.02 0.00289388 0 -0.02 0.00309375 0.001 -0.02 0.00309375 0 -0.02
0.00330157 0.001 -0.02 0.00330157 0 -0.02 0.00351767 0.001 -0.02 0.00351767
0 -0.02 0.00374236 0.001 -0.02 0.00374236 0 -0.02 0.00397599 0.001
-0.02 0.00397599 0 -0.02 0.00421893 0.001 -0.02 0.00421893 0 -0.02
0.00447153 0.001 -0.02 0.00447153 0 -0.02 0.00473419 0.001 -0.02 0.00473419
0 -0.02 0.0050073 0.001 -0.02 0.0050073 0 -0.02 0.00529127 0.001
-0.02 0.00529127 0 -0.02 0.00558655 0.001 -0.02 0.00558655 0 -0.02
0.00589359 0.001 -0.02 0.00589359 0 -0.02 0.00621284 0.001 -0.02 0.00621284
0 -0.02 0.00654479 0.001 -0.02 0.00654479 0 -0.02 0.00688996 0.001
-0.02 0.00688996 0 -0.02 0.00724887 0.001 -0.02 0.00724887 0 -0.02
0.00762206 0.001 -0.02 0.00762206 0 -0.02 0.0080101 0.001 -0.02 0.0080101
0 -0.02 0.00841358 0.001 -0.02 0.00841358 0 -0.02 0.00883312 0.001
-0.02 0.00883312 0 -0.02 0.00926936 0.001 -0.02 0.00926936 0 -0.02
0.00972297 0.001 -0.02 0.00972297 0 -0.02 0.0101946 0.001 -0.02 0.0101946
0 -0.02 0.010685 0.001 -0.02 0.010685 0 -0.02 0.011195 0.001
-0.02 0.011195 0 -0.02 0.0117252 0.001 -0.02 0.0117252 0 -0.02
0.0122766 0.001 -0.02 0.0122766 0 -0.02 0.0128499 0.001 -0.02 0.0128499
0 -0.02 0.013446 0.001 -0.02 0.013446 0 -0.02 0.0140658 0.001
-0.02 0.0140658 0 -0.02 0.0147103 0.001 -0.02 0.0147103 0 -0.02
0.0153804 0.001 -0.02 0.0153804 0 -0.02 0.0160772 0.001 -0.02 0.0160772
0 -0.02 0.0168018 0.001 -0.02 0.0168018 0 -0.02 0.0175551 0.001
-0.02 0.0175551 0 -0.02 0.0183385 0.001 -0.02 0.0183385 0 -0.02
0.019153 0.001 -0.02 0.019153 0 
POLYGONS 90 450
4 0 1 2 3 4 3 2 4 5 4
5 4 6 7 4 7 6 8 9 4
9 8 10 11 4 11 10 12 13 4
13 12 14 15 4 15 14 16 17 4
17 16 18 19 4 19 18 20 21 4
21 20 22 23 4 23 22 24 25 4
25 24 26 27 4 27 26 28 29 4
29 28 30 31 4 31 30 32 33 4
33 32 34 35 4 35 34 36 37 4
37 36 38 39 4 39 38 40 41 4
41 40 42 43 4 43 42 44 45 4
45 44 46 47 4 47 46 48 49 4
49 48 50 51 4 51 50 52 53 4
53 52 54 55 4 55 54 56 57 4
57 56 58 59 4 59 58 60 61 4
62 63 64 65 4 65 64 66 67 4
67 66 68 69 4 69 68 70 71 4
71 70 72 73 4 73 72 74 75 4
75 74 76 77 4 77 76 78 79 4
79 78 80 81 4 81 80 82 83 4
83 82 84 85 4 85 84 86 87 4
87 86 88 89 4 89 88 90 91 4
91 90 92 93 4 93 92 94 95 4
95 94 96 97 4 97 96 98 99 4
99 98 100 101 4 101 100 102 103 4
103 102 104 105 4 105 104 106 107 4
107 106 108 109 4 109 108 110 111 4
111 110 112 113 4 113 112 114 115 4
115 114 116 117 4 117 116 118 119 4
119 118 120 121 4 121 120 122 123 4
123 122 124 125 4 125 124 126 127 4
127 126 128 129 4 129 128 130 131 4
131 130 132 133 4 133 132 134 135 4
135 134 136 137 4 137 136 138 139 4
139 138 140 141 4 141 140 142 143 4
143 142 144 145 4 145 144 146 147 4
147 146 148 149 4 149 148 150 151 4
151 150 152 153 4 153 152 154 155 4
155 154 156 157 4 157 156 158 159 4
159 158 160 161 4 161 160 162 163 4
163 162 164 165 4 165 164 166 167 4
167 166 168 169 4 169 168 170 171 4
171 170 172 173 4 173 172 174 175 4
175 174 176 177 4 177 176 178 179 4
179 178 180 181 4 181 180 1 0 
CELL_DATA 90
FIELD attributes 3
patchID 1 90 float
1 1 1 1 1 1 1 1 1 1 1
1 1 1 1 1 1 1 1 1 1
1 1 1 1 1 1 1 1 1 1
1 1 1 1 1 1 1 1 1 1
1 1 1 1 1 1 1 1 1 1
1 1 1 1 1 1 1 1 1 1
1 1 1 1 1 1 1 1 1 1
1 1 1 1 1 1 1 1 1 1
1 1 1 1 1 1 1 1 1 
p 1 90 float
0.00339401 0.00335345 0.0033123 0.00327067 0.00322866 0.00318635 0.00314387 0.00310131 0.0030588 0.00301647 0.00297443
0.00293283 0.00289178 0.00285143 0.00281191 0.00277336 0.00273593 0.00269977 0.00266504 0.0026319 0.00260053
0.00257111 0.00254384 0.00251894 0.00249664 0.00247719 0.00246089 0.00244806 0.00243907 0.00243433 0.00429795
0.00429825 0.00429895 0.0042997 0.00430056 0.00430167 0.00430305 0.00430474 0.00430674 0.00430903 0.00431158
0.00431427 0.00431696 0.00431944 0.00432151 0.00432296 0.00432363 0.00432344 0.00432236 0.00432043 0.00431773
0.00431435 0.00431037 0.00430581 0.00430067 0.00429495 0.0042886 0.00428159 0.00427388 0.00426542 0.00425616
0.00424606 0.00423505 0.00422309 0.00421012 0.00419608 0.00418092 0.00416457 0.00414699 0.0041281 0.00410787
0.00408623 0.00406314 0.00403856 0.00401244 0.00398476 0.00395549 0.00392462 0.00389213 0.00385803 0.00382234
0.00378508 0.0037463 0.00370603 0.00366436 0.00362135 0.00357709 0.00353169 0.00348527 0.00343793 
U 3 90 float
0.5 0 0 0.5 0 0 0.5 0 0 0.5 0
0 0.5 0 0 0.5 0 0 0.5 0 0
0.5 0 0 0.5 0 0 0.5 0 0 0.5
0 0 0.5 0 0 0.5 0 0 0.5 0
0 0.5 0 0 0.5 0 0 0.5 0 0
0.5 0 0 0.5 0 0 0.5 0 0 0.5
0 0 0.5 0 0 0.5 0 0 0.5 0
0 0.5 0 0 0.5 0 0 0.5 0 0
0.5 0 0 0.5 0 0 0.5 0 0 0.5
0 0 0.5 0 0 0.5 0 0 0.5 0
0 0.5 0 0 0.5 0 0 0.5 0 0
0.5 0 0 0.5 0 0 0.5 0 0 0.5
0 0 0.5 0 0 0.5 0 0 0.5 0
0 0.5 0 0 0.5 0 0 0.5 0 0
0.5 0 0 0.5 0 0 0.5 0 0 0.5
0 0 0.5 0 0 0.5 0 0 0.5 0
0 0.5 0 0 0.5 0 0 0.5 0 0
0.5 0 0 0.5 0 0 0.5 0 0 0.5
0 0 0.5 0 0 0.5 0 0 0.5 0
0 0.5 0 0 0.5 0 0 0.5 0 0
0.5 0 0 0.5 0 0 0.5 0 0 0.5
0 0 0.5 0 0 0.5 0 0 0.5 0
0 0.5 0 0 0.5 0 0 0.5 0 0
0.5 0 0 0.5 0 0 0.5 0 0 0.5
0 0 0.5 0 0 0.5 0 0 0.5 0
0 0.5 0 0 0.5 0 0 0.5 0 0
0.5 0 0 0.5 0 0 0.5 0 0 
POINT_DATA  182
FIELD attributes 2
p 1 182 float
0.00341535 0.00341535 0.00337387 0.00337387 0.00333302 0.00333302 0.00329164 0.00329164 0.00324983 0.00324983 0.00320768
0.00320768 0.00316529 0.00316529 0.00312278 0.00312278 0.00308025 0.00308025 0.00303784 0.00303784 0.00299566
0.00299566 0.00295384 0.00295384 0.00291252 0.00291252 0.00287183 0.00287183 0.00283189 0.00283189 0.00279286
0.00279286 0.00275487 0.00275487 0.00271807 0.00271807 0.00268262 0.00268262 0.00264868 0.00264868 0.00261642
0.00261642 0.00258602 0.00258602 0.00255767 0.00255767 0.00253157 0.00253157 0.00250795 0.00250795 0.00248706
0.00248706 0.00246916 0.00246916 0.00245457 0.00245457 0.00244363 0.00244363 0.00243673 0.00243673 0.00243433
0.00243433 0.00429795 0.00429795 0.0042981 0.0042981 0.0042986 0.0042986 0.00429932 0.00429932 0.00430013
0.00430013 0.00430112 0.00430112 0.00430236 0.00430236 0.0043039 0.0043039 0.00430574 0.00430574 0.00430789
0.00430789 0.00431031 0.00431031 0.00431292 0.00431292 0.00431561 0.00431561 0.0043182 0.0043182 0.00432048
0.00432048 0.00432224 0.00432224 0.0043233 0.0043233 0.00432354 0.00432354 0.0043229 0.0043229 0.00432139
0.00432139 0.00431908 0.00431908 0.00431604 0.00431604 0.00431236 0.00431236 0.00430809 0.00430809 0.00430324
0.00430324 0.00429781 0.00429781 0.00429177 0.00429177 0.0042851 0.0042851 0.00427774 0.00427774 0.00426965
0.00426965 0.0042608 0.0042608 0.00425112 0.00425112 0.00424056 0.00424056 0.00422908 0.00422908 0.00421662
0.00421662 0.00420312 0.00420312 0.00418852 0.00418852 0.00417276 0.00417276 0.0041558 0.0041558 0.00413757
0.00413757 0.00411801 0.00411801 0.00409708 0.00409708 0.00407472 0.00407472 0.00405089 0.00405089 0.00402555
0.00402555 0.00399865 0.00399865 0.00397018 0.00397018 0.00394012 0.00394012 0.00390844 0.00390844 0.00387516
0.00387516 0.00384027 0.00384027 0.00380381 0.00380381 0.0037658 0.0037658 0.00372628 0.00372628 0.00368532
0.00368532 0.00364299 0.00364299 0.00359937 0.00359937 0.00355456 0.00355456 0.00350866 0.00350866 0.00346179
0.00346179 
U 3 182 float
0.5 0 0 0.5 0 0 0.5 0 0 0.5 0
0 0.5 0 0 0.5 0 0 0.5 0 0
0.5 0 0 0.5 0 0 0.5 0 0 0.5
0 0 0.5 0 0 0.5 0 0 0.5 0
0 0.5 0 0 0.5 0 0 0.5 0 0
0.5 0 0 0.5 0 0 0.5 0 0 0.5
0 0 0.5 0 0 0.5 0 0 0.5 0
0 0.5 0 0 0.5 0 0 0.5 0 0
0.5 0 0 0.5 0 0 0.5 0 0 0.5
0 0 0.5 0 0 0.5 0 0 0.5 0
0 0.5 0 0 0.5 0 0 0.5 0 0
0.5 0 0 0.5 0 0 0.5 0 0 0.5
0 0 0.5 0 0 0.5 0 0 0.5 0
0 0.5 0 0 0.5 0 0 0.5 0 0
0.5 0 0 0.5 0 0 0.5 0 0 0.5
0 0 0.5 0 0 0.5 0 0 0.5 0
0 0.5 0 0 0.5 0 0 0.5 0 0
0.5 0 0 0.5 0 0 0.5 0 0 0.5
0 0 0.5 0 0 0.5 0 0 0.5 0
0 0.5 0 0 0.5 0 0 0.5 0 0
0.5 0 0 0.5 0 0 0.5 0 0 0.5
0 0 0.5 0 0 0.5 0 0 0.5 0
0 0.5 0 0 0.5 0 0 0.5 0 0
0.5 0 0 0.5 0 0 0.5 0 0 0.5
0 0 0.5 0 0 0.5 0 0 0.5 0
0 0.5 0 0 0.5 0 0 0.5 0 0
0.5 0 0 0.5 0 0 0.5 0 0 0.5
0 0 0.5 0 0 0.5 0 0 0.5 0
0 0.5 0 0 0.5 0 0 0.5 0 0
0.5 0 0 0.5 0 0 0.5 0 0 0.5
0 0 0.5 0 0 0.5 0 0 0.5 0
0 0.5 0 0 0.5 0 0 0.5 0 0
0.5 0 0 0.5 0 0 0.5 0 0 0.5
0 0 0.5 0 0 0.5 0 0 0.5 0
0 0.5 0 0 0.5 0 0 0.5 0 0
0.5 0 0 0.5 0 0 0.5 0 0 0.5
0 0 0.5 0 0 0.5 0 0 0.5 0
0 0.5 0 0 0.5 0 0 0.5 0 0
0.5 0 0 0.5 0 0 0.5 0 0 0.5
0 0 0.5 0 0 0.5 0 0 0.5 0
0 0.5 0 0 0.5 0 0 0.5 0 0
0.5 0 0 0.5 0 0 0.5 0 0 0.5
0 0 0.5 0 0 0.5 0 0 0.5 0
0 0.5 0 0 0.5 0 0 0.5 0 0
0.5 0 0 0.5 0 0 0.5 0 0 0.5
0 0 0.5 0 0 0.5 0 0 0.5 0
0 0.5 0 0 0.5 0 0 0.5 0 0
0.5 0 0 0.5 0 0 0.5 0 0 0.5
0 0 0.5 0 0 0.5 0 0 0.5 0
0 0.5 0 0 0.5 0 0 0.5 0 0
0.5 0 0 0.5 0 0 0.5 0 0 0.5
0 0 0.5 0 0 0.5 0 0 0.5 0
0 0.5 0 0 0.5 0 0 0.5 0 0
0.5 0 0 0.5 0 0 0.5 0 0 0.5
0 0 0.5 0 0 
