# vtk DataFile Version 2.0
inlet
ASCII
DATASET POLYDATA
POINTS 182 float
-0.02 0.02 0 -0.02 0.02 0.001 -0.02 0.0207299 0.001 -0.02 0.0207299
0 -0.02 0.021488 0.001 -0.02 0.021488 0 -0.02 0.0222754 0.001
-0.02 0.0222754 0 -0.02 0.0230932 0.001 -0.02 0.0230932 0 -0.02
0.0239425 0.001 -0.02 0.0239425 0 -0.02 0.0248247 0.001 -0.02 0.0248247
0 -0.02 0.0257409 0.001 -0.02 0.0257409 0 -0.02 0.0266925 0.001
-0.02 0.0266925 0 -0.02 0.0276808 0.001 -0.02 0.0276808 0 -0.02
0.0287073 0.001 -0.02 0.0287073 0 -0.02 0.0297734 0.001 -0.02 0.0297734
0 -0.02 0.0308807 0.001 -0.02 0.0308807 0 -0.02 0.0320307 0.001
-0.02 0.0320307 0 -0.02 0.0332251 0.001 -0.02 0.0332251 0 -0.02
0.0344656 0.001 -0.02 0.0344656 0 -0.02 0.0357541 0.001 -0.02 0.0357541
0 -0.02 0.0370923 0.001 -0.02 0.0370923 0 -0.02 0.0384821 0.001
-0.02 0.0384821 0 -0.02 0.0399257 0.001 -0.02 0.0399257 0 -0.02
0.0414249 0.001 -0.02 0.0414249 0 -0.02 0.042982 0.001 -0.02 0.042982
0 -0.02 0.0445993 0.001 -0.02 0.0445993 0 -0.02 0.046279 0.001
-0.02 0.046279 0 -0.02 0.0480236 0.001 -0.02 0.0480236 0 -0.02
0.0498355 0.001 -0.02 0.0498355 0 -0.02 0.0517173 0.001 -0.02 0.0517173
0 -0.02 0.0536719 0.001 -0.02 0.0536719 0 -0.02 0.0557019 0.001
-0.02 0.0557019 0 -0.02 0.0578102 0.001 -0.02 0.0578102 0 -0.02
0.06 0.001 -0.02 0.06 0 -0.02 0 0 -0.02 0
0.001 -0.02 8.46956e-05 0.001 -0.02 8.46956e-05 0 -0.02 0.000172762 0.001
-0.02 0.000172762 0 -0.02 0.000264333 0.001 -0.02 0.000264333 0 -0.02
0.000359549 0.001 -0.02 0.000359549 0 -0.02 0.000458554 0.001 -0.02 0.000458554
0 -0.02 0.0005615 0.001 -0.02 0.0005615 0 -0.02 0.000668542 0.001
-0.02 0.000668542 0 -0.02 0.000779845 0.001 -0.02 0.000779845 0 -0.02
0.000895577 0.001 -0.02 0.000895577 0 -0.02 0.00101591 0.001 -0.02 0.00101591
0 -0.02 0.00114104 0.001 -0.02 0.00114104 0 -0.02 0.00127115 0.001
-0.02 0.00127115 0 -0.02 0.00140644 0.001 -0.02 0.00140644 0 -0.02
0.0015471 0.001 -0.02 0.0015471 0 -0.02 0.00169337 0.001 -0.02 0.00169337
0 -0.02 0.00184546 0.001 -0.02 0.00184546 0 -0.02 0.0020036 0.001
-0.02 0.0020036 0 -0.02 0.00216804 0.001 -0.02 0.00216804 0 -0.02
0.00233902 0.001 -0.02 0.00233902 0 -0.02 0.00251681 0.001 -0.02 0.00251681
0 -0.02 0.00270167 0.001 -0.02 0.00270167 0 -0.02 0.00289388 0.001
-0.02 0.00289388 0 -0.02 0.00309375 0.001 -0.02 0.00309375 0 -0.02
0.00330157 0.001 -0.02 0.00330157 0 -0.02 0.00351767 0.001 -0.02 0.00351767
0 -0.02 0.00374236 0.001 -0.02 0.00374236 0 -0.02 0.00397599 0.001
-0.02 0.00397599 0 -0.02 0.00421893 0.001 -0.02 0.00421893 0 -0.02
0.00447153 0.001 -0.02 0.00447153 0 -0.02 0.00473419 0.001 -0.02 0.00473419
0 -0.02 0.0050073 0.001 -0.02 0.0050073 0 -0.02 0.00529127 0.001
-0.02 0.00529127 0 -0.02 0.00558655 0.001 -0.02 0.00558655 0 -0.02
0.00589359 0.001 -0.02 0.00589359 0 -0.02 0.00621284 0.001 -0.02 0.00621284
0 -0.02 0.00654479 0.001 -0.02 0.00654479 0 -0.02 0.00688996 0.001
-0.02 0.00688996 0 -0.02 0.00724887 0.001 -0.02 0.00724887 0 -0.02
0.00762206 0.001 -0.02 0.00762206 0 -0.02 0.0080101 0.001 -0.02 0.0080101
0 -0.02 0.00841358 0.001 -0.02 0.00841358 0 -0.02 0.00883312 0.001
-0.02 0.00883312 0 -0.02 0.00926936 0.001 -0.02 0.00926936 0 -0.02
0.00972297 0.001 -0.02 0.00972297 0 -0.02 0.0101946 0.001 -0.02 0.0101946
0 -0.02 0.010685 0.001 -0.02 0.010685 0 -0.02 0.011195 0.001
-0.02 0.011195 0 -0.02 0.0117252 0.001 -0.02 0.0117252 0 -0.02
0.0122766 0.001 -0.02 0.0122766 0 -0.02 0.0128499 0.001 -0.02 0.0128499
0 -0.02 0.013446 0.001 -0.02 0.013446 0 -0.02 0.0140658 0.001
-0.02 0.0140658 0 -0.02 0.0147103 0.001 -0.02 0.0147103 0 -0.02
0.0153804 0.001 -0.02 0.0153804 0 -0.02 0.0160772 0.001 -0.02 0.0160772
0 -0.02 0.0168018 0.001 -0.02 0.0168018 0 -0.02 0.0175551 0.001
-0.02 0.0175551 0 -0.02 0.0183385 0.001 -0.02 0.0183385 0 -0.02
0.019153 0.001 -0.02 0.019153 0 
POLYGONS 90 450
4 0 1 2 3 4 3 2 4 5 4
5 4 6 7 4 7 6 8 9 4
9 8 10 11 4 11 10 12 13 4
13 12 14 15 4 15 14 16 17 4
17 16 18 19 4 19 18 20 21 4
21 20 22 23 4 23 22 24 25 4
25 24 26 27 4 27 26 28 29 4
29 28 30 31 4 31 30 32 33 4
33 32 34 35 4 35 34 36 37 4
37 36 38 39 4 39 38 40 41 4
41 40 42 43 4 43 42 44 45 4
45 44 46 47 4 47 46 48 49 4
49 48 50 51 4 51 50 52 53 4
53 52 54 55 4 55 54 56 57 4
57 56 58 59 4 59 58 60 61 4
62 63 64 65 4 65 64 66 67 4
67 66 68 69 4 69 68 70 71 4
71 70 72 73 4 73 72 74 75 4
75 74 76 77 4 77 76 78 79 4
79 78 80 81 4 81 80 82 83 4
83 82 84 85 4 85 84 86 87 4
87 86 88 89 4 89 88 90 91 4
91 90 92 93 4 93 92 94 95 4
95 94 96 97 4 97 96 98 99 4
99 98 100 101 4 101 100 102 103 4
103 102 104 105 4 105 104 106 107 4
107 106 108 109 4 109 108 110 111 4
111 110 112 113 4 113 112 114 115 4
115 114 116 117 4 117 116 118 119 4
119 118 120 121 4 121 120 122 123 4
123 122 124 125 4 125 124 126 127 4
127 126 128 129 4 129 128 130 131 4
131 130 132 133 4 133 132 134 135 4
135 134 136 137 4 137 136 138 139 4
139 138 140 141 4 141 140 142 143 4
143 142 144 145 4 145 144 146 147 4
147 146 148 149 4 149 148 150 151 4
151 150 152 153 4 153 152 154 155 4
155 154 156 157 4 157 156 158 159 4
159 158 160 161 4 161 160 162 163 4
163 162 164 165 4 165 164 166 167 4
167 166 168 169 4 169 168 170 171 4
171 170 172 173 4 173 172 174 175 4
175 174 176 177 4 177 176 178 179 4
179 178 180 181 4 181 180 1 0 
CELL_DATA 90
FIELD attributes 3
patchID 1 90 float
1 1 1 1 1 1 1 1 1 1 1
1 1 1 1 1 1 1 1 1 1
1 1 1 1 1 1 1 1 1 1
1 1 1 1 1 1 1 1 1 1
1 1 1 1 1 1 1 1 1 1
1 1 1 1 1 1 1 1 1 1
1 1 1 1 1 1 1 1 1 1
1 1 1 1 1 1 1 1 1 1
1 1 1 1 1 1 1 1 1 
p 1 90 float
0.00349143 0.00345081 0.00340962 0.00336793 0.00332586 0.00328349 0.00324095 0.00319832 0.00315575 0.00311334 0.00307123
0.00302955 0.00298842 0.00294799 0.00290838 0.00286975 0.00283223 0.00279598 0.00276116 0.00272793 0.00269648
0.00266697 0.00263962 0.00261465 0.00259227 0.00257276 0.00255641 0.00254353 0.00253451 0.00252975 0.00439613
0.00439644 0.00439713 0.00439788 0.00439875 0.00439985 0.00440124 0.00440292 0.00440492 0.00440722 0.00440976
0.00441245 0.00441514 0.00441762 0.00441969 0.00442114 0.00442181 0.00442162 0.00442054 0.00441861 0.0044159
0.00441253 0.00440854 0.00440398 0.00439884 0.00439311 0.00438675 0.00437974 0.00437203 0.00436356 0.0043543
0.00434419 0.00433318 0.00432121 0.00430823 0.00429418 0.00427901 0.00426265 0.00424505 0.00422616 0.00420591
0.00418426 0.00416115 0.00413655 0.00411042 0.00408272 0.00405343 0.00402253 0.00399002 0.00395589 0.00392017
0.00388288 0.00384407 0.00380377 0.00376205 0.003719 0.00367471 0.00362926 0.00358278 0.0035354 
U 3 90 float
0.5 0 0 0.5 0 0 0.5 0 0 0.5 0
0 0.5 0 0 0.5 0 0 0.5 0 0
0.5 0 0 0.5 0 0 0.5 0 0 0.5
0 0 0.5 0 0 0.5 0 0 0.5 0
0 0.5 0 0 0.5 0 0 0.5 0 0
0.5 0 0 0.5 0 0 0.5 0 0 0.5
0 0 0.5 0 0 0.5 0 0 0.5 0
0 0.5 0 0 0.5 0 0 0.5 0 0
0.5 0 0 0.5 0 0 0.5 0 0 0.5
0 0 0.5 0 0 0.5 0 0 0.5 0
0 0.5 0 0 0.5 0 0 0.5 0 0
0.5 0 0 0.5 0 0 0.5 0 0 0.5
0 0 0.5 0 0 0.5 0 0 0.5 0
0 0.5 0 0 0.5 0 0 0.5 0 0
0.5 0 0 0.5 0 0 0.5 0 0 0.5
0 0 0.5 0 0 0.5 0 0 0.5 0
0 0.5 0 0 0.5 0 0 0.5 0 0
0.5 0 0 0.5 0 0 0.5 0 0 0.5
0 0 0.5 0 0 0.5 0 0 0.5 0
0 0.5 0 0 0.5 0 0 0.5 0 0
0.5 0 0 0.5 0 0 0.5 0 0 0.5
0 0 0.5 0 0 0.5 0 0 0.5 0
0 0.5 0 0 0.5 0 0 0.5 0 0
0.5 0 0 0.5 0 0 0.5 0 0 0.5
0 0 0.5 0 0 0.5 0 0 0.5 0
0 0.5 0 0 0.5 0 0 0.5 0 0
0.5 0 0 0.5 0 0 0.5 0 0 
POINT_DATA  182
FIELD attributes 2
p 1 182 float
0.00351279 0.00351279 0.00347126 0.00347126 0.00343036 0.00343036 0.00338893 0.00338893 0.00334706 0.00334706 0.00330485
0.00330485 0.0032624 0.0032624 0.00321982 0.00321982 0.00317723 0.00317723 0.00313475 0.00313475 0.00309249
0.00309249 0.0030506 0.0030506 0.0030092 0.0030092 0.00296843 0.00296843 0.00292841 0.00292841 0.00288929
0.00288929 0.00285121 0.00285121 0.00281433 0.00281433 0.00277879 0.00277879 0.00274476 0.00274476 0.00271241
0.00271241 0.00268193 0.00268193 0.00265349 0.00265349 0.00262731 0.00262731 0.00260362 0.00260362 0.00258266
0.00258266 0.00256471 0.00256471 0.00255007 0.00255007 0.00253909 0.00253909 0.00253217 0.00253217 0.00252975
0.00252975 0.00439613 0.00439613 0.00439629 0.00439629 0.00439679 0.00439679 0.00439751 0.00439751 0.00439832
0.00439832 0.0043993 0.0043993 0.00440054 0.00440054 0.00440208 0.00440208 0.00440392 0.00440392 0.00440607
0.00440607 0.00440849 0.00440849 0.00441111 0.00441111 0.0044138 0.0044138 0.00441638 0.00441638 0.00441866
0.00441866 0.00442042 0.00442042 0.00442148 0.00442148 0.00442172 0.00442172 0.00442108 0.00442108 0.00441957
0.00441957 0.00441726 0.00441726 0.00441422 0.00441422 0.00441053 0.00441053 0.00440626 0.00440626 0.00440141
0.00440141 0.00439597 0.00439597 0.00438993 0.00438993 0.00438325 0.00438325 0.00437589 0.00437589 0.0043678
0.0043678 0.00435894 0.00435894 0.00434925 0.00434925 0.00433869 0.00433869 0.0043272 0.0043272 0.00431473
0.00431473 0.00430122 0.00430122 0.00428661 0.00428661 0.00427085 0.00427085 0.00425387 0.00425387 0.00423563
0.00423563 0.00421606 0.00421606 0.00419511 0.00419511 0.00417274 0.00417274 0.00414889 0.00414889 0.00412353
0.00412353 0.00409662 0.00409662 0.00406813 0.00406813 0.00403804 0.00403804 0.00400634 0.00400634 0.00397303
0.00397303 0.00393812 0.00393812 0.00390163 0.00390163 0.00386358 0.00386358 0.00382404 0.00382404 0.00378304
0.00378304 0.00374067 0.00374067 0.00369701 0.00369701 0.00365215 0.00365215 0.0036062 0.0036062 0.00355928
0.00355928 
U 3 182 float
0.5 0 0 0.5 0 0 0.5 0 0 0.5 0
0 0.5 0 0 0.5 0 0 0.5 0 0
0.5 0 0 0.5 0 0 0.5 0 0 0.5
0 0 0.5 0 0 0.5 0 0 0.5 0
0 0.5 0 0 0.5 0 0 0.5 0 0
0.5 0 0 0.5 0 0 0.5 0 0 0.5
0 0 0.5 0 0 0.5 0 0 0.5 0
0 0.5 0 0 0.5 0 0 0.5 0 0
0.5 0 0 0.5 0 0 0.5 0 0 0.5
0 0 0.5 0 0 0.5 0 0 0.5 0
0 0.5 0 0 0.5 0 0 0.5 0 0
0.5 0 0 0.5 0 0 0.5 0 0 0.5
0 0 0.5 0 0 0.5 0 0 0.5 0
0 0.5 0 0 0.5 0 0 0.5 0 0
0.5 0 0 0.5 0 0 0.5 0 0 0.5
0 0 0.5 0 0 0.5 0 0 0.5 0
0 0.5 0 0 0.5 0 0 0.5 0 0
0.5 0 0 0.5 0 0 0.5 0 0 0.5
0 0 0.5 0 0 0.5 0 0 0.5 0
0 0.5 0 0 0.5 0 0 0.5 0 0
0.5 0 0 0.5 0 0 0.5 0 0 0.5
0 0 0.5 0 0 0.5 0 0 0.5 0
0 0.5 0 0 0.5 0 0 0.5 0 0
0.5 0 0 0.5 0 0 0.5 0 0 0.5
0 0 0.5 0 0 0.5 0 0 0.5 0
0 0.5 0 0 0.5 0 0 0.5 0 0
0.5 0 0 0.5 0 0 0.5 0 0 0.5
0 0 0.5 0 0 0.5 0 0 0.5 0
0 0.5 0 0 0.5 0 0 0.5 0 0
0.5 0 0 0.5 0 0 0.5 0 0 0.5
0 0 0.5 0 0 0.5 0 0 0.5 0
0 0.5 0 0 0.5 0 0 0.5 0 0
0.5 0 0 0.5 0 0 0.5 0 0 0.5
0 0 0.5 0 0 0.5 0 0 0.5 0
0 0.5 0 0 0.5 0 0 0.5 0 0
0.5 0 0 0.5 0 0 0.5 0 0 0.5
0 0 0.5 0 0 0.5 0 0 0.5 0
0 0.5 0 0 0.5 0 0 0.5 0 0
0.5 0 0 0.5 0 0 0.5 0 0 0.5
0 0 0.5 0 0 0.5 0 0 0.5 0
0 0.5 0 0 0.5 0 0 0.5 0 0
0.5 0 0 0.5 0 0 0.5 0 0 0.5
0 0 0.5 0 0 0.5 0 0 0.5 0
0 0.5 0 0 0.5 0 0 0.5 0 0
0.5 0 0 0.5 0 0 0.5 0 0 0.5
0 0 0.5 0 0 0.5 0 0 0.5 0
0 0.5 0 0 0.5 0 0 0.5 0 0
0.5 0 0 0.5 0 0 0.5 0 0 0.5
0 0 0.5 0 0 0.5 0 0 0.5 0
0 0.5 0 0 0.5 0 0 0.5 0 0
0.5 0 0 0.5 0 0 0.5 0 0 0.5
0 0 0.5 0 0 0.5 0 0 0.5 0
0 0.5 0 0 0.5 0 0 0.5 0 0
0.5 0 0 0.5 0 0 0.5 0 0 0.5
0 0 0.5 0 0 
