# Residuals    
# Time         	p              	Ux             	Uy             
0.0001         	1.00000000e+00	1.00000000e+00	0.00000000e+00
0.0002         	7.87210650e-04	1.04053320e-01	2.96041580e-01
0.0003         	4.30660560e-04	5.98725700e-02	1.78269000e-01
0.0004         	3.04635780e-04	4.17014870e-02	1.23564010e-01
0.0005         	1.94874750e-04	3.01465930e-02	8.72249350e-02
0.0006         	2.29499470e-04	2.36594540e-02	6.80546360e-02
0.0007         	2.64235370e-04	1.94692310e-02	5.59962560e-02
0.0008         	2.89439700e-04	1.64044590e-02	4.70895400e-02
0.0009         	2.22119400e-04	1.40911620e-02	4.03646680e-02
0.001          	2.31911960e-04	1.22797640e-02	3.50889060e-02
0.0011         	2.44563570e-04	1.08130520e-02	3.07893250e-02
0.0012         	2.53485000e-04	9.60554460e-03	2.72415720e-02
0.0013         	2.66201290e-04	8.61052940e-03	2.43413190e-02
0.0014         	2.88117380e-04	7.77221990e-03	2.19227120e-02
0.0015         	3.13174550e-04	7.05851300e-03	1.98652660e-02
0.0016         	3.29259150e-04	6.44536200e-03	1.81003300e-02
0.0017         	3.51005840e-04	5.91483090e-03	1.65777630e-02
0.0018         	3.61001740e-04	5.45369490e-03	1.52643590e-02
0.0019         	3.76832810e-04	5.05126240e-03	1.41336540e-02
0.002          	3.90784730e-04	4.69883060e-03	1.31540640e-02
0.0021         	4.12474890e-04	4.38867310e-03	1.22999520e-02
0.0022         	4.23705240e-04	4.10797500e-03	1.15291800e-02
0.0023         	4.44751920e-04	3.86349020e-03	1.08817210e-02
0.0024         	4.54052360e-04	3.64743510e-03	1.03202920e-02
0.0025         	4.65865170e-04	3.45505430e-03	9.82768660e-03
0.0026         	4.65613660e-04	3.28474540e-03	9.39997830e-03
0.0027         	5.00177170e-04	3.13308580e-03	9.02985030e-03
0.0028         	4.78665430e-04	2.99806800e-03	8.71092710e-03
0.0029         	4.84951760e-04	2.87782050e-03	8.43886360e-03
0.003          	5.00479460e-04	2.77085840e-03	8.20879060e-03
0.0031         	5.22234050e-04	2.67592860e-03	8.01728240e-03
0.0032         	5.43462510e-04	2.59176520e-03	7.86020050e-03
0.0033         	5.63903290e-04	2.51797670e-03	7.73558300e-03
0.0034         	5.76997680e-04	2.44933980e-03	7.61533390e-03
0.0035         	5.87643120e-04	2.38701940e-03	7.50816330e-03
0.0036         	5.94455430e-04	2.33252870e-03	7.42440380e-03
0.0037         	5.87228390e-04	2.28242290e-03	7.34663320e-03
0.0038         	5.80739850e-04	2.23513300e-03	7.26734910e-03
0.0039         	5.85923440e-04	2.18942020e-03	7.18412170e-03
0.004          	6.16288390e-04	2.08638700e-03	6.77230090e-03
0.0041         	7.47896730e-04	2.01245560e-03	6.52256460e-03
0.0042         	8.34088130e-04	1.96248290e-03	6.39892020e-03
0.0043         	8.97220010e-04	1.92449230e-03	6.33235840e-03
0.0044         	6.63840830e-04	1.89740010e-03	6.31344180e-03
0.0045         	6.02809260e-04	1.87101430e-03	6.29050130e-03
0.0046         	7.59059830e-04	1.83529500e-03	6.20709450e-03
0.0047         	6.85177220e-04	1.79929210e-03	6.11540970e-03
0.0048         	6.80542630e-04	1.74503460e-03	5.91707620e-03
0.0049         	7.38653950e-04	1.68679320e-03	5.69234350e-03
0.005          	8.13386710e-04	1.63913950e-03	5.52211820e-03
0.0051         	6.12892720e-04	1.59872710e-03	5.38902850e-03
0.0052         	7.17540770e-04	1.57723790e-03	5.35759490e-03
0.0053         	6.97646770e-04	1.59910780e-03	5.56001530e-03
0.0054         	7.86357390e-04	1.61172100e-03	5.70058910e-03
0.0055         	6.61845440e-04	1.48462910e-03	5.06996630e-03
0.0056         	8.87895520e-04	1.45781760e-03	4.99167430e-03
0.0057         	6.62558810e-04	1.43401420e-03	4.92457140e-03
0.0058         	6.23447740e-04	1.37982430e-03	4.69179890e-03
0.0059         	6.38308980e-04	1.34312690e-03	4.55155960e-03
0.006          	7.32344540e-04	1.31467130e-03	4.45277900e-03
0.0061         	7.90296090e-04	1.28951150e-03	4.36882290e-03
0.0062         	1.21517770e-03	1.26699770e-03	4.29717520e-03
0.0063         	1.06964240e-03	1.24618260e-03	4.23442930e-03
0.0064         	7.96101660e-04	1.17956190e-03	3.93224910e-03
0.0065         	8.48079370e-04	1.16966070e-03	3.92597270e-03
0.0066         	1.12499780e-03	1.14874810e-03	3.86013270e-03
0.0067         	1.04687660e-03	1.17060530e-03	4.01119520e-03
0.0068         	9.54238180e-04	1.12807630e-03	3.83237990e-03
0.0069         	8.54782700e-04	1.04099820e-03	3.43662080e-03
0.007          	8.31777980e-04	1.00370790e-03	3.29130800e-03
0.0071         	8.50380660e-04	9.81156580e-04	3.21799300e-03
0.0072         	8.84261220e-04	9.60755160e-04	3.15409930e-03
0.0073         	8.85960760e-04	9.41688470e-04	3.09612030e-03
0.0074         	1.00889480e-03	9.23594260e-04	3.04151820e-03
0.0075         	1.10055930e-03	9.06216390e-04	2.98916120e-03
0.0076         	8.85016710e-04	8.89766420e-04	2.94109160e-03
0.0077         	9.29113880e-04	8.73997040e-04	2.89438790e-03
0.0078         	9.91701400e-04	8.57643930e-04	2.84340400e-03
0.0079         	1.14101100e-03	8.18025910e-04	2.67660560e-03
0.008          	9.13439310e-04	8.36812210e-04	2.79795020e-03
0.0081         	9.13093580e-04	8.25228510e-04	2.76657950e-03
0.0082         	9.03247820e-04	8.14151750e-04	2.73727070e-03
0.0083         	9.72567610e-04	8.04160080e-04	2.71283590e-03
0.0084         	9.68513720e-04	7.95260320e-04	2.69232470e-03
0.0085         	8.97714880e-04	7.87619880e-04	2.67658670e-03
0.0086         	9.47692960e-04	7.81611590e-04	2.66745320e-03
0.0087         	9.31570810e-04	7.78094690e-04	2.66993580e-03
0.0088         	9.42693290e-04	7.79491530e-04	2.69520990e-03
0.0089         	1.03797840e-03	7.74235130e-04	2.68671390e-03
0.009          	1.09286580e-03	7.55668580e-04	2.61253040e-03
0.0091         	1.08437630e-03	7.47782670e-04	2.59170900e-03
0.0092         	9.84129850e-04	7.03472120e-04	2.40200340e-03
0.0093         	9.74878920e-04	6.99389270e-04	2.40155530e-03
0.0094         	9.94497160e-04	6.97824200e-04	2.41324370e-03
0.0095         	1.05994230e-03	6.96759090e-04	2.42860030e-03
0.0096         	1.09305930e-03	6.98841090e-04	2.45804700e-03
0.0097         	1.35101240e-03	7.05900960e-04	2.51081050e-03
0.0098         	1.34411970e-03	7.35628550e-04	2.67798650e-03
0.0099         	1.90998880e-03	7.36220120e-04	2.69674210e-03
0.01           	1.15414990e-03	6.76134380e-04	2.40815560e-03
0.0101         	1.06162200e-03	6.61981520e-04	2.35304130e-03
0.0102         	9.44467030e-04	6.50772960e-04	2.31234130e-03
0.0103         	8.85053110e-04	6.52343320e-04	2.33127980e-03
0.0104         	8.82142390e-04	6.47777340e-04	2.32350020e-03
0.0105         	8.78471220e-04	6.43539600e-04	2.31676670e-03
0.0106         	8.76775560e-04	6.39495350e-04	2.31035790e-03
0.0107         	8.60415800e-04	6.35604540e-04	2.30385010e-03
0.0108         	8.61111740e-04	6.31800770e-04	2.29670290e-03
0.0109         	8.64477210e-04	6.28109890e-04	2.28895520e-03
0.011          	9.51312000e-04	6.24812650e-04	2.28186080e-03
0.0111         	1.20618450e-03	6.21398430e-04	2.27418810e-03
0.0112         	1.35326850e-03	6.27547920e-04	2.31287500e-03
0.0113         	9.18583160e-04	6.12949010e-04	2.24969780e-03
0.0114         	8.88871520e-04	6.05907720e-04	2.22513210e-03
0.0115         	8.99041060e-04	6.02034340e-04	2.21566760e-03
0.0116         	8.97986490e-04	6.02597610e-04	2.22683140e-03
0.0117         	9.04635500e-04	6.06142410e-04	2.25254850e-03
0.0118         	7.71005250e-04	6.19469870e-04	2.33024310e-03
0.0119         	1.05946970e-03	6.13353140e-04	2.30851300e-03
0.012          	1.01316480e-03	5.70771220e-04	2.10663850e-03
0.0121         	1.02663660e-03	5.63380850e-04	2.08017540e-03
0.0122         	1.01801110e-03	5.61417620e-04	2.07864260e-03
0.0123         	1.00649220e-03	5.65394530e-04	2.10464380e-03
0.0124         	1.12311510e-03	5.77851260e-04	2.17384780e-03
0.0125         	1.06019790e-03	5.41400540e-04	2.00680030e-03
0.0126         	1.01269360e-03	5.35814850e-04	1.98790430e-03
0.0127         	8.69363370e-04	5.30830620e-04	1.97105770e-03
0.0128         	8.66079120e-04	5.25759960e-04	1.95373860e-03
0.0129         	8.85204670e-04	5.20317300e-04	1.93512430e-03
0.013          	8.73957890e-04	5.15595600e-04	1.92013970e-03
0.0131         	8.81704520e-04	5.11150810e-04	1.90775230e-03
0.0132         	8.79976140e-04	5.06919440e-04	1.89526690e-03
0.0133         	9.27786740e-04	5.03059890e-04	1.88392770e-03
0.0134         	9.46732690e-04	4.99827830e-04	1.87458770e-03
0.0135         	1.01410290e-03	4.98364780e-04	1.87213230e-03
0.0136         	9.51567270e-04	5.03387130e-04	1.89838030e-03
0.0137         	9.59026420e-04	4.86206140e-04	1.82655890e-03
0.0138         	9.70550320e-04	4.82218620e-04	1.81203580e-03
0.0139         	1.07160290e-03	4.78949420e-04	1.80033450e-03
0.014          	1.20466130e-03	4.75930010e-04	1.78987960e-03
0.0141         	9.17737860e-04	4.72922470e-04	1.78029740e-03
0.0142         	9.42571070e-04	4.70317680e-04	1.77234170e-03
0.0143         	9.12738300e-04	4.67349210e-04	1.76200300e-03
0.0144         	1.01892130e-03	4.64009830e-04	1.75190940e-03
0.0145         	1.12768830e-03	4.60507520e-04	1.74145690e-03
0.0146         	1.10787270e-03	4.55891760e-04	1.72697960e-03
0.0147         	9.70624860e-04	4.52948640e-04	1.71831730e-03
0.0148         	9.62342550e-04	4.50215160e-04	1.70986660e-03
0.0149         	9.85355110e-04	4.41035010e-04	1.67466170e-03
0.015          	1.08995900e-03	4.35506840e-04	1.65380910e-03
0.0151         	1.09531860e-03	4.29715910e-04	1.63185990e-03
0.0152         	9.16253970e-04	4.21994800e-04	1.60226970e-03
0.0153         	9.26024390e-04	4.15871080e-04	1.58068820e-03
0.0154         	1.01574930e-03	4.08906820e-04	1.55559170e-03
0.0155         	9.24757550e-04	4.13763190e-04	1.57946110e-03
0.0156         	1.17284420e-03	4.10649670e-04	1.57096570e-03
0.0157         	1.18524250e-03	4.08065140e-04	1.56442980e-03
0.0158         	9.05405910e-04	4.04690920e-04	1.55467100e-03
0.0159         	9.94820440e-04	4.03592630e-04	1.55243650e-03
0.016          	9.70103920e-04	4.12845520e-04	1.59075040e-03
0.0161         	1.28351510e-03	3.95614280e-04	1.52462310e-03
0.0162         	1.06182040e-03	3.94484880e-04	1.52126740e-03
0.0163         	1.17742030e-03	3.91886720e-04	1.51274200e-03
0.0164         	1.15045020e-03	3.89596040e-04	1.50603760e-03
0.0165         	1.14918280e-03	3.88076370e-04	1.50216260e-03
0.0166         	1.46445070e-03	3.86812150e-04	1.49870630e-03
0.0167         	1.31141950e-03	3.85722710e-04	1.49611160e-03
0.0168         	1.11305140e-03	3.89377500e-04	1.51045580e-03
0.0169         	9.43269220e-04	3.85447260e-04	1.49848300e-03
0.017          	1.00769070e-03	3.85472300e-04	1.50075840e-03
0.0171         	1.05431520e-03	3.87325610e-04	1.50986720e-03
0.0172         	1.04879400e-03	3.84894520e-04	1.50105560e-03
0.0173         	9.84992310e-04	3.82731170e-04	1.49342120e-03
0.0174         	9.22359860e-04	3.78041530e-04	1.47643550e-03
0.0175         	9.85590070e-04	3.67170800e-04	1.43605590e-03
0.0176         	1.00416930e-03	3.62957940e-04	1.42193220e-03
0.0177         	9.11096800e-04	3.61007970e-04	1.41490150e-03
0.0178         	1.22209640e-03	3.58923360e-04	1.40824510e-03
0.0179         	1.25356710e-03	3.57359710e-04	1.40250360e-03
0.018          	8.73424250e-04	3.55313870e-04	1.39555390e-03
0.0181         	8.88643520e-04	3.52069520e-04	1.38527170e-03
0.0182         	9.21638850e-04	3.54977810e-04	1.39893120e-03
0.0183         	9.95550860e-04	3.60892010e-04	1.42373150e-03
0.0184         	1.24680440e-03	3.55303240e-04	1.40514480e-03
0.0185         	1.19271990e-03	3.56313290e-04	1.41205890e-03
0.0186         	1.02156820e-03	3.44015370e-04	1.36422080e-03
0.0187         	8.76934830e-04	3.43145090e-04	1.36235040e-03
0.0188         	1.16069880e-03	3.39942040e-04	1.35102360e-03
0.0189         	1.10960760e-03	3.38430360e-04	1.34557620e-03
0.019          	9.36002620e-04	3.43420320e-04	1.36079890e-03
0.0191         	9.65809850e-04	3.35448770e-04	1.33314990e-03
0.0192         	9.50289180e-04	3.33484900e-04	1.32518310e-03
0.0193         	9.24844090e-04	3.31968300e-04	1.32010930e-03
0.0194         	9.92877170e-04	3.29409830e-04	1.31272640e-03
0.0195         	1.13529380e-03	3.30899650e-04	1.31869060e-03
0.0196         	8.90297590e-04	3.33698810e-04	1.33027780e-03
0.0197         	9.91970580e-04	3.30608430e-04	1.31954950e-03
0.0198         	8.90070960e-04	3.22399380e-04	1.29123450e-03
0.0199         	9.32176600e-04	3.19177030e-04	1.28033050e-03
0.02           	9.50843130e-04	3.17295730e-04	1.27323680e-03
0.0201         	9.79216020e-04	3.15810700e-04	1.26766590e-03
0.0202         	8.80846160e-04	3.14028510e-04	1.26122560e-03
0.0203         	8.73673650e-04	3.12738870e-04	1.25566130e-03
0.0204         	8.54129400e-04	3.12041780e-04	1.25161160e-03
0.0205         	9.17835170e-04	3.13779550e-04	1.25775260e-03
0.0206         	1.02830300e-03	3.13311960e-04	1.25605270e-03
0.0207         	1.09963380e-03	3.07844780e-04	1.23942360e-03
0.0208         	9.86213280e-04	3.05143760e-04	1.23180280e-03
0.0209         	9.70474170e-04	3.02715390e-04	1.22549970e-03
0.021          	9.35391180e-04	3.01218330e-04	1.22142510e-03
0.0211         	9.81769010e-04	3.04773560e-04	1.23048840e-03
0.0212         	9.33855620e-04	2.99497130e-04	1.21513440e-03
0.0213         	9.60576580e-04	2.99824220e-04	1.21572870e-03
0.0214         	9.20623200e-04	3.00589070e-04	1.21780720e-03
0.0215         	9.15580150e-04	2.91845960e-04	1.18710230e-03
0.0216         	1.09084220e-03	2.89523620e-04	1.17855400e-03
0.0217         	1.19663940e-03	2.81865680e-04	1.15712350e-03
0.0218         	1.03887310e-03	2.84990030e-04	1.16260700e-03
0.0219         	1.11303350e-03	2.84592220e-04	1.16213370e-03
0.022          	1.21025710e-03	2.85453080e-04	1.16526500e-03
0.0221         	1.09131900e-03	2.89997510e-04	1.17979030e-03
0.0222         	9.51739200e-04	2.80613780e-04	1.15181900e-03
0.0223         	9.08756580e-04	2.78095000e-04	1.14434440e-03
0.0224         	8.82030360e-04	2.75518190e-04	1.13507080e-03
0.0225         	8.37294000e-04	2.77126180e-04	1.13953120e-03
0.0226         	7.96477610e-04	2.78225860e-04	1.14191480e-03
0.0227         	8.13012590e-04	2.77598340e-04	1.13831420e-03
0.0228         	1.02973560e-03	2.77596960e-04	1.13627410e-03
0.0229         	1.03183320e-03	2.85162840e-04	1.15913970e-03
0.023          	1.13536690e-03	2.76777170e-04	1.13396330e-03
0.0231         	1.33675770e-03	2.74007980e-04	1.12635560e-03
0.0232         	1.26025610e-03	2.72539410e-04	1.12216610e-03
0.0233         	8.43707260e-04	2.75746870e-04	1.13011360e-03
0.0234         	8.60204260e-04	2.69499590e-04	1.11371720e-03
0.0235         	8.78203810e-04	2.67860890e-04	1.10861120e-03
0.0236         	8.04453100e-04	2.66562000e-04	1.10457650e-03
0.0237         	8.16447520e-04	2.65435440e-04	1.10060700e-03
0.0238         	8.90018740e-04	2.64433900e-04	1.09640690e-03
0.0239         	1.14231260e-03	2.63507370e-04	1.09240110e-03
0.024          	1.11072110e-03	2.65618150e-04	1.09754480e-03
0.0241         	9.21226020e-04	2.60463230e-04	1.08126150e-03
0.0242         	9.23060930e-04	2.59895190e-04	1.07923120e-03
0.0243         	1.13054040e-03	2.59064790e-04	1.07706970e-03
0.0244         	1.19388760e-03	2.58119560e-04	1.07462380e-03
0.0245         	9.17661770e-04	2.58076100e-04	1.07329080e-03
0.0246         	8.44392250e-04	2.57368080e-04	1.07036860e-03
0.0247         	7.75078970e-04	2.53726030e-04	1.06134310e-03
0.0248         	7.94433190e-04	2.52705660e-04	1.05736540e-03
0.0249         	8.01289840e-04	2.51801190e-04	1.05335750e-03
0.025          	8.10196080e-04	2.51136190e-04	1.04934400e-03
0.0251         	9.75161170e-04	2.51457970e-04	1.04705560e-03
0.0252         	1.00743170e-03	2.57005700e-04	1.06069010e-03
0.0253         	1.20283450e-03	2.47517130e-04	1.03564790e-03
0.0254         	1.17193100e-03	2.53006720e-04	1.04706290e-03
0.0255         	1.03434780e-03	2.45312930e-04	1.02918010e-03
0.0256         	1.00914320e-03	2.47516430e-04	1.03526520e-03
0.0257         	1.04631060e-03	2.41619060e-04	1.02026880e-03
0.0258         	9.88359100e-04	2.41145440e-04	1.01880870e-03
0.0259         	9.85824810e-04	2.40007430e-04	1.01513320e-03
0.026          	7.98634130e-04	2.39010120e-04	1.01123310e-03
0.0261         	8.89595520e-04	2.37891320e-04	1.00687750e-03
0.0262         	9.26194230e-04	2.32426050e-04	9.97408950e-04
0.0263         	8.76413390e-04	2.36736900e-04	1.00025300e-03
0.0264         	1.08945760e-03	2.36243930e-04	9.98328680e-04
0.0265         	1.04416380e-03	2.37776750e-04	1.00170900e-03
0.0266         	9.17577880e-04	2.33652430e-04	9.91747910e-04
0.0267         	8.73724920e-04	2.33607430e-04	9.90481970e-04
0.0268         	8.10399950e-04	2.32662550e-04	9.87448480e-04
0.0269         	9.32283290e-04	2.32635790e-04	9.86181760e-04
0.027          	9.76046100e-04	2.34886430e-04	9.90662180e-04
0.0271         	8.04739480e-04	2.29274660e-04	9.76582040e-04
0.0272         	8.43828190e-04	2.28641150e-04	9.72897040e-04
0.0273         	9.72637860e-04	2.28527840e-04	9.69664130e-04
0.0274         	1.14852270e-03	2.34527480e-04	9.82215580e-04
0.0275         	1.29471930e-03	2.27290650e-04	9.62796060e-04
0.0276         	8.28581700e-04	2.27489500e-04	9.62016070e-04
0.0277         	8.91524680e-04	2.24006660e-04	9.54927050e-04
0.0278         	1.00406740e-03	2.22733070e-04	9.51383720e-04
0.0279         	9.42390950e-04	2.22311620e-04	9.49512330e-04
0.028          	8.68549850e-04	2.25972200e-04	9.57415560e-04
0.0281         	8.00193820e-04	2.20986530e-04	9.45180530e-04
0.0282         	9.82533180e-04	2.18417190e-04	9.38645530e-04
0.0283         	1.06980050e-03	2.16073850e-04	9.32442980e-04
0.0284         	9.85631880e-04	2.14409060e-04	9.28684430e-04
0.0285         	1.21304500e-03	2.13941200e-04	9.26687360e-04
0.0286         	9.86488320e-04	2.14076430e-04	9.25001360e-04
0.0287         	8.29548600e-04	2.13358500e-04	9.23120970e-04
0.0288         	7.81178180e-04	2.13389930e-04	9.21653170e-04
0.0289         	7.76837260e-04	2.13181850e-04	9.19854680e-04
0.029          	8.64712950e-04	2.12743320e-04	9.17432020e-04
0.0291         	8.26452790e-04	2.12208710e-04	9.14999040e-04
0.0292         	7.71047700e-04	2.12010190e-04	9.13740620e-04
0.0293         	8.88453430e-04	2.12621150e-04	9.13975400e-04
0.0294         	9.05299060e-04	2.14417170e-04	9.17360810e-04
0.0295         	9.24862560e-04	2.10351370e-04	9.06005580e-04
0.0296         	9.29823250e-04	2.14114500e-04	9.12986330e-04
0.0297         	1.13515260e-03	2.12605860e-04	9.08614470e-04
0.0298         	8.74645620e-04	2.08002280e-04	8.97968130e-04
0.0299         	7.72114080e-04	2.06852690e-04	8.95564850e-04
0.03           	7.89716360e-04	2.05859610e-04	8.92960150e-04
0.0301         	7.82979940e-04	2.05067170e-04	8.90374760e-04
0.0302         	8.50629060e-04	2.04467710e-04	8.87679110e-04
0.0303         	8.86722640e-04	2.04301210e-04	8.85428120e-04
0.0304         	9.21844280e-04	2.07449220e-04	8.91599230e-04
0.0305         	9.72324150e-04	2.03819860e-04	8.82645000e-04
0.0306         	1.12991090e-03	2.02740440e-04	8.80298820e-04
0.0307         	1.17487770e-03	2.02113800e-04	8.80160340e-04
0.0308         	9.41120400e-04	2.00641370e-04	8.74360280e-04
0.0309         	7.60267260e-04	1.99248080e-04	8.69351380e-04
0.031          	7.54209780e-04	1.98585270e-04	8.66808070e-04
0.0311         	7.70122030e-04	1.97940040e-04	8.64569570e-04
0.0312         	7.35350920e-04	1.97325030e-04	8.61984700e-04
0.0313         	8.45545340e-04	1.96780880e-04	8.59280780e-04
0.0314         	8.82670530e-04	1.97291360e-04	8.58252040e-04
0.0315         	8.02517240e-04	1.95737440e-04	8.53814280e-04
0.0316         	8.75124250e-04	1.95605330e-04	8.52370730e-04
0.0317         	1.10291350e-03	1.96766440e-04	8.53705480e-04
0.0318         	1.16094910e-03	2.03010290e-04	8.71063250e-04
0.0319         	1.01772670e-03	1.94794090e-04	8.48341940e-04
0.032          	7.67486740e-04	1.95111750e-04	8.48477960e-04
0.0321         	7.55523800e-04	1.91620340e-04	8.40106010e-04
0.0322         	8.30371310e-04	1.90547770e-04	8.37267350e-04
0.0323         	8.63861310e-04	1.89810750e-04	8.34848570e-04
0.0324         	7.60038780e-04	1.89335830e-04	8.32561490e-04
0.0325         	7.70693520e-04	1.88505590e-04	8.29412190e-04
0.0326         	9.31183360e-04	1.87819630e-04	8.26427610e-04
0.0327         	1.01494510e-03	1.87554070e-04	8.24060720e-04
0.0328         	1.25081700e-03	1.90925530e-04	8.29552450e-04
0.0329         	1.40383150e-03	1.81281150e-04	8.20372730e-04
0.033          	8.58612060e-04	1.84889790e-04	8.17303680e-04
0.0331         	7.92723070e-04	1.84427570e-04	8.14980550e-04
0.0332         	7.88204500e-04	1.84611880e-04	8.13355060e-04
0.0333         	7.11158510e-04	1.86794610e-04	8.16860790e-04
0.0334         	7.65995240e-04	1.85649290e-04	8.13115610e-04
0.0335         	7.59283220e-04	1.81523400e-04	8.04576080e-04
0.0336         	7.76515290e-04	1.80982540e-04	8.02037900e-04
0.0337         	7.94884450e-04	1.80599410e-04	7.99530930e-04
0.0338         	1.02878910e-03	1.81061360e-04	7.97717060e-04
0.0339         	9.92247300e-04	1.82495000e-04	7.99079720e-04
0.034          	9.59832860e-04	1.83000180e-04	7.99679710e-04
0.0341         	1.05065850e-03	1.81098000e-04	7.94822970e-04
0.0342         	8.08364630e-04	1.78514970e-04	7.89933720e-04
0.0343         	8.04160780e-04	1.77766580e-04	7.87743760e-04
0.0344         	8.32211200e-04	1.77616030e-04	7.86173830e-04
0.0345         	7.31873640e-04	1.78157650e-04	7.85941780e-04
0.0346         	7.72363350e-04	1.75632810e-04	7.81564820e-04
0.0347         	7.65385080e-04	1.75026200e-04	7.79220190e-04
0.0348         	7.71497830e-04	1.74683360e-04	7.76901280e-04
0.0349         	9.02841820e-04	1.74051430e-04	7.74304690e-04
0.035          	1.23885020e-03	1.71429060e-04	7.73307150e-04
0.0351         	1.11996160e-03	1.70823760e-04	7.70822810e-04
0.0352         	8.13207810e-04	1.76076150e-04	7.73416650e-04
0.0353         	8.05171700e-04	1.72119060e-04	7.65836630e-04
0.0354         	7.16533740e-04	1.71525010e-04	7.63778770e-04
0.0355         	7.24088480e-04	1.71006660e-04	7.61785950e-04
0.0356         	7.31899130e-04	1.70595060e-04	7.60120100e-04
0.0357         	7.82048000e-04	1.70347800e-04	7.58487680e-04
0.0358         	7.90867430e-04	1.70558590e-04	7.57370040e-04
0.0359         	8.31900940e-04	1.72499240e-04	7.60535180e-04
0.036          	9.30395730e-04	1.73372100e-04	7.61674980e-04
0.0361         	9.09778850e-04	1.70479810e-04	7.52834670e-04
0.0362         	7.83523380e-04	1.71896680e-04	7.54966630e-04
0.0363         	8.77140150e-04	1.67434730e-04	7.45003350e-04
0.0364         	7.36915100e-04	1.67083350e-04	7.43217310e-04
0.0365         	7.55902080e-04	1.66345630e-04	7.41270440e-04
0.0366         	7.49649480e-04	1.65680040e-04	7.39349830e-04
0.0367         	7.25333640e-04	1.65262320e-04	7.37832350e-04
0.0368         	7.13343100e-04	1.65055220e-04	7.36348600e-04
0.0369         	7.25698910e-04	1.65756630e-04	7.35983230e-04
0.037          	9.30666470e-04	1.63702700e-04	7.31889250e-04
0.0371         	9.75713310e-04	1.61062390e-04	7.31176280e-04
0.0372         	9.99529280e-04	1.62223400e-04	7.27593830e-04
0.0373         	9.18534120e-04	1.59512690e-04	7.27021950e-04
0.0374         	9.47809610e-04	1.62139990e-04	7.23093360e-04
0.0375         	8.46812780e-04	1.65432520e-04	7.28976670e-04
0.0376         	8.19756350e-04	1.61174630e-04	7.19146810e-04
0.0377         	7.07264390e-04	1.60546500e-04	7.17159700e-04
0.0378         	7.38136620e-04	1.59999060e-04	7.15575240e-04
0.0379         	7.01839620e-04	1.59587480e-04	7.14059780e-04
0.038          	7.87501810e-04	1.59323990e-04	7.12552490e-04
0.0381         	7.89919200e-04	1.59711130e-04	7.11910580e-04
0.0382         	7.84164980e-04	1.59936290e-04	7.11181400e-04
0.0383         	9.22000090e-04	1.58933880e-04	7.07903610e-04
0.0384         	8.24923980e-04	1.62020500e-04	7.14252350e-04
0.0385         	8.06883780e-04	1.59094990e-04	7.05801050e-04
0.0386         	7.21992790e-04	1.59666450e-04	7.06064280e-04
0.0387         	7.14349530e-04	1.56309450e-04	6.97755680e-04
0.0388         	7.08514590e-04	1.56190560e-04	6.96044320e-04
0.0389         	7.45866280e-04	1.54732010e-04	6.93537640e-04
0.039          	7.24209560e-04	1.54261730e-04	6.92150560e-04
0.0391         	7.43036260e-04	1.53873300e-04	6.90754300e-04
0.0392         	8.05887960e-04	1.53574680e-04	6.89299960e-04
0.0393         	8.52914600e-04	1.53194590e-04	6.87779100e-04
0.0394         	8.22075240e-04	1.51758450e-04	6.85796030e-04
0.0395         	8.76622830e-04	1.50939700e-04	6.84027660e-04
0.0396         	6.97376980e-04	1.51467770e-04	6.81490330e-04
0.0397         	8.06710570e-04	1.51421510e-04	6.79219420e-04
0.0398         	7.31638500e-04	1.53119870e-04	6.80786640e-04
0.0399         	7.76217410e-04	1.51782890e-04	6.76927630e-04
0.04           	6.71733420e-04	1.50135160e-04	6.73056860e-04
0.0401         	7.96632610e-04	1.49903490e-04	6.71898530e-04
0.0402         	7.80824760e-04	1.52624550e-04	6.77669530e-04
0.0403         	6.58188500e-04	1.48999450e-04	6.69279680e-04
0.0404         	6.92699560e-04	1.48613690e-04	6.67892100e-04
0.0405         	7.89075280e-04	1.48678200e-04	6.67076900e-04
0.0406         	7.58663720e-04	1.50967800e-04	6.71512600e-04
0.0407         	7.37092680e-04	1.47232650e-04	6.63185290e-04
0.0408         	7.29011330e-04	1.46789160e-04	6.61094260e-04
0.0409         	6.52271600e-04	1.46387040e-04	6.58891410e-04
0.041          	6.92302690e-04	1.46155910e-04	6.57142120e-04
0.0411         	6.59942370e-04	1.46158430e-04	6.55724290e-04
0.0412         	6.77549580e-04	1.46438380e-04	6.55324760e-04
0.0413         	6.82845020e-04	1.46389600e-04	6.54885330e-04
0.0414         	7.32999730e-04	1.45507500e-04	6.52956310e-04
0.0415         	8.90132270e-04	1.43314490e-04	6.51374410e-04
0.0416         	8.30932710e-04	1.41357310e-04	6.51434250e-04
0.0417         	7.33234800e-04	1.43212080e-04	6.47875570e-04
0.0418         	6.67050320e-04	1.43080100e-04	6.46377170e-04
0.0419         	7.30074660e-04	1.42738140e-04	6.44535530e-04
0.042          	7.97909750e-04	1.42653450e-04	6.42924120e-04
0.0421         	8.29623750e-04	1.44277190e-04	6.45248090e-04
0.0422         	8.16120320e-04	1.43951880e-04	6.43666260e-04
0.0423         	6.43433480e-04	1.41640410e-04	6.37479590e-04
0.0424         	6.15207630e-04	1.40899280e-04	6.35434660e-04
0.0425         	6.08400030e-04	1.40484210e-04	6.34179690e-04
0.0426         	6.17212240e-04	1.40172950e-04	6.33358480e-04
0.0427         	6.64650610e-04	1.39994310e-04	6.32554960e-04
0.0428         	7.37911620e-04	1.40672160e-04	6.33233960e-04
0.0429         	8.04299460e-04	1.39630910e-04	6.30309010e-04
0.043          	6.65360380e-04	1.38963000e-04	6.28052470e-04
0.0431         	6.89649390e-04	1.38385490e-04	6.25832890e-04
0.0432         	6.12330970e-04	1.37896090e-04	6.23650650e-04
0.0433         	6.28750580e-04	1.37535820e-04	6.21788710e-04
0.0434         	6.55286990e-04	1.37186540e-04	6.20113220e-04
0.0435         	6.92990520e-04	1.37155940e-04	6.18727580e-04
0.0436         	6.65447180e-04	1.35605400e-04	6.17325600e-04
0.0437         	7.07476240e-04	1.35940450e-04	6.15874730e-04
0.0438         	6.22573560e-04	1.35941120e-04	6.14922940e-04
0.0439         	6.11699140e-04	1.35718080e-04	6.13769880e-04
0.044          	6.11745170e-04	1.35442410e-04	6.12388600e-04
0.0441         	6.15236710e-04	1.35166080e-04	6.10868170e-04
0.0442         	6.27150950e-04	1.34975750e-04	6.09334510e-04
0.0443         	8.40819460e-04	1.35050350e-04	6.08108660e-04
0.0444         	8.49880430e-04	1.37686230e-04	6.14106800e-04
0.0445         	7.22759540e-04	1.36410650e-04	6.09473800e-04
0.0446         	5.87710840e-04	1.33490610e-04	6.01478370e-04
0.0447         	5.82830210e-04	1.32935430e-04	5.99502440e-04
0.0448         	5.98783860e-04	1.32524720e-04	5.97896480e-04
0.0449         	5.96467360e-04	1.32190630e-04	5.96580990e-04
0.045          	6.00904560e-04	1.31954180e-04	5.95415520e-04
0.0451         	7.28668510e-04	1.32171980e-04	5.94945140e-04
0.0452         	8.18816480e-04	1.32004050e-04	5.93715310e-04
0.0453         	7.04780510e-04	1.30693650e-04	5.90610300e-04
0.0454         	5.76424150e-04	1.30283420e-04	5.88631330e-04
0.0455         	5.83790860e-04	1.29861590e-04	5.86580680e-04
0.0456         	6.43210960e-04	1.29387140e-04	5.84678880e-04
0.0457         	6.22549240e-04	1.27899600e-04	5.84004330e-04
0.0458         	6.36397900e-04	1.28781190e-04	5.80900930e-04
0.0459         	5.85225600e-04	1.28596110e-04	5.79055650e-04
0.046          	5.65984240e-04	1.28361430e-04	5.77236250e-04
0.0461         	5.95122890e-04	1.28125780e-04	5.75875670e-04
0.0462         	5.94929110e-04	1.27800380e-04	5.74570520e-04
0.0463         	5.77090990e-04	1.27492460e-04	5.73301070e-04
0.0464         	5.98495540e-04	1.27224480e-04	5.71930060e-04
0.0465         	5.81437140e-04	1.27062440e-04	5.70622980e-04
0.0466         	6.00807680e-04	1.27206240e-04	5.69875650e-04
0.0467         	5.89902550e-04	1.26387250e-04	5.67869870e-04
0.0468         	6.25045970e-04	1.26426950e-04	5.67078690e-04
0.0469         	6.78225440e-04	1.26209410e-04	5.65805650e-04
0.047          	5.95669890e-04	1.26788600e-04	5.66153920e-04
0.0471         	6.93368200e-04	1.25237160e-04	5.62090630e-04
0.0472         	6.42695070e-04	1.23368620e-04	5.61765590e-04
0.0473         	6.30282810e-04	1.24443810e-04	5.59236080e-04
0.0474         	6.22787420e-04	1.24114300e-04	5.58040330e-04
0.0475         	5.52698940e-04	1.23801090e-04	5.56792390e-04
0.0476         	5.57858410e-04	1.23502760e-04	5.55426860e-04
0.0477         	5.42936640e-04	1.23221290e-04	5.53915880e-04
0.0478         	5.64947620e-04	1.22949430e-04	5.52332950e-04
0.0479         	5.66182310e-04	1.22685220e-04	5.50893650e-04
0.048          	5.51709780e-04	1.22429700e-04	5.49518580e-04
0.0481         	5.59758480e-04	1.22190380e-04	5.48205140e-04
0.0482         	5.57778680e-04	1.21965970e-04	5.46793680e-04
0.0483         	5.40027100e-04	1.21795720e-04	5.45347900e-04
0.0484         	5.88367420e-04	1.21751970e-04	5.44226610e-04
0.0485         	6.04863450e-04	1.22932670e-04	5.46388780e-04
0.0486         	6.62774070e-04	1.21107460e-04	5.41416560e-04
0.0487         	6.40742500e-04	1.20845290e-04	5.40604620e-04
0.0488         	6.20753010e-04	1.21557770e-04	5.42081480e-04
0.0489         	5.29418020e-04	1.20070070e-04	5.38429300e-04
0.049          	5.19087850e-04	1.19722220e-04	5.37193640e-04