0 	0 	0 	0
2.5125628e-05 	0.017435465 	5.3637674e-06 	0
5.0251256e-05 	0.034973687 	1.5642114e-05 	0
7.5376884e-05 	0.052717685 	3.6587813e-05 	0
0.00010050251 	0.070035947 	5.7028112e-05 	0
0.00012562814 	0.087103219 	7.7170457e-05 	0
0.00015075377 	0.10462265 	0.0001233188 	0
0.0001758794 	0.12211582 	0.00017284888 	0
0.00020100503 	0.13902077 	0.00022069947 	0
0.00022613065 	0.15599635 	0.00027668221 	0
0.00025125628 	0.17311668 	0.00035126096 	0
0.00027638191 	0.18992295 	0.00042445367 	0
0.00030150754 	0.20638835 	0.00049614205 	0
0.00032663317 	0.22270758 	0.00058233516 	0
0.00035175879 	0.23891459 	0.00067867463 	0
0.00037688442 	0.25469374 	0.00077242549 	0
0.00040201005 	0.27028062 	0.00086501307 	0
0.00042713568 	0.28523414 	0.00097174771 	0
0.00045226131 	0.29993626 	0.0010838441 	0
0.00047738693 	0.3142174 	0.0011926591 	0
0.00050251256 	0.32835786 	0.0013003776 	0
0.00052763819 	0.34140421 	0.0014152704 	0
0.00055276382 	0.35398206 	0.0015330763 	0
0.00057788945 	0.3662479 	0.0016478819 	0
0.00060301508 	0.37834744 	0.0017610884 	0
0.0006281407 	0.38933982 	0.001873219 	0
0.00065326633 	0.39932198 	0.0019842122 	0
0.00067839196 	0.40915674 	0.0020935157 	0
0.00070351759 	0.41876289 	0.0022001984 	0
0.00072864322 	0.42794601 	0.002304461 	0
0.00075376884 	0.43518576 	0.0023972615 	0
0.00077889447 	0.4424255 	0.0024900619 	0
0.0008040201 	0.44940749 	0.0025794411 	0
0.00082914573 	0.45637936 	0.0026686858 	0
0.00085427136 	0.46187589 	0.0027440782 	0
0.00087939698 	0.46661746 	0.0028123146 	0
0.00090452261 	0.47129865 	0.0028796466 	0
0.00092964824 	0.47587063 	0.0029453429 	0
0.00095477387 	0.4804192 	0.0030107589 	0
0.0009798995 	0.48328655 	0.003055657 	0
0.0010050251 	0.48606653 	0.0030994638 	0
0.0010301508 	0.48879408 	0.0031424052 	0
0.0010552764 	0.49148152 	0.0031846847 	0
0.001080402 	0.49406978 	0.003225545 	0
0.0011055276 	0.49551919 	0.003249885 	0
0.0011306533 	0.49696861 	0.0032742249 	0
0.0011557789 	0.49839447 	0.0032981497 	0
0.0011809045 	0.49980374 	0.0033217817 	0
0.0012060302 	0.501187 	0.0033449922 	0
0.0012311558 	0.50187939 	0.0033568824 	0
0.0012562814 	0.50254685 	0.0033683593 	0
0.001281407 	0.50321067 	0.0033797782 	0
0.0013065327 	0.5038692 	0.0033911134 	0
0.0013316583 	0.50452773 	0.0034024485 	0
0.0013567839 	0.50490503 	0.003408718 	0
0.0013819095 	0.50517328 	0.0034130171 	0
0.0014070352 	0.50544171 	0.0034173212 	0
0.0014321608 	0.50571752 	0.0034218317 	0
0.0014572864 	0.50599332 	0.0034263421 	0
0.0014824121 	0.50622668 	0.0034300202 	0
0.0015075377 	0.50631742 	0.0034308923 	0
0.0015326633 	0.50640817 	0.0034317644 	0
0.0015577889 	0.5065054 	0.0034328175 	0
0.0015829146 	0.50661141 	0.0034341152 	0
0.0016080402 	0.50671741 	0.0034354128 	0
0.0016331658 	0.50677973 	0.0034357521 	0
0.0016582915 	0.50680157 	0.0034352013 	0
0.0016834171 	0.50682341 	0.0034346505 	0
0.0017085427 	0.50685623 	0.003434439 	0
0.0017336683 	0.50689626 	0.0034344501 	0
0.001758794 	0.50693629 	0.0034344613 	0
0.0017839196 	0.50695223 	0.0034338384 	0
0.0018090452 	0.50695077 	0.0034327566 	0
0.0018341709 	0.50694932 	0.0034316748 	0
0.0018592965 	0.50695804 	0.0034309532 	0
0.0018844221 	0.50697508 	0.0034305257 	0
0.0019095477 	0.50699211 	0.0034300981 	0
0.0019346734 	0.50699898 	0.0034293278 	0
0.001959799 	0.50699095 	0.0034280546 	0
0.0019849246 	0.50698291 	0.0034267814 	0
0.0020100503 	0.5069793 	0.0034256916 	0
0.0020351759 	0.50698848 	0.0034251335 	0
0.0020603015 	0.50699766 	0.0034245754 	0
0.0020854271 	0.50700619 	0.0034239889 	0
0.0021105528 	0.50699803 	0.0034226812 	0
0.0021356784 	0.50698895 	0.0034213334 	0
0.002160804 	0.50697987 	0.0034199857 	0
0.0021859296 	0.50698143 	0.0034191701 	0
0.0022110553 	0.5069873 	0.0034185699 	0
0.0022361809 	0.50699317 	0.0034179696 	0
0.0022613065 	0.50699461 	0.0034171273 	0
0.0022864322 	0.50698621 	0.0034157472 	0
0.0023115578 	0.50697781 	0.0034143671 	0
0.0023366834 	0.50696941 	0.003412987 	0
0.002361809 	0.50697204 	0.0034122893 	0
0.0023869347 	0.5069758 	0.0034116615 	0
0.0024120603 	0.50697955 	0.0034110337 	0
0.0024371859 	0.50697926 	0.003410123 	0
0.0024623116 	0.50697205 	0.0034087306 	0
0.0024874372 	0.50696484 	0.0034073382 	0
0.0025125628 	0.50695763 	0.0034059457 	0
0.0025376884 	0.50695811 	0.0034051621 	0
0.0025628141 	0.50696014 	0.0034045021 	0
0.0025879397 	0.50696218 	0.0034038422 	0
0.0026130653 	0.50696299 	0.0034030698 	0
0.002638191 	0.50695703 	0.0034016776 	0
0.0026633166 	0.50695107 	0.0034002854 	0
0.0026884422 	0.50694511 	0.0033988932 	0
0.0027135678 	0.50694225 	0.0033978294 	0
0.0027386935 	0.50694286 	0.0033971303 	0
0.0027638191 	0.50694346 	0.0033964312 	0
0.0027889447 	0.50694406 	0.0033957321 	0
0.0028140704 	0.50694111 	0.0033945881 	0
0.002839196 	0.50693624 	0.0033932043 	0
0.0028643216 	0.50693137 	0.0033918206 	0
0.0028894472 	0.5069265 	0.0033904369 	0
0.0029145729 	0.5069252 	0.0033895807 	0
0.0029396985 	0.50692467 	0.0033888376 	0
0.0029648241 	0.50692414 	0.0033880945 	0
0.0029899497 	0.50692361 	0.0033873514 	0
0.0030150754 	0.50692011 	0.0033860764 	0
0.003040201 	0.50691609 	0.0033847057 	0
0.0030653266 	0.50691206 	0.0033833351 	0
0.0030904523 	0.50690803 	0.0033819644 	0
0.0031155779 	0.50690632 	0.0033810988 	0
0.0031407035 	0.50690496 	0.0033803096 	0
0.0031658291 	0.5069036 	0.0033795204 	0
0.0031909548 	0.50690224 	0.0033787311 	0
0.0032160804 	0.50689934 	0.0033775253 	0
0.003241206 	0.50689589 	0.0033761692 	0
0.0032663317 	0.50689244 	0.0033748131 	0
0.0032914573 	0.50688899 	0.003373457 	0
0.0033165829 	0.50688645 	0.003372412 	0
0.0033417085 	0.50688452 	0.0033715767 	0
0.0033668342 	0.50688259 	0.0033707413 	0
0.0033919598 	0.50688066 	0.003369906 	0
0.0034170854 	0.50687838 	0.0033689189 	0
0.0034422111 	0.50687528 	0.0033675766 	0
0.0034673367 	0.50687217 	0.0033662343 	0
0.0034924623 	0.50686907 	0.003364892 	0
0.0035175879 	0.50686597 	0.0033635497 	0
0.0035427136 	0.50686367 	0.0033626683 	0
0.0035678392 	0.50686137 	0.0033617884 	0
0.0035929648 	0.50685907 	0.0033609085 	0
0.0036180905 	0.50685677 	0.0033600285 	0
0.0036432161 	0.50685414 	0.0033589104 	0
0.0036683417 	0.50685121 	0.0033575797 	0
0.0036934673 	0.50684829 	0.0033562489 	0
0.003718593 	0.50684536 	0.0033549182 	0
0.0037437186 	0.50684246 	0.0033536096 	0
0.0037688442 	0.50683993 	0.0033526874 	0
0.0037939698 	0.50683739 	0.0033517652 	0
0.0038190955 	0.50683486 	0.0033508429 	0
0.0038442211 	0.50683233 	0.0033499207 	0
0.0038693467 	0.50682966 	0.0033488352 	0
0.0038944724 	0.5068268 	0.0033475129 	0
0.003919598 	0.50682394 	0.0033461906 	0
0.0039447236 	0.50682108 	0.0033448683 	0
0.0039698492 	0.50681823 	0.003343546 	0
0.0039949749 	0.5068155 	0.003342496 	0
0.0040201005 	0.50681281 	0.0033415343 	0
0.0040452261 	0.50681013 	0.0033405725 	0
0.0040703518 	0.50680744 	0.0033396107 	0
0.0040954774 	0.50680475 	0.0033386398 	0
0.004120603 	0.50680191 	0.0033373581 	0
0.0041457286 	0.50679906 	0.0033360407 	0
0.0041708543 	0.5067962 	0.0033347233 	0
0.0041959799 	0.50679335 	0.0033334059 	0
0.0042211055 	0.5067905 	0.0033321162 	0
0.0042462312 	0.50678771 	0.0033311177 	0
0.0042713568 	0.50678492 	0.0033301191 	0
0.0042964824 	0.50678213 	0.0033291206 	0
0.004321608 	0.50677934 	0.0033281221 	0
0.0043467337 	0.50677654 	0.0033270916 	0
0.0043718593 	0.50677366 	0.0033257867 	0
0.0043969849 	0.50677077 	0.0033244706 	0
0.0044221106 	0.50676789 	0.0033231544 	0
0.0044472362 	0.506765 	0.0033218382 	0
0.0044723618 	0.50676212 	0.0033205315 	0
0.0044974874 	0.50675925 	0.003319499 	0
0.0045226131 	0.50675638 	0.0033184665 	0
0.0045477387 	0.50675351 	0.003317434 	0
0.0045728643 	0.50675064 	0.0033164015 	0
0.0045979899 	0.50674776 	0.003315369 	0
0.0046231156 	0.50674484 	0.003314104 	0
0.0046482412 	0.50674191 	0.0033127854 	0
0.0046733668 	0.50673899 	0.0033114668 	0
0.0046984925 	0.50673606 	0.0033101482 	0
0.0047236181 	0.50673313 	0.0033088296 	0
0.0047487437 	0.50673019 	0.0033076586 	0
0.0047738693 	0.50672725 	0.0033065947 	0
0.004798995 	0.50672431 	0.0033055308 	0
0.0048241206 	0.50672137 	0.0033044669 	0
0.0048492462 	0.50671843 	0.0033034031 	0
0.0048743719 	0.50671548 	0.0033022995 	0
0.0048994975 	0.50671251 	0.003300975 	0
0.0049246231 	0.50670953 	0.0032996504 	0
0.0049497487 	0.50670655 	0.0032983258 	0
0.0049748744 	0.50670358 	0.0032970013 	0
0.005 	0.5067006 	0.0032956767 	0
