/*--------------------------------*- C++ -*----------------------------------*\
| =========                 |                                                 |
| \\      /  F ield         | OpenFOAM: The Open Source CFD Toolbox           |
|  \\    /   O peration     | Version:  5.x                                   |
|   \\  /    A nd           | Web:      www.OpenFOAM.org                      |
|    \\/     M anipulation  |                                                 |
\*---------------------------------------------------------------------------*/
FoamFile
{
    version     2.0;
    format      ascii;
    class       volScalarField;
    location    "1";
    object      p;
}
// * * * * * * * * * * * * * * * * * * * * * * * * * * * * * * * * * * * * * //

dimensions      [0 2 -2 0 0 0 0];

internalField   nonuniform List<scalar> 
2475
(
0.034029
0.0299698
0.0238076
0.0179469
0.0122219
0.00629415
0.000633414
-0.00334281
-0.00467451
-0.00393542
-0.00244223
-0.00109232
-0.000205661
0.000251604
0.000430887
0.000469951
0.000460913
0.000444109
0.000431097
0.000414859
0.000396966
0.000370344
0.000327511
0.000274155
0.000225778
0.000173107
0.000123456
7.56247e-05
2.91997e-05
-1.88277e-05
-6.2994e-05
-8.85246e-05
-0.000113288
-8.74536e-05
-9.57384e-05
0.0306734
0.028564
0.0233699
0.0176976
0.0120864
0.00638625
0.00095456
-0.00295489
-0.00438743
-0.00375812
-0.00232809
-0.00101485
-0.000152494
0.000290118
0.000460901
0.000494709
0.000481927
0.000462272
0.000446855
0.000428663
0.000409078
0.000381199
0.000337132
0.0002828
0.00023348
0.000180123
0.000129669
8.13619e-05
3.42751e-05
-1.40774e-05
-5.88587e-05
-8.45415e-05
-0.000109888
-8.40333e-05
-9.2833e-05
0.0280573
0.0272143
0.0230137
0.0175917
0.0120705
0.00663622
0.00157165
-0.00220616
-0.00383404
-0.00346659
-0.00218655
-0.00094143
-0.000103749
0.000330158
0.000496474
0.000526616
0.000510072
0.000486497
0.000467417
0.000445972
0.000423642
0.00039355
0.000347641
0.000291863
0.000241385
0.000187109
0.000135788
8.68658e-05
3.9107e-05
-9.67959e-06
-5.50481e-05
-8.09767e-05
-0.000106836
-8.12146e-05
-9.04595e-05
0.0260183
0.025837
0.0225419
0.0175137
0.0121355
0.00695651
0.00225514
-0.00134781
-0.00313407
-0.0030646
-0.00198918
-0.000829588
-1.99039e-05
0.000401264
0.000556943
0.000577703
0.000553019
0.000522085
0.000496835
0.000470369
0.00044411
0.000410842
0.000362481
0.00030463
0.000252444
0.000196694
0.000144151
9.42091e-05
4.54835e-05
-4.08219e-06
-5.02469e-05
-7.67039e-05
-0.000103145
-7.83387e-05
-8.76713e-05
0.0242779
0.0244252
0.0218937
0.0173872
0.012244
0.00730369
0.00291853
-0.000501971
-0.0023971
-0.00260913
-0.0017578
-0.000697929
8.24419e-05
0.000493336
0.000638402
0.000647734
0.000612233
0.000571265
0.000537614
0.000504558
0.000473014
0.0004353
0.000383558
0.000322873
0.000268193
0.000210246
0.000155891
0.000104462
5.43655e-05
3.66502e-06
-4.3657e-05
-7.1012e-05
-9.81865e-05
-7.50504e-05
-8.37516e-05
0.0227105
0.0230316
0.0211059
0.0171942
0.0123833
0.00767731
0.00355369
0.000306949
-0.00165375
-0.00211506
-0.00149556
-0.000552325
0.000192847
0.000596115
0.00073338
0.000731312
0.000683335
0.000630529
0.000587071
0.000546661
0.000509026
0.000466199
0.000410528
0.000346696
0.000288915
0.000228285
0.000171455
0.000118117
6.61307e-05
1.40623e-05
-3.48741e-05
-6.34933e-05
-9.16276e-05
-7.11076e-05
-7.82635e-05
0.0212801
0.0217221
0.0202635
0.0169383
0.0125326
0.00807222
0.00416243
0.00106948
-0.000919215
-0.00158954
-0.00119963
-0.0003899
0.000310345
0.000706441
0.000839213
0.000826568
0.000764582
0.000697847
0.000642921
0.000594317
0.00054995
0.000501663
0.000441685
0.000374686
0.000313483
0.0002501
0.000190299
0.000134858
8.04742e-05
2.70487e-05
-2.39092e-05
-5.40237e-05
-8.34111e-05
-6.62982e-05
-7.12302e-05
0.0200075
0.0205614
0.0194551
0.0166379
0.0126638
0.00846866
0.00474434
0.00178565
-0.000202619
-0.00103956
-0.000867846
-0.000205809
0.000436319
0.000822315
0.000953424
0.00093222
0.000855503
0.000772739
0.000704357
0.000646433
0.00059473
0.00054067
0.000476028
0.00040578
0.000340895
0.00027474
0.000211635
0.000153981
9.67869e-05
4.20573e-05
-1.11635e-05
-4.29033e-05
-7.38027e-05
-6.06174e-05
-6.32361e-05
0.0189304
0.0196002
0.0187368
0.0163196
0.0127586
0.008849
0.00530385
0.00246577
0.0004945
-0.000471887
-0.00050069
4.35726e-06
0.000573858
0.000943184
0.00107426
0.00104769
0.000956712
0.000856098
0.00077196
0.00070319
0.000643353
0.000583075
0.000513407
0.00043972
0.00037088
0.000301791
0.000235124
0.000175071
0.000114783
5.86164e-05
3.04538e-06
-3.05481e-05
-6.3095e-05
-5.42384e-05
-5.50002e-05
0.0180065
0.0188089
0.0181212
0.0160017
0.012809
0.00919676
0.00583717
0.00311143
0.00116679
0.000102565
-0.000104392
0.000242228
0.000726114
0.00106955
0.00120013
0.0011718
0.00106835
0.000948739
0.000846457
0.000764968
0.00069595
0.000628906
0.000553894
0.000476517
0.000403455
0.000331146
0.000260701
0.00019796
0.00013443
7.65051e-05
1.86016e-05
-1.72368e-05
-5.14539e-05
-4.73146e-05
-4.69665e-05
0.0171572
0.0181079
0.0175825
0.0156966
0.0128159
0.00949635
0.00633186
0.00371619
0.00180635
0.000673246
0.000312835
0.000506817
0.000895997
0.00120297
0.00132963
0.00130212
0.00118914
0.00105072
0.0009284
0.000832166
0.000752676
0.000678153
0.000597463
0.000516136
0.000438647
0.00036278
0.000288385
0.000222593
0.000155755
9.56536e-05
3.54852e-05
-3.08112e-06
-3.89729e-05
-3.99041e-05
-3.93256e-05
0.0163412
0.0174552
0.017099
0.0154146
0.0127938
0.00974354
0.00677923
0.00427746
0.0024108
0.00123416
0.00074651
0.000797817
0.00108722
0.00134719
0.00146288
0.00143691
0.00131805
0.00116255
0.00101901
0.00090587
0.000814209
0.000731114
0.000644245
0.000558671
0.000476621
0.000396844
0.000318351
0.000249088
0.000178875
0.000116123
5.37306e-05
1.19497e-05
-2.56988e-05
-3.19763e-05
-3.21174e-05
0.0155458
0.0168368
0.0166585
0.0151617
0.0127606
0.00994619
0.00717727
0.00479479
0.00297889
0.00178056
0.00119221
0.00111333
0.00130153
0.00150556
0.00160134
0.0015753
0.00145405
0.00128422
0.00111909
0.000986956
0.000881224
0.000788176
0.000694488
0.000604309
0.000517574
0.000433498
0.000350752
0.000277577
0.000203909
0.00013804
7.33839e-05
2.7944e-05
-1.16745e-05
-2.34767e-05
-2.53334e-05
0.0147763
0.0162539
0.0162581
0.0149404
0.0127282
0.0101151
0.00752703
0.00526629
0.00350739
0.00230536
0.0016427
0.00144858
0.00153774
0.00168055
0.00174806
0.00171742
0.00159564
0.00141459
0.00122866
0.00107611
0.00095446
0.000849784
0.000748362
0.00065307
0.000561543
0.000472846
0.000385737
0.000308215
0.000230945
0.000161507
9.44561e-05
4.49977e-05
3.06195e-06
-1.43701e-05
-1.89604e-05
0.0140439
0.0157106
0.0158944
0.0147461
0.012699
0.0102567
0.00782975
0.00568915
0.00399272
0.00280058
0.002089
0.00179876
0.00179449
0.00187428
0.00190625
0.00186349
0.00174082
0.00155178
0.00134715
0.00117382
0.00103475
0.000916553
0.000806112
0.000705015
0.000608548
0.000514953
0.000423382
0.00034114
0.000260075
0.000186659
0.000116961
6.3192e-05
1.8483e-05
-4.64411e-06
-1.29673e-05
0.0133526
0.0152036
0.0155584
0.014569
0.0126707
0.0103746
0.00808837
0.00606214
0.00443225
0.0032598
0.00252243
0.00215934
0.00206971
0.00208632
0.00207778
0.00201473
0.00188862
0.00169452
0.00147387
0.00128014
0.00112259
0.000989054
0.000868076
0.000760307
0.000658669
0.000559919
0.000463758
0.000376486
0.000291373
0.000213627
0.000140928
8.26087e-05
3.45774e-05
5.69096e-06
-7.33594e-06
0.0126982
0.0147252
0.015243
0.0144036
0.0126423
0.0104733
0.00830843
0.00638666
0.00482539
0.00368083
0.00293583
0.00252323
0.0023591
0.00231404
0.00226364
0.0021741
0.00203976
0.00184194
0.00160782
0.00139462
0.00121827
0.00106803
0.000934903
0.000819279
0.000711979
0.000607841
0.00050698
0.000414467
0.000324989
0.000242585
0.000166424
0.000103349
5.14023e-05
1.66483e-05
-1.85014e-06
0.0120793
0.014273
0.0149463
0.0142474
0.0126122
0.0105549
0.00849303
0.00666375
0.00517178
0.0040628
0.00332212
0.00288045
0.00265723
0.00255503
0.00246417
0.00234422
0.00219499
0.00199241
0.00174705
0.001516
0.00132161
0.00115397
0.00100707
0.00088218
0.000768494
0.000658648
0.000552935
0.000455057
0.000360922
0.000273605
0.00019348
0.000125397
6.89358e-05
2.8142e-05
3.39751e-06
0.0115054
0.0138514
0.0146684
0.0140976
0.0125772
0.0106192
0.00864466
0.00689689
0.00547321
0.00440583
0.0036774
0.00322283
0.00295937
0.00280754
0.00267813
0.0025262
0.00235564
0.00214549
0.00189086
0.00164359
0.00143213
0.00124697
0.0010848
0.000949229
0.000828385
0.00071247
0.000601671
0.000498346
0.000399228
0.000306717
0.000222111
0.000148784
8.72161e-05
4.01248e-05
8.33084e-06
0.0109775
0.0134585
0.0144044
0.0139497
0.0125329
0.010665
0.00876746
0.00709231
0.0057336
0.00471155
0.00400237
0.00354583
0.00325932
0.00306795
0.00290221
0.0027191
0.00252331
0.00230206
0.00203897
0.00177657
0.00154895
0.00134716
0.00116894
0.00102124
0.000892088
0.000769485
0.000653217
0.000544413
0.000440091
0.000342214
0.000252562
0.000173645
0.000106372
5.26895e-05
1.36614e-05
0.0104793
0.0130835
0.014146
0.0137973
0.0124746
0.0106896
0.0088622
0.00725081
0.00595133
0.00497585
0.00429284
0.00384274
0.0035471
0.00332872
0.00313147
0.00292082
0.0026991
0.00246244
0.00219007
0.00191314
0.00166996
0.00145296
0.00125881
0.00109785
0.000959346
0.000829486
0.00070742
0.000593029
0.000483236
0.000379732
0.000284636
0.000199819
0.000126343
6.56377e-05
1.87146e-05
0.0100108
0.0127278
0.0138952
0.0136427
0.0124055
0.0106967
0.00893378
0.00737739
0.00613019
0.0052003
0.00454913
0.00411285
0.00381742
0.0035848
0.00336356
0.00312935
0.00288221
0.00262599
0.00234282
0.00205247
0.00179461
0.00156372
0.00135419
0.00117932
0.00103054
0.000892562
0.000764044
0.000643906
0.00052859
0.000419357
0.000318421
0.000227247
0.000147074
7.89219e-05
2.33332e-05
0.00958553
0.012402
0.0136613
0.0134928
0.0123312
0.0106901
0.00898506
0.0074767
0.00627583
0.00539006
0.00477443
0.00435799
0.00406797
0.00383086
0.00359501
0.00334157
0.00307102
0.00279395
0.00249895
0.00219562
0.00192277
0.00167872
0.00145471
0.00126564
0.00110588
0.000959213
0.000823657
0.000697534
0.000576441
0.000461211
0.000354035
0.000256217
0.000168859
9.28491e-05
2.88207e-05
0.00919198
0.0120979
0.0134381
0.013342
0.0122456
0.0106628
0.00900975
0.00754634
0.00638852
0.00554529
0.00496608
0.00457394
0.00429471
0.00406091
0.00381936
0.00355186
0.00326208
0.0029654
0.00265728
0.00234034
0.0020518
0.00179553
0.00155896
0.00135609
0.0011849
0.00102901
0.000885791
0.000753217
0.000626139
0.000504887
0.000391305
0.000286446
0.000191452
0.00010719
3.41724e-05
0.00881876
0.0118064
0.0132192
0.0131863
0.0121466
0.0106157
0.00901098
0.00759067
0.00647184
0.00566669
0.0051219
0.00475724
0.00449467
0.00426982
0.00403011
0.00375532
0.00345158
0.00313723
0.00281522
0.00248541
0.00218166
0.00191351
0.00166553
0.00144924
0.00126653
0.00110127
0.000950006
0.000810785
0.000677661
0.000550078
0.000429785
0.000317655
0.00021478
0.000121852
3.89597e-05
0.00847417
0.0115335
0.0130102
0.0130328
0.0120429
0.010558
0.00899586
0.00761352
0.00652818
0.00575647
0.00524476
0.00490992
0.00466877
0.00445698
0.00422455
0.00394943
0.00363723
0.00330715
0.00297155
0.00263086
0.0023124
0.00203138
0.00177264
0.00154415
0.00135064
0.00117634
0.00101671
0.000870216
0.000730588
0.000596652
0.000469633
0.000350044
0.000238869
0.000137029
4.4724e-05
0.00816206
0.0112831
0.0128145
0.0128841
0.0119357
0.0104888
0.00896201
0.00761264
0.00655816
0.00581823
0.00533898
0.00503448
0.00481698
0.00462072
0.00439867
0.00412856
0.0038135
0.00347139
0.00312391
0.00277395
0.00244143
0.0021477
0.00187982
0.00164039
0.00143604
0.00125267
0.00108464
0.000930889
0.000784811
0.000644357
0.00051028
0.000383063
0.000263466
0.000152477
5.06806e-05
0.00787819
0.0110522
0.0126291
0.0127371
0.0118222
0.0104065
0.00891004
0.00759073
0.00656553
0.00585503
0.00540552
0.0051293
0.00493565
0.00475692
0.00454828
0.00428723
0.00397497
0.003627
0.00327034
0.00291218
0.00256725
0.00226131
0.00198496
0.00173548
0.00152103
0.00132946
0.0011537
0.000992547
0.00083963
0.000692278
0.000551254
0.000416399
0.000288348
0.000167755
5.5456e-05
0.00761666
0.0108355
0.0124506
0.0125907
0.0117037
0.0103145
0.00884398
0.00755058
0.00655058
0.00586503
0.00544136
0.00519119
0.0050228
0.00486559
0.00467419
0.00442476
0.00411836
0.00376971
0.00340625
0.00304161
0.00268836
0.00237122
0.00208633
0.0018288
0.00160566
0.00140657
0.00122338
0.00105469
0.000895073
0.000741079
0.000592887
0.000450104
0.000313596
0.000183407
5.93588e-05
0.00736615
0.0106248
0.0122745
0.0124434
0.0115803
0.0102119
0.00876118
0.00748745
0.00650768
0.00584323
0.00544278
0.00521775
0.00507581
0.00494242
0.0047701
0.00453468
0.00423696
0.00389236
0.00352618
0.003158
0.00280074
0.00247477
0.00218223
0.0019187
0.00168798
0.00148202
0.00129273
0.00111792
0.000951773
0.000790863
0.00063541
0.000485153
0.000340182
0.000201352
6.98024e-05
0.00679993
0.0101476
0.0118746
0.012103
0.011283
0.00994804
0.00852765
0.00728516
0.00634025
0.00571631
0.00536398
0.00519258
0.00510555
0.00502378
0.00489728
0.00470217
0.00443563
0.00411069
0.00374911
0.00337746
0.00301447
0.00267492
0.00236926
0.00209595
0.00185249
0.00163512
0.00143543
0.0012478
0.00106856
0.000894472
0.000724052
0.000557198
0.000394096
0.000235107
7.99103e-05
0.0070429
0.0102903
0.0119068
0.0120241
0.0111052
0.00969331
0.0082226
0.00695599
0.00601105
0.00540832
0.00509395
0.0049721
0.00493972
0.00491153
0.00483263
0.00467767
0.00444412
0.00414595
0.00380598
0.0034499
0.0030992
0.00276876
0.00246735
0.00219676
0.00195481
0.00173592
0.00153291
0.00134013
0.001153
0.000968247
0.000784937
0.000603099
0.00042347
0.000247421
7.6924e-05
0.0055923
0.00882267
0.0104837
0.0106999
0.00991239
0.00864017
0.00729973
0.00614579
0.00529301
0.00475892
0.00448816
0.00438916
0.00437023
0.00435881
0.00430705
0.00419161
0.00401107
0.00377921
0.00351454
0.00323421
0.00295416
0.00268787
0.00244022
0.00221001
0.0019965
0.00179642
0.00160424
0.00141669
0.00123155
0.0010469
0.000861988
0.000676419
0.000489521
0.000300204
0.000106729
0.00437648
0.000949656
-0.000891655
-0.00127449
-0.000646302
0.00046692
0.00164177
0.00261777
0.00327708
0.00359991
0.00364004
0.00348889
0.00324018
0.00296954
0.00272759
0.00253928
0.00240686
0.00231792
0.00225523
0.00220214
0.00214276
0.00206447
0.00196434
0.00184406
0.00170507
0.00155244
0.00139227
0.00122807
0.00106255
0.00089749
0.000733161
0.000569189
0.000405153
0.000240879
7.69481e-05
0.00321216
-0.000246106
-0.00206655
-0.00238096
-0.00165802
-0.000448717
0.00080831
0.00184866
0.00255443
0.00290527
0.00295641
0.00280493
0.00255416
0.00228844
0.00206217
0.00190113
0.00180929
0.00177444
0.00177492
0.00178711
0.00179111
0.00177355
0.0017278
0.00165253
0.00155128
0.00143025
0.00129569
0.00115319
0.00100709
0.000859745
0.000711815
0.000562685
0.000410769
0.000253962
9.00929e-05
0.00398032
0.000392903
-0.00157591
-0.00204803
-0.001476
-0.000396486
0.000758279
0.0017234
0.00237826
0.00269853
0.00273302
0.00257197
0.00231271
0.00203576
0.00179472
0.00161676
0.00150817
0.00145951
0.00145209
0.00146438
0.00147734
0.00147677
0.0014538
0.00140523
0.00133212
0.00123808
0.00112841
0.00100847
0.00088249
0.000753325
0.000622406
0.000489846
0.000354936
0.000216597
7.38399e-05
0.00361956
1.89276e-05
-0.00196199
-0.00244516
-0.00188294
-0.000811677
0.000336678
0.00129731
0.00194954
0.00226888
0.00230382
0.00214425
0.00188724
0.00161318
0.00137583
0.00120265
0.00110026
0.00105966
0.00106262
0.00108804
0.00111688
0.0011348
0.00113305
0.00110806
0.00106025
0.000992742
0.000910036
0.000816679
0.000716527
0.000612311
0.000505585
0.000396884
0.000286128
0.000172971
5.72546e-05
0.0035806
-1.81741e-05
-0.00200059
-0.0024881
-0.00193219
-0.000868381
0.000271996
0.00122455
0.00186884
0.00218055
0.00220827
0.00204188
0.00177848
0.00149857
0.00125596
0.00107817
0.000971894
0.000928283
0.000929283
0.000953975
0.000983453
0.00100357
0.00100574
0.000986426
0.000946051
0.000887672
0.000815559
0.000734029
0.000646647
0.000555801
0.000462667
0.00036733
0.000269077
0.000166703
5.88611e-05
0.00341394
-0.000187156
-0.00217217
-0.00266271
-0.00211027
-0.00105022
8.62625e-05
0.00103492
0.00167542
0.00198353
0.00200789
0.00183847
0.00157245
0.00129033
0.001046
0.000867067
0.000760305
0.000716967
0.000719083
0.00074583
0.00077842
0.000802797
0.000810442
0.000797875
0.000765571
0.000716578
0.000655154
0.000585588
0.000511425
0.000435085
0.000357857
0.000280085
0.000201534
0.000121753
4.04574e-05
0.00324309
-0.000356721
-0.00234048
-0.00282982
-0.00227624
-0.00121505
-7.7369e-05
0.000872639
0.00151469
0.00182455
0.00185087
0.00168361
0.00141991
0.00114027
0.000898592
0.000722493
0.0006188
0.000578799
0.000584565
0.000615339
0.000652404
0.000681757
0.000694944
0.000688577
0.000663196
0.000621896
0.000568972
0.000508712
0.000444625
0.000379047
0.000313114
0.000246922
0.00017985
0.000110896
3.9049e-05
0.00310017
-0.000498059
-0.00248061
-0.002969
-0.00241455
-0.00135247
-0.000213821
0.000737255
0.00138046
0.00169156
0.00171917
0.00155324
0.00129091
0.00101273
0.00077262
0.000598232
0.000496426
0.000458542
0.000466712
0.000500222
0.000540383
0.000573229
0.000590335
0.000588306
0.000567687
0.000531603
0.000484386
0.000430381
0.00037317
0.000315174
0.000257644
0.00020084
0.000144369
8.75537e-05
2.98261e-05
0.00297555
-0.000621651
-0.00260332
-0.00309094
-0.00253575
-0.0014729
-0.000333412
0.000618599
0.00126285
0.0015751
0.00160396
0.00143937
0.00117848
0.000901842
0.00066339
0.000490804
0.000390968
0.000355245
0.000365799
0.000401944
0.000445014
0.000481075
0.000501738
0.000503654
0.000487414
0.000456195
0.000414372
0.000366337
0.000315712
0.000264955
0.000215336
0.000167114
0.000119862
7.28278e-05
2.53292e-05
0.00287347
-0.000723141
-0.00270413
-0.00319098
-0.00263496
-0.00157122
-0.000430772
0.000522263
0.00116761
0.00148104
0.00151115
0.00134791
0.00108846
0.00081335
0.000576541
0.00040572
0.000307787
0.000274126
0.000286916
0.000325492
0.000371209
0.000410155
0.000433962
0.000439305
0.000426796
0.000399629
0.000362199
0.000318907
0.000273384
0.000228096
0.000184317
0.000142311
0.000101653
6.16022e-05
2.14878e-05
0.00280071
-0.000795401
-0.00277585
-0.00326213
-0.00270549
-0.00164109
-0.000499921
0.000453892
0.00110008
0.00141441
0.0014455
0.00128328
0.00102491
0.000750955
0.000515373
0.000345861
0.000249329
0.000217175
0.000231591
0.000271923
0.000319539
0.000360536
0.00038656
0.0003943
0.000384376
0.000359997
0.00032557
0.000285513
0.000243471
0.000201927
0.000162171
0.000124487
8.84715e-05
5.34083e-05
1.8659e-05
0.00276203
-0.000833421
-0.00281338
-0.0032993
-0.00274242
-0.00167781
-0.000536441
0.000417614
0.0010641
0.0013788
0.00141032
0.00124861
0.000990811
0.000717485
0.000482586
0.000313807
0.000218052
0.00018672
0.000202008
0.000243272
0.000291886
0.000333956
0.00036114
0.000370136
0.000361576
0.000338676
0.000305853
0.000267533
0.000227368
0.000187849
0.000150276
0.000114937
8.14386e-05
4.90709e-05
1.72012e-05
0.0124201
0.010345
0.0102007
0.0100554
0.010149
0.009682
0.00997284
0.00985551
0.009907
0.0102543
0.0107312
0.0112394
0.0117507
0.0127214
0.014056
0.0158214
0.0181172
0.0210044
0.0245842
0.0287735
0.0124252
0.0103335
0.010207
0.0100345
0.0101568
0.00966467
0.00998676
0.00982661
0.00992625
0.0102029
0.0107501
0.0111397
0.0117765
0.0126703
0.0140772
0.0157505
0.0180833
0.0207266
0.0238684
0.0271426
0.012426
0.0103196
0.0102131
0.0100136
0.0101624
0.00964686
0.00999796
0.0097975
0.0099427
0.0101506
0.0107628
0.0110656
0.0117895
0.0126255
0.0140643
0.015656
0.0179045
0.0202342
0.0228396
0.0254216
0.0124209
0.0103051
0.0102195
0.00999233
0.0101637
0.00963198
0.010006
0.00977333
0.00995176
0.0101146
0.0107495
0.0110245
0.0117516
0.0126
0.0139846
0.015517
0.0175386
0.0195832
0.0217004
0.0238489
0.012412
0.0102908
0.0102264
0.00997139
0.0101623
0.00962304
0.0100081
0.0097604
0.00994551
0.0100965
0.0107009
0.0110011
0.0116716
0.0125517
0.0138454
0.0152929
0.0170477
0.018811
0.0205598
0.0224049
0.0124009
0.0102783
0.0102327
0.00995346
0.0101568
0.00962215
0.00999914
0.00976176
0.00991772
0.0101126
0.0106283
0.0109661
0.0115744
0.0124467
0.0136362
0.0149628
0.0164673
0.0179704
0.019442
0.021045
0.0123878
0.0102691
0.0102364
0.0099406
0.0101431
0.00963156
0.00997526
0.00977853
0.00986633
0.0101144
0.0105546
0.0109101
0.0114577
0.0122738
0.0133301
0.014504
0.015801
0.017103
0.0183653
0.0197714
0.0123718
0.0102654
0.0102352
0.00993465
0.0101179
0.00965193
0.00993544
0.009804
0.0098085
0.0101008
0.01049
0.0108299
0.0113156
0.0120464
0.0129315
0.0138778
0.0149437
0.0161412
0.0174076
0.0185922
0.0123517
0.0102695
0.0102274
0.00993585
0.0100808
0.00967929
0.00988808
0.00981897
0.00976966
0.0100681
0.0104329
0.0107293
0.0111427
0.01176
0.0124943
0.0132188
0.0140219
0.0149642
0.0160268
0.0173893
0.0123252
0.0102848
0.010212
0.00994458
0.0100315
0.00970968
0.0098417
0.00982069
0.00975078
0.0100222
0.0103672
0.0106096
0.0109299
0.0113808
0.0118867
0.0124008
0.0130056
0.0137691
0.0147935
0.0162788
0.0122898
0.0103141
0.0101884
0.00995986
0.00997315
0.00973659
0.00980899
0.00981258
0.00973024
0.00996441
0.0102703
0.0104108
0.0105907
0.0109045
0.0112406
0.0115687
0.0119942
0.0126381
0.013655
0.0152562
0.0122441
0.0103603
0.0101575
0.00997515
0.00991854
0.00974338
0.00979955
0.0097967
0.00970493
0.00986222
0.0100846
0.0101458
0.0102128
0.0103912
0.0105773
0.0107419
0.0110134
0.0115627
0.0125762
0.0142802
0.0121857
0.0104255
0.0101226
0.00998303
0.00987857
0.00973165
0.00978301
0.0097657
0.00962424
0.0097078
0.00986779
0.00985856
0.00981219
0.00985327
0.00990547
0.00992834
0.0100612
0.0105193
0.0115256
0.013325
0.0121135
0.010508
0.0100963
0.00997642
0.0098553
0.0097091
0.00972796
0.00968128
0.00951545
0.00953493
0.00962819
0.00955202
0.00939555
0.00929723
0.00921598
0.00911176
0.0091219
0.00949553
0.0104965
0.0123908
0.0120283
0.0105967
0.010089
0.0099605
0.00982626
0.00966754
0.00965215
0.00958277
0.00939034
0.00934308
0.00936715
0.00922354
0.00896121
0.00872077
0.00850031
0.00828041
0.0081908
0.00849637
0.00949987
0.0114909
0.01193
0.0106827
0.0101172
0.0099397
0.00978435
0.00961105
0.00956066
0.00946335
0.00924474
0.00913343
0.00908221
0.00886646
0.00849978
0.00811955
0.00776365
0.00744146
0.00727793
0.00753757
0.00855204
0.0106375
0.0118189
0.0107631
0.0101693
0.00991875
0.00972866
0.00953593
0.00944836
0.00932221
0.00907948
0.00890291
0.00876623
0.0084723
0.00800872
0.00750248
0.0070233
0.00661165
0.00639358
0.00662668
0.0076585
0.00983206
0.0116983
0.0108274
0.0102456
0.00990806
0.00966283
0.00943968
0.00931365
0.00915786
0.00888851
0.00864445
0.00841959
0.00804716
0.00749772
0.00688349
0.00629408
0.00580125
0.00553916
0.00576031
0.00681692
0.00907335
0.0115802
0.010866
0.0103197
0.00990963
0.00959472
0.00932681
0.00915333
0.00896187
0.00866532
0.00836267
0.00805448
0.00760436
0.00697535
0.00626514
0.0055811
0.00501744
0.00472073
0.00494261
0.0060338
0.00837099
0.0114704
0.0108926
0.0103682
0.00991967
0.0095266
0.00919077
0.00895849
0.00872761
0.00840976
0.00805924
0.00767261
0.0071447
0.00644062
0.00564838
0.00488605
0.00426582
0.00394522
0.0041774
0.00531044
0.00772624
0.0113633
0.0108579
0.0104106
0.0099955
0.00951668
0.00905071
0.00872111
0.00844698
0.00811554
0.00772635
0.00726801
0.00666638
0.005897
0.00503734
0.00421196
0.00354706
0.00320945
0.00345475
0.00463036
0.00712069
0.0112791
0.0108373
0.0103856
0.00991878
0.00946772
0.0089933
0.00853069
0.00818101
0.00781592
0.00738078
0.00685359
0.0061833
0.00535779
0.00444511
0.00357025
0.00286939
0.00251843
0.00277644
0.00399226
0.00655258
0.0112355
0.0108735
0.0103491
0.00979421
0.0092683
0.00877206
0.00834194
0.00795939
0.00753741
0.00703648
0.00643757
0.00570256
0.0048289
0.00387986
0.00296995
0.00224263
0.0018831
0.00215506
0.00340958
0.00603583
0.011181
0.010839
0.0102818
0.00966684
0.00908929
0.00858688
0.00815478
0.00773676
0.00725739
0.00668794
0.00601909
0.00522567
0.00431037
0.00333353
0.00240079
0.00165726
0.00129512
0.00158273
0.00287361
0.00555974
0.0111136
0.0107922
0.0102157
0.0095501
0.00892591
0.00839388
0.00793913
0.00748537
0.00695907
0.00633208
0.00560109
0.0047538
0.00380141
0.00280215
0.00185526
0.0011038
0.000744079
0.00104827
0.00237265
0.00511226
0.0110432
0.0107308
0.0101261
0.00941898
0.00875221
0.00818514
0.00769641
0.00720724
0.00664345
0.00597167
0.00518895
0.00429593
0.00331335
0.00229755
0.0013433
0.000590392
0.00023703
0.00055849
0.00191398
0.00470168
0.0109636
0.0106497
0.0100164
0.00927078
0.00856696
0.00796608
0.00744365
0.00692011
0.00632268
0.00561435
0.0047893
0.00386098
0.00285532
0.00182795
0.000870958
0.000121355
-0.000222444
0.000116878
0.00150121
0.00433177
0.0108681
0.0105484
0.00988713
0.00910736
0.00837051
0.00773944
0.00718733
0.006633
0.0060052
0.00526698
0.00440967
0.00345241
0.00242746
0.00139061
0.000432547
-0.00031125
-0.000642591
-0.000283998
0.00112788
0.00399716
0.010753
0.010423
0.0097393
0.00892776
0.00816262
0.00750714
0.00693161
0.00635342
0.00570039
0.00493771
0.00405631
0.00307633
0.00203493
0.000988652
2.73011e-05
-0.000713931
-0.00103317
-0.000653463
0.000785801
0.00369096
0.0106163
0.0102791
0.00956836
0.0087299
0.00794349
0.00727163
0.0066801
0.00608672
0.00541773
0.00463792
0.00373986
0.00274461
0.00169091
0.000636482
-0.000328632
-0.00106871
-0.00138389
-0.000993059
0.000469315
0.00340366
0.0102283
0.00987272
0.0091132
0.00822451
0.00740486
0.00671471
0.00610932
0.00550495
0.00482611
0.00403239
0.00312071
0.00211095
0.00104341
-2.13854e-05
-0.000994426
-0.00174292
-0.00206903
-0.00168655
-0.000217713
0.0027599
0.00923464
0.00889769
0.00818709
0.00736661
0.00663014
0.00603291
0.00552478
0.00502457
0.00446757
0.00381582
0.00305499
0.00219099
0.00125034
0.00028404
-0.000623424
-0.00133875
-0.00165965
-0.00129492
0.000139054
0.00307126
0.00818298
0.0080151
0.00751885
0.00694643
0.00645423
0.00605312
0.00566098
0.00518826
0.00457321
0.00379669
0.0028703
0.00182421
0.000703196
-0.000430359
-0.00148821
-0.00233687
-0.00277677
-0.00251715
-0.00117296
0.00168505
0.00455557
0.00468704
0.00512031
0.00561246
0.00601035
0.00630295
0.00657251
0.00691152
0.00737927
0.00799672
0.00875683
0.00963358
0.0105851
0.0115506
0.0124426
0.0131275
0.0134057
0.0129869
0.0114853
0.00846821
0.00365418
0.00396159
0.00461716
0.0053684
0.006021
0.00650991
0.00687754
0.00720712
0.0075779
0.00804355
0.00862804
0.00932838
0.0101177
0.0109433
0.0117188
0.0123082
0.0125055
0.0120145
0.0104461
0.00736714
0.0026405
0.00302912
0.00383386
0.00477646
0.00564457
0.0063579
0.00694919
0.00749981
0.00808608
0.00875208
0.0095098
0.0103464
0.0112293
0.0121041
0.0128868
0.0134473
0.0135883
0.0130247
0.011379
0.0082268
0.00215798
0.00259498
0.00346876
0.00449573
0.00545316
0.00624677
0.00689696
0.00747787
0.00806457
0.00870791
0.00942914
0.0102234
0.0110633
0.0118982
0.0126456
0.0131758
0.0132915
0.0127071
0.0110445
0.0078791
0.00176896
0.00222287
0.00312311
0.00418268
0.00517561
0.00600416
0.0066862
0.00729513
0.00790622
0.00857038
0.00930908
0.0101181
0.010971
0.0118171
0.0125739
0.0131117
0.0132333
0.0126538
0.0109958
0.00783532
0.00147811
0.00194158
0.00285739
0.00393649
0.00495082
0.00580048
0.00650168
0.00712671
0.00775043
0.00842375
0.00916835
0.00998021
0.010833
0.0116765
0.0124292
0.0129622
0.0130791
0.0124953
0.0108338
0.00767087
0.00124533
0.00171304
0.00263552
0.00372291
0.00474621
0.00560437
0.00631255
0.00694275
0.00756997
0.00824549
0.0089914
0.00980402
0.0106573
0.0115013
0.0122544
0.0127879
0.0129053
0.0123221
0.0106612
0.00749896
0.00105127
0.00152098
0.00244674
0.00353817
0.00456584
0.00542838
0.00614072
0.00677454
0.00740477
0.00808274
0.00883066
0.00964501
0.0104999
0.0113457
0.0121007
0.012636
0.0127553
0.0121739
0.0105147
0.00735423
0.000892074
0.00136295
0.00229063
0.00338444
0.00441467
0.00527981
0.00599472
0.00663111
0.00726385
0.00794422
0.00869438
0.00951075
0.0103674
0.0112146
0.0119708
0.0125071
0.0126272
0.0120466
0.0103883
0.00722862
0.00076781
0.00123953
0.00216863
0.00326416
0.00429624
0.00516324
0.00587996
0.00651807
0.00715242
0.00783426
0.00858574
0.00940327
0.0102609
0.0111091
0.0118659
0.0124029
0.0125236
0.0119434
0.0102855
0.00712613
0.000679889
0.00115215
0.00208215
0.00317877
0.00421203
0.00508019
0.00579804
0.00643721
0.00707257
0.00775535
0.00850769
0.00932601
0.0101844
0.0110331
0.0117906
0.0123281
0.0124492
0.0118695
0.0102119
0.00705295
0.000632475
0.00110487
0.00203507
0.00313201
0.00416569
0.0050344
0.00575284
0.00639263
0.00702856
0.00771187
0.00846469
0.00928346
0.0101423
0.0109914
0.0117492
0.012287
0.0124085
0.0118291
0.010172
0.0070136
)
;

boundaryField
{
    top
    {
        type            zeroGradient;
    }
    inlet
    {
        type            zeroGradient;
    }
    outlet
    {
        type            fixedValue;
        value           uniform 0;
    }
    plate
    {
        type            zeroGradient;
    }
    symmBound
    {
        type            zeroGradient;
    }
    frontAndBack
    {
        type            empty;
    }
}


// ************************************************************************* //
