/*--------------------------------*- C++ -*----------------------------------*\
| =========                 |                                                 |
| \\      /  F ield         | OpenFOAM: The Open Source CFD Toolbox           |
|  \\    /   O peration     | Version:  5.x                                   |
|   \\  /    A nd           | Web:      www.OpenFOAM.org                      |
|    \\/     M anipulation  |                                                 |
\*---------------------------------------------------------------------------*/
FoamFile
{
    version     2.0;
    format      ascii;
    class       surfaceScalarField;
    location    "1";
    object      phi;
}
// * * * * * * * * * * * * * * * * * * * * * * * * * * * * * * * * * * * * * //

dimensions      [0 3 -1 0 0 0 0];

internalField   nonuniform List<scalar> 
4850
(
7.34159e-08
6.89599e-09
-8.03119e-08
6.46232e-08
8.79275e-09
5.57406e-08
8.88262e-09
4.6917e-08
8.82352e-09
3.82912e-08
8.62589e-09
3.04825e-08
7.80865e-09
2.43902e-08
6.09234e-09
2.04231e-08
3.96708e-09
1.81231e-08
2.29998e-09
1.67209e-08
1.40217e-09
1.57504e-08
9.70527e-10
1.49782e-08
7.72205e-10
1.42851e-08
6.93111e-10
1.3627e-08
6.58073e-10
1.29995e-08
6.27538e-10
1.24077e-08
5.91742e-10
1.18602e-08
5.47544e-10
1.13553e-08
5.04875e-10
1.08926e-08
4.62689e-10
1.04634e-08
4.29229e-10
1.00672e-08
3.96192e-10
9.69442e-09
3.728e-10
9.34522e-09
3.49197e-10
9.01273e-09
3.32494e-10
8.70231e-09
3.10414e-10
8.40345e-09
2.98862e-10
8.1246e-09
2.78847e-10
7.85375e-09
2.70852e-10
7.60173e-09
2.52025e-10
7.35224e-09
2.49485e-10
7.12217e-09
2.30071e-10
6.88969e-09
2.32481e-10
6.67753e-09
2.12164e-10
6.45709e-09
2.20434e-10
2.1303e-10
8.82192e-08
6.40356e-09
-8.77267e-08
8.71838e-08
9.82816e-09
8.50591e-08
1.10073e-08
8.22582e-08
1.16245e-08
7.87215e-08
1.21625e-08
7.44405e-08
1.20897e-08
6.9699e-08
1.08339e-08
6.50641e-08
8.60191e-09
6.09423e-08
6.42183e-09
5.72779e-08
5.06653e-09
5.39335e-08
4.31496e-09
5.08827e-08
3.82296e-09
4.81239e-08
3.4519e-09
4.56389e-08
3.14313e-09
4.34013e-08
2.86515e-09
4.13753e-08
2.61774e-09
3.9539e-08
2.38385e-09
3.7858e-08
2.18581e-09
3.63158e-08
2.00492e-09
3.48834e-08
1.8616e-09
3.35566e-08
1.72301e-09
3.23081e-08
1.62128e-09
3.11419e-08
1.51545e-09
3.00342e-08
1.44012e-09
2.89985e-08
1.3462e-09
2.80039e-08
1.29341e-09
2.70749e-08
1.20786e-09
2.61732e-08
1.17255e-09
2.53346e-08
1.09063e-09
2.45063e-08
1.07776e-09
2.37444e-08
9.91978e-10
2.29728e-08
1.00411e-09
2.22755e-08
9.09459e-10
2.15436e-08
9.52335e-10
8.85812e-10
9.60106e-08
5.99431e-09
-9.56013e-08
9.64488e-08
9.38993e-09
9.63715e-08
1.10846e-08
9.61162e-08
1.18797e-08
9.57046e-08
1.25741e-08
9.48544e-08
1.29399e-08
9.33668e-08
1.23214e-08
9.13664e-08
1.06023e-08
8.91865e-08
8.60169e-09
8.69662e-08
7.28687e-09
8.46493e-08
6.63185e-09
8.22133e-08
6.25893e-09
7.97109e-08
5.95432e-09
7.71848e-08
5.66926e-09
7.46758e-08
5.37416e-09
7.21996e-08
5.09394e-09
6.97846e-08
4.79885e-09
6.74294e-08
4.54094e-09
6.51517e-08
4.28267e-09
6.29421e-08
4.07113e-09
6.08261e-08
3.83905e-09
5.87842e-08
3.66316e-09
5.68436e-08
3.45608e-09
5.49753e-08
3.30838e-09
5.32089e-08
3.11267e-09
5.14964e-08
3.00594e-09
4.98818e-08
2.82237e-09
4.83018e-08
2.75261e-09
4.68229e-08
2.56953e-09
4.5355e-08
2.54565e-09
4.39988e-08
2.34815e-09
4.26202e-08
2.38276e-09
4.13714e-08
2.15821e-09
4.00578e-08
2.26593e-09
2.07304e-09
1.04291e-07
5.86765e-09
-1.04164e-07
1.04863e-07
8.81795e-09
1.05173e-07
1.07743e-08
1.05408e-07
1.16453e-08
1.0577e-07
1.2212e-08
1.06088e-07
1.26217e-08
1.06078e-07
1.23314e-08
1.05626e-07
1.10541e-08
1.04898e-07
9.32986e-09
1.04075e-07
8.11037e-09
1.03144e-07
7.56229e-09
1.02046e-07
7.35755e-09
1.00793e-07
7.20659e-09
9.94029e-08
7.05981e-09
9.79043e-08
6.87279e-09
9.62989e-08
6.69934e-09
9.46119e-08
6.4858e-09
9.28366e-08
6.31632e-09
9.09952e-08
6.12404e-09
8.9072e-08
5.99435e-09
8.71022e-08
5.80885e-09
8.50673e-08
5.69804e-09
8.30213e-08
5.5021e-09
8.09474e-08
5.3822e-09
7.89097e-08
5.15046e-09
7.68598e-08
5.05576e-09
7.48691e-08
4.81314e-09
7.28597e-08
4.76192e-09
7.09344e-08
4.49487e-09
6.8983e-08
4.49708e-09
6.71496e-08
4.18149e-09
6.5261e-08
4.27143e-09
6.35224e-08
3.89681e-09
6.16839e-08
4.10441e-09
3.74595e-09
1.13385e-07
5.87714e-09
-1.13394e-07
1.13893e-07
8.31034e-09
1.14342e-07
1.03245e-08
1.14661e-07
1.13265e-08
1.15088e-07
1.17856e-08
1.15598e-07
1.21114e-08
1.1597e-07
1.1959e-08
1.16027e-07
1.09969e-08
1.15841e-07
9.51664e-09
1.15595e-07
8.35636e-09
1.15331e-07
7.82634e-09
1.14983e-07
7.70559e-09
1.14541e-07
7.64804e-09
1.14002e-07
7.59936e-09
1.13387e-07
7.48735e-09
1.12684e-07
7.40262e-09
1.11906e-07
7.26356e-09
1.1103e-07
7.1922e-09
1.10071e-07
7.08275e-09
1.08994e-07
7.07154e-09
1.0782e-07
6.98316e-09
1.06505e-07
7.01286e-09
1.05091e-07
6.91631e-09
1.03547e-07
6.92639e-09
1.01947e-07
6.74988e-09
1.00246e-07
6.7566e-09
9.85252e-08
6.53435e-09
9.66929e-08
6.59421e-09
9.48565e-08
6.33132e-09
9.29082e-08
6.44533e-09
9.10121e-08
6.07759e-09
8.90006e-08
6.2829e-09
8.70806e-08
5.81681e-09
8.50205e-08
6.16452e-09
5.69031e-09
1.23251e-07
5.93886e-09
-1.23312e-07
1.23652e-07
7.90918e-09
1.24177e-07
9.79926e-09
1.24569e-07
1.09343e-08
1.24974e-07
1.13812e-08
1.25465e-07
1.16206e-08
1.25901e-07
1.15229e-08
1.26094e-07
1.08035e-08
1.26054e-07
9.5569e-09
1.25953e-07
8.45671e-09
1.25882e-07
7.89802e-09
1.25791e-07
7.79645e-09
1.2566e-07
7.77859e-09
1.25478e-07
7.78216e-09
1.2527e-07
7.69518e-09
1.25025e-07
7.64745e-09
1.24758e-07
7.53071e-09
1.24441e-07
7.50894e-09
1.2409e-07
7.4342e-09
1.23665e-07
7.49608e-09
1.23182e-07
7.46665e-09
1.22587e-07
7.6075e-09
1.21902e-07
7.60096e-09
1.21082e-07
7.74699e-09
1.20182e-07
7.64911e-09
1.19164e-07
7.77465e-09
1.18098e-07
7.60115e-09
1.16899e-07
7.79242e-09
1.15629e-07
7.6014e-09
1.14194e-07
7.88046e-09
1.1272e-07
7.55189e-09
1.11103e-07
7.90023e-09
1.09463e-07
7.45602e-09
1.07675e-07
7.95255e-09
7.50689e-09
1.33858e-07
6.02465e-09
-1.33943e-07
1.34171e-07
7.59611e-09
1.34716e-07
9.25422e-09
1.35186e-07
1.04642e-08
1.35591e-07
1.09759e-08
1.36043e-07
1.11686e-08
1.36479e-07
1.10865e-08
1.36727e-07
1.05558e-08
1.36748e-07
9.5362e-09
1.3668e-07
8.52446e-09
1.36645e-07
7.93295e-09
1.36625e-07
7.81682e-09
1.36589e-07
7.81381e-09
1.3652e-07
7.85191e-09
1.36442e-07
7.77296e-09
1.36354e-07
7.73496e-09
1.36273e-07
7.61201e-09
1.36179e-07
7.60335e-09
1.36083e-07
7.52978e-09
1.3596e-07
7.6187e-09
1.3582e-07
7.60679e-09
1.35626e-07
7.80235e-09
1.35383e-07
7.84343e-09
1.35055e-07
8.07459e-09
1.34671e-07
8.0339e-09
1.34209e-07
8.23598e-09
1.33711e-07
8.09984e-09
1.33139e-07
8.36441e-09
1.32491e-07
8.24934e-09
1.31707e-07
8.66461e-09
1.30826e-07
8.43222e-09
1.2985e-07
8.87597e-09
1.2877e-07
8.53646e-09
1.27592e-07
9.1303e-09
8.84406e-09
1.45239e-07
6.08735e-09
-1.45301e-07
1.45501e-07
7.33428e-09
1.46027e-07
8.72793e-09
1.4655e-07
9.94088e-09
1.46983e-07
1.05432e-08
1.4741e-07
1.07419e-08
1.4783e-07
1.06659e-08
1.4811e-07
1.02762e-08
1.48183e-07
9.46289e-09
1.48139e-07
8.56882e-09
1.4811e-07
7.96181e-09
1.48114e-07
7.81252e-09
1.48117e-07
7.81068e-09
1.48094e-07
7.87557e-09
1.48057e-07
7.80997e-09
1.48017e-07
7.77444e-09
1.47987e-07
7.64221e-09
1.47961e-07
7.62964e-09
1.4794e-07
7.55046e-09
1.47916e-07
7.64292e-09
1.47888e-07
7.63412e-09
1.47845e-07
7.8461e-09
1.47779e-07
7.90871e-09
1.4768e-07
8.17426e-09
1.47543e-07
8.17013e-09
1.47381e-07
8.39826e-09
1.47192e-07
8.28913e-09
1.46994e-07
8.56247e-09
1.46746e-07
8.49671e-09
1.46432e-07
8.97951e-09
1.46008e-07
8.85596e-09
1.45564e-07
9.31956e-09
1.45003e-07
9.09743e-09
1.44417e-07
9.71628e-09
9.62234e-09
1.57515e-07
6.11378e-09
-1.57541e-07
1.57721e-07
7.12814e-09
1.58186e-07
8.26266e-09
1.58734e-07
9.39329e-09
1.59204e-07
1.00731e-08
1.59624e-07
1.03217e-08
1.60025e-07
1.02653e-08
1.60323e-07
9.97787e-09
1.60444e-07
9.34159e-09
1.60432e-07
8.58152e-09
1.60409e-07
7.98409e-09
1.60426e-07
7.79598e-09
1.60454e-07
7.78309e-09
1.60464e-07
7.86511e-09
1.6045e-07
7.82355e-09
1.60433e-07
7.79218e-09
1.60417e-07
7.6575e-09
1.60413e-07
7.6343e-09
1.60411e-07
7.55261e-09
1.60413e-07
7.6404e-09
1.60412e-07
7.63487e-09
1.60413e-07
7.84565e-09
1.60401e-07
7.92076e-09
1.60385e-07
8.19037e-09
1.60341e-07
8.21327e-09
1.60302e-07
8.43759e-09
1.60238e-07
8.35316e-09
1.60193e-07
8.60715e-09
1.60123e-07
8.56684e-09
1.6004e-07
9.06281e-09
1.59863e-07
9.03294e-09
1.59714e-07
9.46899e-09
1.59476e-07
9.33528e-09
1.5926e-07
9.93221e-09
9.99033e-09
1.70753e-07
6.0457e-09
-1.70685e-07
1.70946e-07
6.93519e-09
1.71336e-07
7.87275e-09
1.71867e-07
8.86213e-09
1.72368e-07
9.57187e-09
1.72797e-07
9.89262e-09
1.73181e-07
9.88104e-09
1.73487e-07
9.67168e-09
1.73647e-07
9.18251e-09
1.73669e-07
8.55898e-09
1.73658e-07
7.99496e-09
1.73679e-07
7.77509e-09
1.73722e-07
7.74068e-09
1.73759e-07
7.82739e-09
1.73767e-07
7.81596e-09
1.73764e-07
7.79507e-09
1.73756e-07
7.66551e-09
1.73759e-07
7.63103e-09
1.73764e-07
7.54805e-09
1.73774e-07
7.63007e-09
1.7378e-07
7.62891e-09
1.73793e-07
7.83288e-09
1.73797e-07
7.91657e-09
1.7381e-07
8.17736e-09
1.73802e-07
8.22116e-09
1.73807e-07
8.4328e-09
1.73789e-07
8.37096e-09
1.7379e-07
8.60625e-09
1.73777e-07
8.57988e-09
1.73777e-07
9.06238e-09
1.73708e-07
9.10233e-09
1.73679e-07
9.4982e-09
1.7359e-07
9.42433e-09
1.73539e-07
9.98322e-09
1.01417e-08
1.85038e-07
5.91327e-09
-1.84906e-07
1.85246e-07
6.72729e-09
1.85587e-07
7.53255e-09
1.86076e-07
8.37289e-09
1.86586e-07
9.06211e-09
1.87032e-07
9.44604e-09
1.87411e-07
9.5021e-09
1.87719e-07
9.36336e-09
1.87906e-07
8.99637e-09
1.87965e-07
8.49983e-09
1.87969e-07
7.99025e-09
1.87992e-07
7.75244e-09
1.88041e-07
7.69124e-09
1.88098e-07
7.77112e-09
1.88127e-07
7.78714e-09
1.88136e-07
7.78541e-09
1.88134e-07
7.66738e-09
1.8814e-07
7.62517e-09
1.88149e-07
7.5394e-09
1.88163e-07
7.61636e-09
1.88173e-07
7.61892e-09
1.8819e-07
7.8153e-09
1.88202e-07
7.90466e-09
1.88226e-07
8.15322e-09
1.88235e-07
8.21207e-09
1.88256e-07
8.41197e-09
1.88257e-07
8.36981e-09
1.8827e-07
8.59367e-09
1.8827e-07
8.57975e-09
1.88294e-07
9.03832e-09
1.88269e-07
9.12774e-09
1.88281e-07
9.48611e-09
1.88245e-07
9.45958e-09
1.88249e-07
9.97924e-09
1.0204e-08
2.0048e-07
5.74547e-09
-2.00312e-07
2.0071e-07
6.49709e-09
2.01029e-07
7.21288e-09
2.01472e-07
7.9303e-09
2.01969e-07
8.56534e-09
2.02428e-07
8.98728e-09
2.02812e-07
9.11747e-09
2.03123e-07
9.05213e-09
2.03331e-07
8.78908e-09
2.03423e-07
8.40716e-09
2.03448e-07
7.96555e-09
2.03475e-07
7.72539e-09
2.03527e-07
7.63983e-09
2.03594e-07
7.70355e-09
2.03643e-07
7.73815e-09
2.03667e-07
7.76173e-09
2.03672e-07
7.66234e-09
2.03679e-07
7.61789e-09
2.0369e-07
7.52852e-09
2.03707e-07
7.59969e-09
2.0372e-07
7.60519e-09
2.03742e-07
7.79372e-09
2.03759e-07
7.88754e-09
2.03789e-07
8.12382e-09
2.03807e-07
8.19389e-09
2.03835e-07
8.38402e-09
2.03844e-07
8.36049e-09
2.03862e-07
8.57581e-09
2.03863e-07
8.57812e-09
2.03894e-07
9.00811e-09
2.03887e-07
9.1341e-09
2.03914e-07
9.45952e-09
2.03895e-07
9.47829e-09
2.03913e-07
9.96128e-09
1.02345e-08
2.17187e-07
5.55809e-09
-2.16999e-07
2.17436e-07
6.24784e-09
2.17751e-07
6.89768e-09
2.18155e-07
7.52609e-09
2.18627e-07
8.09406e-09
2.19085e-07
8.52921e-09
2.19479e-07
8.72336e-09
2.19797e-07
8.73354e-09
2.20024e-07
8.56223e-09
2.20147e-07
8.28445e-09
2.20194e-07
7.91819e-09
2.20231e-07
7.68844e-09
2.20284e-07
7.5874e-09
2.20358e-07
7.62964e-09
2.20424e-07
7.67179e-09
2.20465e-07
7.72086e-09
2.20479e-07
7.64828e-09
2.2049e-07
7.60734e-09
2.20501e-07
7.5166e-09
2.20521e-07
7.57975e-09
2.20539e-07
7.58799e-09
2.20565e-07
7.76734e-09
2.20586e-07
7.8661e-09
2.2062e-07
8.09046e-09
2.20643e-07
8.17071e-09
2.20675e-07
8.35149e-09
2.20688e-07
8.34769e-09
2.20711e-07
8.5532e-09
2.20712e-07
8.57649e-09
2.20745e-07
8.97554e-09
2.20748e-07
9.13122e-09
2.2078e-07
9.42728e-09
2.20767e-07
9.49117e-09
2.20787e-07
9.94113e-09
1.02527e-08
2.3527e-07
5.35794e-09
-2.3507e-07
2.35531e-07
5.9873e-09
2.35846e-07
6.58247e-09
2.36224e-07
7.14763e-09
2.36665e-07
7.65307e-09
2.37112e-07
8.08258e-09
2.37513e-07
8.32271e-09
2.37842e-07
8.40383e-09
2.38089e-07
8.31561e-09
2.38241e-07
8.13277e-09
2.38312e-07
7.84683e-09
2.38364e-07
7.63667e-09
2.38421e-07
7.53053e-09
2.38498e-07
7.55266e-09
2.38577e-07
7.59249e-09
2.38637e-07
7.66075e-09
2.38663e-07
7.62192e-09
2.3868e-07
7.59037e-09
2.38694e-07
7.50331e-09
2.38717e-07
7.55666e-09
2.38737e-07
7.56755e-09
2.38769e-07
7.73541e-09
2.38795e-07
7.8401e-09
2.38833e-07
8.05262e-09
2.3886e-07
8.14385e-09
2.38896e-07
8.31492e-09
2.38911e-07
8.33272e-09
2.38938e-07
8.52635e-09
2.38941e-07
8.57373e-09
2.38975e-07
8.94115e-09
2.38984e-07
9.12253e-09
2.39018e-07
9.39294e-09
2.3901e-07
9.49982e-09
2.39029e-07
9.92159e-09
1.02642e-08
2.54844e-07
5.14839e-09
-2.54634e-07
2.55109e-07
5.72213e-09
2.55424e-07
6.26764e-09
2.55787e-07
6.78456e-09
2.56199e-07
7.24123e-09
2.56628e-07
7.65306e-09
2.57029e-07
7.92212e-09
2.5737e-07
8.06305e-09
2.57635e-07
8.0501e-09
2.57816e-07
7.95184e-09
2.57914e-07
7.74914e-09
2.57983e-07
7.56783e-09
2.58048e-07
7.46468e-09
2.58128e-07
7.47328e-09
2.58216e-07
7.50437e-09
2.58295e-07
7.58208e-09
2.58337e-07
7.579e-09
2.58364e-07
7.56381e-09
2.58381e-07
7.48651e-09
2.58407e-07
7.53052e-09
2.5843e-07
7.54412e-09
2.58468e-07
7.69775e-09
2.58499e-07
7.80876e-09
2.58543e-07
8.00947e-09
2.58574e-07
8.11291e-09
2.58614e-07
8.27438e-09
2.58632e-07
8.31505e-09
2.58662e-07
8.49607e-09
2.58667e-07
8.56828e-09
2.58704e-07
8.90507e-09
2.58718e-07
9.10854e-09
2.58752e-07
9.35806e-09
2.58749e-07
9.50357e-09
2.58767e-07
9.90301e-09
1.02704e-08
2.76029e-07
4.93148e-09
-2.75812e-07
2.76297e-07
5.45481e-09
2.76609e-07
5.95492e-09
2.76962e-07
6.43193e-09
2.7735e-07
6.85348e-09
2.7776e-07
7.24283e-09
2.78154e-07
7.52792e-09
2.78503e-07
7.71425e-09
2.78785e-07
7.76813e-09
2.78994e-07
7.74247e-09
2.79122e-07
7.62152e-09
2.79209e-07
7.48097e-09
2.79287e-07
7.38626e-09
2.79372e-07
7.3888e-09
2.79465e-07
7.41066e-09
2.7956e-07
7.48796e-09
2.79622e-07
7.51663e-09
2.79661e-07
7.52437e-09
2.79685e-07
7.46304e-09
2.79715e-07
7.50036e-09
2.79741e-07
7.51763e-09
2.79784e-07
7.6548e-09
2.79822e-07
7.77132e-09
2.79871e-07
7.96052e-09
2.79907e-07
8.07671e-09
2.79952e-07
8.22986e-09
2.79973e-07
8.2934e-09
2.80006e-07
8.46306e-09
2.80016e-07
8.5588e-09
2.80053e-07
8.86755e-09
2.80073e-07
9.08869e-09
2.80108e-07
9.32318e-09
2.8011e-07
9.50174e-09
2.80128e-07
9.88491e-09
1.02717e-08
2.98962e-07
4.70879e-09
-2.9874e-07
2.9923e-07
5.18711e-09
2.99538e-07
5.64696e-09
2.99881e-07
6.08855e-09
3.0025e-07
6.48505e-09
3.00641e-07
6.85132e-09
3.01025e-07
7.14372e-09
3.01378e-07
7.36192e-09
3.01673e-07
7.47247e-09
3.01908e-07
7.50786e-09
3.02069e-07
7.46105e-09
3.02176e-07
7.37355e-09
3.02269e-07
7.29295e-09
3.02363e-07
7.29487e-09
3.0246e-07
7.31366e-09
3.02566e-07
7.38229e-09
3.02648e-07
7.43481e-09
3.02703e-07
7.46874e-09
3.02737e-07
7.4293e-09
3.02774e-07
7.4636e-09
3.02804e-07
7.48702e-09
3.02852e-07
7.60728e-09
3.02896e-07
7.72707e-09
3.02951e-07
7.90568e-09
3.02993e-07
8.03424e-09
3.03042e-07
8.18141e-09
3.03069e-07
8.26649e-09
3.03105e-07
8.4274e-09
3.03119e-07
8.54387e-09
3.03158e-07
8.82862e-09
3.03184e-07
9.06265e-09
3.03219e-07
9.2883e-09
3.03227e-07
9.49386e-09
3.03246e-07
9.86654e-09
1.02677e-08
3.23789e-07
4.48436e-09
-3.23564e-07
3.24055e-07
4.92075e-09
3.24356e-07
5.34649e-09
3.24689e-07
5.75556e-09
3.25042e-07
6.13143e-09
3.25416e-07
6.47723e-09
3.25789e-07
6.77101e-09
3.2614e-07
7.01071e-09
3.26447e-07
7.1659e-09
3.26702e-07
7.25294e-09
3.26894e-07
7.26855e-09
3.27028e-07
7.23941e-09
3.27137e-07
7.18393e-09
3.27244e-07
7.18795e-09
3.27347e-07
7.21137e-09
3.2746e-07
7.2684e-09
3.2756e-07
7.33534e-09
3.27634e-07
7.3943e-09
3.27682e-07
7.38183e-09
3.27728e-07
7.41767e-09
3.27764e-07
7.45072e-09
3.27815e-07
7.55613e-09
3.27866e-07
7.67582e-09
3.27927e-07
7.84493e-09
3.27977e-07
7.98414e-09
3.2803e-07
8.12838e-09
3.28064e-07
8.23289e-09
3.28102e-07
8.38892e-09
3.28124e-07
8.5227e-09
3.28164e-07
8.78826e-09
3.28196e-07
9.03018e-09
3.28232e-07
9.25278e-09
3.28246e-07
9.47978e-09
3.28266e-07
9.84681e-09
1.02584e-08
3.50663e-07
4.26052e-09
-3.50439e-07
3.50926e-07
4.65781e-09
3.51219e-07
5.05322e-09
3.51542e-07
5.43279e-09
3.51885e-07
5.78862e-09
3.52244e-07
6.11821e-09
3.52606e-07
6.40886e-09
3.52954e-07
6.66292e-09
3.53269e-07
6.85108e-09
3.5354e-07
6.98182e-09
3.53759e-07
7.04881e-09
3.53925e-07
7.07423e-09
3.54051e-07
7.05739e-09
3.54172e-07
7.06695e-09
3.54283e-07
7.09997e-09
3.54403e-07
7.14907e-09
3.54517e-07
7.22111e-09
3.5461e-07
7.30132e-09
3.54675e-07
7.31681e-09
3.54733e-07
7.35977e-09
3.54779e-07
7.40514e-09
3.54834e-07
7.5004e-09
3.54893e-07
7.61729e-09
3.54959e-07
7.77858e-09
3.55017e-07
7.92618e-09
3.55075e-07
8.07057e-09
3.55116e-07
8.19176e-09
3.55158e-07
8.34673e-09
3.55187e-07
8.49407e-09
3.55229e-07
8.74568e-09
3.55268e-07
8.99177e-09
3.55305e-07
9.21596e-09
3.55325e-07
9.45977e-09
3.55348e-07
9.82398e-09
1.0244e-08
3.79763e-07
4.03676e-09
-3.79539e-07
3.80018e-07
4.40212e-09
3.80305e-07
4.76628e-09
3.80618e-07
5.12e-09
3.8095e-07
5.45671e-09
3.81295e-07
5.77289e-09
3.81646e-07
6.05792e-09
3.81989e-07
6.32026e-09
3.82308e-07
6.53228e-09
3.82592e-07
6.69773e-09
3.82833e-07
6.80754e-09
3.8303e-07
6.87776e-09
3.83178e-07
6.90851e-09
3.83316e-07
6.9293e-09
3.83443e-07
6.97317e-09
3.83568e-07
7.02369e-09
3.83694e-07
7.09494e-09
3.83806e-07
7.18969e-09
3.8389e-07
7.23327e-09
3.83962e-07
7.28766e-09
3.84019e-07
7.34757e-09
3.84081e-07
7.43896e-09
3.84146e-07
7.55233e-09
3.84218e-07
7.70647e-09
3.84284e-07
7.8595e-09
3.84349e-07
8.00603e-09
3.84399e-07
8.14192e-09
3.84446e-07
8.29953e-09
3.84482e-07
8.45843e-09
3.84527e-07
8.70021e-09
3.84571e-07
8.94779e-09
3.84611e-07
9.17597e-09
3.84637e-07
9.43362e-09
3.84663e-07
9.79792e-09
1.02234e-08
4.11264e-07
3.81722e-09
-4.11044e-07
4.11515e-07
4.15081e-09
4.11795e-07
4.48612e-09
4.12098e-07
4.81693e-09
4.12421e-07
5.13407e-09
4.12755e-07
5.43881e-09
4.13095e-07
5.71769e-09
4.13433e-07
5.98229e-09
4.13754e-07
6.2117e-09
4.14049e-07
6.40249e-09
4.14308e-07
6.54879e-09
4.14531e-07
6.65482e-09
4.14709e-07
6.73035e-09
4.14862e-07
6.77591e-09
4.15005e-07
6.82994e-09
4.15139e-07
6.89008e-09
4.15274e-07
6.9598e-09
4.15402e-07
7.06211e-09
4.15504e-07
7.13071e-09
4.15594e-07
7.1978e-09
4.15668e-07
7.27409e-09
4.15739e-07
7.36801e-09
4.15812e-07
7.47946e-09
4.1589e-07
7.62816e-09
4.15965e-07
7.78467e-09
4.16036e-07
7.93501e-09
4.16094e-07
8.08331e-09
4.16148e-07
8.24589e-09
4.16192e-07
8.41403e-09
4.16243e-07
8.6499e-09
4.16292e-07
8.89844e-09
4.16335e-07
9.13255e-09
4.16368e-07
9.40115e-09
4.16399e-07
9.76677e-09
1.01962e-08
4.45383e-07
3.60355e-09
-4.4517e-07
4.4563e-07
3.90387e-09
4.45901e-07
4.21493e-09
4.46194e-07
4.52391e-09
4.46506e-07
4.82267e-09
4.46829e-07
5.11552e-09
4.47158e-07
5.38865e-09
4.4749e-07
5.6505e-09
4.4781e-07
5.8913e-09
4.48113e-07
6.0997e-09
4.48386e-07
6.27549e-09
4.4863e-07
6.41163e-09
4.48837e-07
6.52323e-09
4.49012e-07
6.60089e-09
4.49172e-07
6.66947e-09
4.4932e-07
6.74276e-09
4.49465e-07
6.81404e-09
4.49608e-07
6.91905e-09
4.49729e-07
7.00962e-09
4.49837e-07
7.09005e-09
4.49929e-07
7.1824e-09
4.50011e-07
7.2863e-09
4.50092e-07
7.39816e-09
4.50177e-07
7.54329e-09
4.5026e-07
7.70134e-09
4.50339e-07
7.85592e-09
4.50408e-07
8.01414e-09
4.5047e-07
8.18416e-09
4.50523e-07
8.36065e-09
4.50579e-07
8.5947e-09
4.50634e-07
8.84347e-09
4.50682e-07
9.08437e-09
4.50721e-07
9.36201e-09
4.50759e-07
9.72842e-09
1.01634e-08
4.82342e-07
3.39154e-09
-4.8213e-07
4.82579e-07
3.66706e-09
4.82841e-07
3.95292e-09
4.83125e-07
4.24005e-09
4.83425e-07
4.52232e-09
4.8374e-07
4.80046e-09
4.84062e-07
5.0675e-09
4.84388e-07
5.32379e-09
4.84709e-07
5.57036e-09
4.85018e-07
5.79127e-09
4.85304e-07
5.98872e-09
4.85565e-07
6.15112e-09
4.85799e-07
6.28967e-09
4.85997e-07
6.40207e-09
4.86177e-07
6.49012e-09
4.86342e-07
6.57781e-09
4.86498e-07
6.6576e-09
4.86654e-07
6.7636e-09
4.86792e-07
6.87152e-09
4.86917e-07
6.96468e-09
4.87028e-07
7.07149e-09
4.87126e-07
7.18869e-09
4.87219e-07
7.30485e-09
4.87313e-07
7.44924e-09
4.87404e-07
7.6099e-09
4.87492e-07
7.76871e-09
4.8757e-07
7.93553e-09
4.87641e-07
8.11329e-09
4.87704e-07
8.29759e-09
4.87767e-07
8.53161e-09
4.87828e-07
8.78271e-09
4.87882e-07
9.03044e-09
4.87928e-07
9.31549e-09
4.87973e-07
9.68404e-09
1.01217e-08
5.22352e-07
3.18241e-09
-5.22143e-07
5.22581e-07
3.43745e-09
5.22835e-07
3.69896e-09
5.23111e-07
3.9644e-09
5.23403e-07
4.23033e-09
5.2371e-07
4.49321e-09
5.24025e-07
4.75306e-09
5.24345e-07
5.00361e-09
5.24664e-07
5.2511e-09
5.24975e-07
5.48042e-09
5.25272e-07
5.69156e-09
5.25547e-07
5.87581e-09
5.25802e-07
6.03505e-09
5.26028e-07
6.17645e-09
5.26229e-07
6.28882e-09
5.26414e-07
6.39303e-09
5.26586e-07
6.48552e-09
5.26755e-07
6.59406e-09
5.26911e-07
6.71572e-09
5.27054e-07
6.82146e-09
5.27185e-07
6.94075e-09
5.273e-07
7.07414e-09
5.27406e-07
7.19855e-09
5.27511e-07
7.34456e-09
5.27612e-07
7.50864e-09
5.2771e-07
7.67101e-09
5.278e-07
7.84512e-09
5.27882e-07
8.03094e-09
5.27955e-07
8.22455e-09
5.28026e-07
8.46079e-09
5.28094e-07
8.71454e-09
5.28157e-07
8.96812e-09
5.28212e-07
9.26042e-09
5.28264e-07
9.632e-09
1.00707e-08
5.6566e-07
2.98033e-09
-5.65458e-07
5.65887e-07
3.21072e-09
5.66134e-07
3.45209e-09
5.66401e-07
3.69666e-09
5.66685e-07
3.94634e-09
5.66983e-07
4.19513e-09
5.67291e-07
4.44546e-09
5.67605e-07
4.68995e-09
5.67922e-07
4.93339e-09
5.68236e-07
5.1668e-09
5.68542e-07
5.38536e-09
5.68831e-07
5.58659e-09
5.69104e-07
5.76274e-09
5.69353e-07
5.92668e-09
5.69579e-07
6.0633e-09
5.69785e-07
6.18722e-09
5.69974e-07
6.29622e-09
5.70158e-07
6.41002e-09
5.70331e-07
6.54253e-09
5.70491e-07
6.66178e-09
5.70641e-07
6.79043e-09
5.70776e-07
6.93961e-09
5.70899e-07
7.07504e-09
5.71018e-07
7.22615e-09
5.71131e-07
7.39521e-09
5.71239e-07
7.56311e-09
5.71341e-07
7.74347e-09
5.71434e-07
7.9378e-09
5.71519e-07
8.139e-09
5.71601e-07
8.37907e-09
5.71679e-07
8.63655e-09
5.71749e-07
8.89792e-09
5.71813e-07
9.19693e-09
5.71877e-07
9.56808e-09
1.00108e-08
6.12548e-07
2.78219e-09
-6.1235e-07
6.12769e-07
2.98976e-09
6.1301e-07
3.21147e-09
6.13269e-07
3.43735e-09
6.13545e-07
3.67034e-09
6.13835e-07
3.9056e-09
6.14137e-07
4.14366e-09
6.14446e-07
4.38037e-09
6.14763e-07
4.61659e-09
6.15079e-07
4.85027e-09
6.15392e-07
5.07264e-09
6.15693e-07
5.28539e-09
6.1598e-07
5.47598e-09
6.1625e-07
5.65658e-09
6.16499e-07
5.815e-09
6.16728e-07
5.95807e-09
6.16938e-07
6.0864e-09
6.17139e-07
6.20876e-09
6.1733e-07
6.35108e-09
6.17508e-07
6.48436e-09
6.17677e-07
6.62131e-09
6.17833e-07
6.78385e-09
6.17974e-07
6.93372e-09
6.18107e-07
7.09266e-09
6.18234e-07
7.26895e-09
6.18354e-07
7.44296e-09
6.18468e-07
7.62914e-09
6.18575e-07
7.83055e-09
6.18674e-07
8.04059e-09
6.18767e-07
8.28614e-09
6.18854e-07
8.549e-09
6.18936e-07
8.8161e-09
6.19011e-07
9.12246e-09
6.19084e-07
9.49465e-09
9.93766e-09
6.63301e-07
2.58575e-09
-6.63105e-07
6.63517e-07
2.77355e-09
6.63753e-07
2.97591e-09
6.64006e-07
3.18426e-09
6.64276e-07
3.40038e-09
6.6456e-07
3.62117e-09
6.64858e-07
3.84562e-09
6.65166e-07
4.07309e-09
6.65481e-07
4.30135e-09
6.65799e-07
4.53202e-09
6.66116e-07
4.75565e-09
6.66427e-07
4.97413e-09
6.66727e-07
5.17664e-09
6.67015e-07
5.36837e-09
6.67284e-07
5.54548e-09
6.67538e-07
5.70444e-09
6.67771e-07
5.85345e-09
6.67991e-07
5.98861e-09
6.68202e-07
6.14009e-09
6.68398e-07
6.28841e-09
6.68584e-07
6.4349e-09
6.68761e-07
6.60692e-09
6.68922e-07
6.77346e-09
6.69073e-07
6.94098e-09
6.69216e-07
7.12663e-09
6.69351e-07
7.30788e-09
6.69478e-07
7.50216e-09
6.69599e-07
7.70963e-09
6.6971e-07
7.92926e-09
6.69818e-07
8.17862e-09
6.69917e-07
8.4495e-09
6.70012e-07
8.7213e-09
6.70099e-07
9.03533e-09
6.70182e-07
9.41186e-09
9.84871e-09
7.18234e-07
2.38887e-09
-7.18037e-07
7.18449e-07
2.5588e-09
7.18681e-07
2.74376e-09
7.18929e-07
2.93592e-09
7.19195e-07
3.13443e-09
7.19476e-07
3.34058e-09
7.1977e-07
3.551e-09
7.20075e-07
3.76858e-09
7.20388e-07
3.98778e-09
7.20708e-07
4.21275e-09
7.21029e-07
4.43421e-09
7.21349e-07
4.65379e-09
7.21662e-07
4.86407e-09
7.21967e-07
5.06362e-09
7.22256e-07
5.25564e-09
7.22532e-07
5.42916e-09
7.22789e-07
5.59663e-09
7.23029e-07
5.74847e-09
7.23261e-07
5.90784e-09
7.23476e-07
6.07312e-09
7.23682e-07
6.22936e-09
7.23879e-07
6.4101e-09
7.2406e-07
6.59175e-09
7.2423e-07
6.77107e-09
7.24391e-07
6.96548e-09
7.24541e-07
7.15833e-09
7.24684e-07
7.35925e-09
7.24819e-07
7.57487e-09
7.24948e-07
7.80014e-09
7.25068e-07
8.05851e-09
7.25182e-07
8.33485e-09
7.25288e-07
8.61551e-09
7.25393e-07
8.93085e-09
7.25489e-07
9.31521e-09
9.74717e-09
7.77691e-07
2.18752e-09
-7.7749e-07
7.77904e-07
2.34644e-09
7.78133e-07
2.51488e-09
7.78378e-07
2.69062e-09
7.78641e-07
2.8708e-09
7.7892e-07
3.0619e-09
7.79213e-07
3.25824e-09
7.79516e-07
3.46504e-09
7.7983e-07
3.67378e-09
7.80152e-07
3.89064e-09
7.80479e-07
4.10763e-09
7.80807e-07
4.32585e-09
7.81131e-07
4.5404e-09
7.81448e-07
4.74616e-09
7.81756e-07
4.94793e-09
7.82051e-07
5.13443e-09
7.82332e-07
5.31504e-09
7.82594e-07
5.4863e-09
7.82849e-07
5.65362e-09
7.83085e-07
5.83669e-09
7.8331e-07
6.00388e-09
7.83526e-07
6.19416e-09
7.8373e-07
6.38836e-09
7.83918e-07
6.5826e-09
7.84099e-07
6.78435e-09
7.84266e-07
6.99179e-09
7.84428e-07
7.19729e-09
7.84578e-07
7.42486e-09
7.84724e-07
7.65364e-09
7.84858e-07
7.9246e-09
7.84991e-07
8.20177e-09
7.85109e-07
8.49795e-09
7.85227e-07
8.81247e-09
7.85349e-07
9.19398e-09
9.63689e-09
8.4204e-07
1.9999e-09
-8.41853e-07
8.42236e-07
2.15084e-09
8.42457e-07
2.2933e-09
8.42703e-07
2.44486e-09
8.4297e-07
2.60372e-09
8.43256e-07
2.77599e-09
8.43558e-07
2.95649e-09
8.43873e-07
3.15028e-09
8.44195e-07
3.35121e-09
8.44524e-07
3.56201e-09
8.44854e-07
3.77727e-09
8.45185e-07
3.99481e-09
8.45513e-07
4.21254e-09
8.45838e-07
4.42139e-09
8.46158e-07
4.62755e-09
8.46471e-07
4.82197e-09
8.46773e-07
5.01247e-09
8.47061e-07
5.19886e-09
8.47336e-07
5.37843e-09
8.47596e-07
5.57613e-09
8.47842e-07
5.75844e-09
8.48079e-07
5.95731e-09
8.48302e-07
6.16474e-09
8.48513e-07
6.37182e-09
8.48713e-07
6.58451e-09
8.48901e-07
6.80353e-09
8.49078e-07
7.02028e-09
8.49247e-07
7.25573e-09
8.49409e-07
7.49149e-09
8.49564e-07
7.76984e-09
8.49711e-07
8.0555e-09
8.49851e-07
8.35744e-09
8.49988e-07
8.6754e-09
8.50109e-07
9.07333e-09
9.48412e-09
3.2773e-06
1.29532e-09
-3.2766e-06
3.27808e-06
1.37878e-09
3.27889e-06
1.48349e-09
3.27973e-06
1.59924e-09
3.28061e-06
1.72572e-09
3.28152e-06
1.86328e-09
3.28247e-06
2.01134e-09
3.28345e-06
2.16927e-09
3.28446e-06
2.33664e-09
3.28552e-06
2.51009e-09
3.2866e-06
2.68992e-09
3.28773e-06
2.87134e-09
3.28888e-06
3.05931e-09
3.29005e-06
3.25001e-09
3.29123e-06
3.45045e-09
3.29239e-06
3.65558e-09
3.29354e-06
3.86974e-09
3.29464e-06
4.09191e-09
3.29569e-06
4.33482e-09
3.29669e-06
4.5724e-09
3.29764e-06
4.8078e-09
3.29855e-06
5.04599e-09
3.29943e-06
5.29261e-09
3.30026e-06
5.53515e-09
3.30106e-06
5.78458e-09
3.30184e-06
6.02876e-09
3.30258e-06
6.28146e-09
3.30329e-06
6.53972e-09
3.30397e-06
6.81615e-09
3.30462e-06
7.11665e-09
3.30524e-06
7.43756e-09
3.30584e-06
7.75341e-09
3.30641e-06
8.10316e-09
3.307e-06
8.48311e-09
8.8487e-09
3.54081e-06
1.07145e-10
-3.53962e-06
3.54206e-06
1.25915e-10
3.54332e-06
2.29906e-10
3.54454e-06
3.79607e-10
3.5457e-06
5.57155e-10
3.54682e-06
7.47059e-10
3.54789e-06
9.36884e-10
3.54894e-06
1.12089e-09
3.54998e-06
1.29822e-09
3.55101e-06
1.47778e-09
3.55204e-06
1.66506e-09
3.5531e-06
1.81248e-09
3.55422e-06
1.93475e-09
3.55538e-06
2.09305e-09
3.55655e-06
2.28418e-09
3.5577e-06
2.50177e-09
3.55883e-06
2.74211e-09
3.55992e-06
3.00018e-09
3.56098e-06
3.26891e-09
3.56201e-06
3.54662e-09
3.56299e-06
3.82498e-09
3.56393e-06
4.1039e-09
3.56485e-06
4.37889e-09
3.56573e-06
4.65131e-09
3.56659e-06
4.92224e-09
3.56743e-06
5.18865e-09
3.56825e-06
5.46261e-09
3.56905e-06
5.74693e-09
3.56982e-06
6.04305e-09
3.57057e-06
6.36986e-09
3.5713e-06
6.70748e-09
3.57201e-06
7.04208e-09
3.57271e-06
7.39767e-09
3.5734e-06
7.79217e-09
8.28012e-09
3.83148e-06
-1.15555e-09
-3.83022e-06
3.83253e-06
-9.24752e-10
3.8335e-06
-7.33678e-10
3.83439e-06
-5.14039e-10
3.83524e-06
-2.93143e-10
3.83609e-06
-9.69781e-11
3.8369e-06
1.18811e-10
3.83772e-06
3.10011e-10
3.83858e-06
4.33753e-10
3.83954e-06
5.22181e-10
3.84059e-06
6.07487e-10
3.84168e-06
7.20988e-10
3.84275e-06
8.71278e-10
3.84379e-06
1.05569e-09
3.84479e-06
1.27648e-09
3.84577e-06
1.52661e-09
3.84671e-06
1.8008e-09
3.84762e-06
2.08864e-09
3.84851e-06
2.38195e-09
3.84938e-06
2.67466e-09
3.85024e-06
2.96051e-09
3.85111e-06
3.24232e-09
3.85197e-06
3.51972e-09
3.85282e-06
3.79303e-09
3.85368e-06
4.0702e-09
3.85452e-06
4.34599e-09
3.85535e-06
4.63387e-09
3.85616e-06
4.93212e-09
3.85696e-06
5.24608e-09
3.85774e-06
5.58604e-09
3.85851e-06
5.93538e-09
3.85928e-06
6.27257e-09
3.86006e-06
6.62146e-09
3.86087e-06
6.97985e-09
7.28194e-09
4.15125e-06
-4.16175e-10
-4.15199e-06
4.15082e-06
-4.8657e-10
4.15049e-06
-4.0547e-10
4.15023e-06
-2.52257e-10
4.14999e-06
-5.21245e-11
4.1498e-06
9.28586e-11
4.1497e-06
2.18098e-10
4.14967e-06
3.38697e-10
4.14965e-06
4.51221e-10
4.14961e-06
5.63233e-10
4.14953e-06
6.82646e-10
4.14948e-06
7.74868e-10
4.1495e-06
8.50128e-10
4.1496e-06
9.61737e-10
4.14977e-06
1.10413e-09
4.15002e-06
1.27285e-09
4.15036e-06
1.46692e-09
4.15076e-06
1.68066e-09
4.15123e-06
1.91033e-09
4.15176e-06
2.15346e-09
4.15231e-06
2.4036e-09
4.15289e-06
2.66094e-09
4.15349e-06
2.92037e-09
4.1541e-06
3.18185e-09
4.15473e-06
3.44568e-09
4.15537e-06
3.70608e-09
4.15603e-06
3.97597e-09
4.1567e-06
4.25462e-09
4.1574e-06
4.54603e-09
4.15813e-06
4.86411e-09
4.15887e-06
5.19023e-09
4.15964e-06
5.50788e-09
4.16042e-06
5.83928e-09
4.16121e-06
6.19116e-09
6.60306e-09
4.49137e-06
3.13702e-10
-4.4921e-06
4.49056e-06
3.31549e-10
4.48979e-06
3.56855e-10
4.48915e-06
3.87663e-10
4.48868e-06
4.23941e-10
4.4883e-06
4.66048e-10
4.48801e-06
5.13557e-10
4.48778e-06
5.66841e-10
4.48761e-06
6.25587e-10
4.48748e-06
6.89831e-10
4.4874e-06
7.60045e-10
4.48734e-06
8.36591e-10
4.48727e-06
9.21661e-10
4.48722e-06
1.01515e-09
4.4872e-06
1.12017e-09
4.48724e-06
1.23576e-09
4.48734e-06
1.36565e-09
4.48751e-06
1.50909e-09
4.48775e-06
1.66768e-09
4.48806e-06
1.84201e-09
4.48844e-06
2.03079e-09
4.48886e-06
2.23681e-09
4.48932e-06
2.45757e-09
4.48981e-06
2.69248e-09
4.49033e-06
2.92485e-09
4.49088e-06
3.15622e-09
4.49146e-06
3.39872e-09
4.49207e-06
3.64991e-09
4.4927e-06
3.91399e-09
4.49336e-06
4.20155e-09
4.49405e-06
4.49608e-09
4.49478e-06
4.78056e-09