/*--------------------------------*- C++ -*----------------------------------*\
| =========                 |                                                 |
| \\      /  F ield         | OpenFOAM: The Open Source CFD Toolbox           |
|  \\    /   O peration     | Version:  5.x                                   |
|   \\  /    A nd           | Web:      www.OpenFOAM.org                      |
|    \\/     M anipulation  |                                                 |
\*---------------------------------------------------------------------------*/
FoamFile
{
    version     2.0;
    format      ascii;
    class       volScalarField;
    location    "0.6";
    object      p;
}
// * * * * * * * * * * * * * * * * * * * * * * * * * * * * * * * * * * * * * //

dimensions      [0 2 -2 0 0 0 0];

internalField   nonuniform List<scalar> 
21600
(
0.018459448
0.016003205
0.012650069
0.0098698465
0.0076758051
0.0057426905
0.0039199942
0.0022784791
0.00098993058
0.00017662262
-0.00017460616
-0.00018283556
3.2772101e-06
0.0002628829
0.00051922315
0.00073325021
0.00089296157
0.0010024905
0.0010729056
0.0011161292
0.0011421295
0.0011581828
0.0011690843
0.0011776906
0.0011855014
0.0011931572
0.0012008116
0.0012083795
0.0012156916
0.0012225777
0.0012289032
0.00123458
0.0012395634
0.0012438439
0.0012474384
0.0012503808
0.001252715
0.0012544892
0.0012557518
0.0012565489
0.0012569226
0.0012569104
0.0012565451
0.0012558551
0.0012548646
0.0012535943
0.0012520623
0.001250284
0.0012482731
0.0012460415
0.0012436002
0.0012409591
0.0012381272
0.0012351131
0.0012319247
0.0012285693
0.0012250539
0.0012213848
0.0012175683
0.00121361
0.0012095153
0.0012052891
0.0012009361
0.0011964607
0.001191867
0.0011871588
0.0011823396
0.0011774129
0.0011723817
0.0011672491
0.0011620176
0.00115669
0.0011512685
0.0011457556
0.0011401532
0.0011344635
0.0011286881
0.0011228292
0.0011168879
0.0011108663
0.0011047653
0.0010985867
0.0010923313
0.0010860007
0.0010795956
0.0010731175
0.0010665666
0.0010599446
0.0010532515
0.0010464889
0.0010396564
0.0010327559
0.0010257865
0.0010187502
0.0010116459
0.0010044757
0.00099723807
0.00098993525
0.00098256558
0.0009751313
0.00096763042
0.00096006539
0.00095243384
0.0009447385
0.00093697659
0.00092915113
0.00092125888
0.00091330322
0.00090528041
0.00089719424
0.00088904044
0.00088082327
0.00087253787
0.00086418899
0.00085577119
0.00084728979
0.00083873861
0.00083012368
0.00082143807
0.00081268848
0.00080386725
0.00079498179
0.00078602362
0.00077700104
0.00076790457
0.00075874346
0.00074950733
0.00074020627
0.00073082903
0.00072138664
0.00071186688
0.00070228176
0.00069261812
0.0006828889
0.00067308008
0.00066320552
0.00065325034
0.00064322931
0.00063312676
0.00062295825
0.00061270755
0.00060239081
0.00059199149
0.00058152604
0.00057097801
0.00056036375
0.00054966737
0.0005389047
0.00052806091
0.00051715076
0.00050616123
0.00049510525
0.00048397253
0.00047277324
0.00046150097
0.00045016193
0.00043875506
0.00042728111
0.00041574621
0.00040414376
0.00039248936
0.0003807667
0.00036900367
0.00035717141
0.00034531349
0.00033338497
0.00032144933
0.00030944121
0.0002974492
0.00028538211
0.00027336007
0.00026125946
0.00024923978
0.00023713677
0.00022515913
0.00021309174
0.00020120453
0.00018921895
0.00017748112
0.00016563336
0.00015411665
0.0001424744
0.00013126614
0.00011991123
0.00010911775
9.8149107e-05
8.7900105e-05
7.7437543e-05
6.7891969e-05
5.8081096e-05
4.943547e-05
4.0454644e-05
3.2955282e-05
2.5025439e-05
1.8988726e-05
1.2385941e-05
8.2366575e-06
3.2992937e-06
1.6649632e-06
-1.337393e-06
0.015935354
0.014613447
0.012159951
0.0096811358
0.0075606344
0.0057132189
0.0040124152
0.0024854354
0.0012659192
0.00045907398
7.3670771e-05
1.9557926e-05
0.00016235811
0.00038443938
0.00061081234
0.00080220799
0.00094599209
0.0010449212
0.0011084045
0.0011470059
0.0011697645
0.0011833728
0.0011922845
0.0011991726
0.0012054483
0.0012117145
0.0012181078
0.0012245328
0.0012308114
0.0012367637
0.0012422452
0.0012471571
0.0012514449
0.0012550906
0.0012581031
0.0012605099
0.0012623493
0.0012636649
0.0012645012
0.0012649009
0.0012649034
0.0012645439
0.0012638529
0.0012628571
0.001261579
0.0012600381
0.0012582509
0.0012562317
0.0012539932
0.0012515464
0.0012489013
0.001246067
0.0012430519
0.0012398638
0.00123651
0.0012329972
0.0012293319
0.0012255202
0.0012215675
0.0012174792
0.0012132603
0.0012089155
0.001204449
0.0011998651
0.0011951673
0.0011903595
0.0011854447
0.0011804263
0.001175307
0.0011700898
0.0011647771
0.0011593714
0.0011538747
0.0011482895
0.0011426174
0.0011368606
0.0011310206
0.0011250993
0.0011190979
0.0011130182
0.0011068612
0.0011006285
0.0010943208
0.0010879397
0.0010814857
0.0010749603
0.0010683638
0.0010616976
0.0010549616
0.0010481575
0.0010412849
0.0010343453
0.0010273383
0.0010202653
0.0010131256
0.0010059209
0.00099864987
0.00099131459
0.00098391344
0.00097644854
0.00096891797
0.00096132404
0.00095366446
0.0009459418
0.0009381534
0.0009303021
0.00092238479
0.00091440466
0.00090635814
0.00089824878
0.00089007251
0.00088183335
0.00087352664
0.00086515689
0.00085671887
0.00084821763
0.00083964726
0.00083101347
0.00082230963
0.00081354208
0.00080470352
0.00079580096
0.00078682631
0.00077778742
0.00076867527
0.0007594986
0.00075024754
0.00074093162
0.00073154016
0.00072208357
0.00071255026
0.00070295155
0.00069327499
0.00068353275
0.00067371162
0.00066382458
0.00065385765
0.00064382464
0.00063371088
0.00062353087
0.00061326948
0.00060294167
0.00059253214
0.00058205604
0.00057149825
0.00056087373
0.00055016804
0.00053939544
0.00052854276
0.00051762303
0.000506625
0.00049555974
0.0004844189
0.00047321061
0.00046193058
0.00045058279
0.00043916852
0.00042768605
0.00041614408
0.00040453332
0.00039287216
0.00038114139
0.0003693719
0.00035753169
0.0003456676
0.00033373128
0.00032178976
0.00030977396
0.00029777634
0.00028570169
0.00027367429
0.0002615662
0.00024954143
0.00023743102
0.00022544854
0.00021337379
0.000201482
0.00018948911
0.00017774696
0.00016589191
0.00015437114
0.00014272163
0.00013150959
0.00012014743
0.00010935048
9.8374606e-05
8.8122484e-05
7.7652714e-05
6.8104433e-05
5.8286395e-05
4.9638572e-05
4.0650658e-05
3.3149755e-05
2.5212967e-05
1.9175612e-05
1.2566092e-05
8.4175528e-06
3.4735302e-06
1.8426366e-06
-1.1649657e-06
0.014265868
0.01348636
0.011707977
0.0095652029
0.0075499106
0.0057827243
0.0042153718
0.0028368198
0.0017110371
0.00091276508
0.00046663446
0.00032362956
0.00038382766
0.00054167212
0.00071915462
0.00087651246
0.000999161
0.0010862961
0.0011436358
0.0011789987
0.0011997846
0.0012118448
0.0012192588
0.0012245725
0.0012291919
0.0012337669
0.0012384938
0.0012433277
0.0012481253
0.0012527243
0.0012569839
0.0012608004
0.0012641098
0.0012668821
0.0012691143
0.0012708221
0.0012720332
0.0012727815
0.0012731035
0.0012730349
0.001272609
0.0012718561
0.0012708028
0.0012694719
0.0012678832
0.0012660536
0.0012639974
0.0012617273
0.001259254
0.0012565872
0.0012537358
0.0012507076
0.00124751
0.0012441498
0.0012406336
0.0012369675
0.001233157
0.0012292077
0.0012251247
0.0012209126
0.0012165761
0.0012121193
0.0012075463
0.0012028608
0.0011980662
0.0011931659
0.0011881628
0.0011830599
0.0011778598
0.0011725653
0.0011671784
0.0011617016
0.0011561368
0.0011504861
0.0011447512
0.001138934
0.0011330359
0.0011270587
0.0011210035
0.001114872
0.001108665
0.0011023842
0.0010960301
0.0010896043
0.0010831071
0.00107654
0.0010699032
0.001063198
0.0010564244
0.0010495839
0.0010426761
0.0010357024
0.0010286624
0.0010215575
0.0010143868
0.001007152
0.00099985198
0.00099248848
0.00098506
0.00097756855
0.00097001224
0.00096239329
0.00095470945
0.00094696321
0.00093915191
0.00093127833
0.00092333941
0.00091533822
0.00090727125
0.00089914198
0.00089094637
0.00088268835
0.00087436333
0.0008659757
0.00085752032
0.00084900212
0.00084041528
0.00083176539
0.00082304592
0.00081426307
0.00080540966
0.00079649254
0.00078750378
0.00077845103
0.00076932546
0.00076013559
0.00075087175
0.00074154324
0.00073213962
0.000722671
0.00071312611
0.00070351591
0.00069382831
0.00068407509
0.00067424342
0.00066434587
0.00065436889
0.00064432581
0.00063420246
0.00062401278
0.00061374224
0.00060340514
0.00059298687
0.00058250183
0.00057193571
0.00056130257
0.00055058892
0.00053980801
0.00052894773
0.00051801995
0.00050701467
0.00049594162
0.00048479386
0.00047357801
0.00046229137
0.00045093622
0.00043951565
0.00042802601
0.00041647803
0.00040486024
0.00039319337
0.0003814557
0.00036968078
0.00035783379
0.00034596454
0.00033402151
0.0003220751
0.00031005265
0.0002980504
0.00028596913
0.00027393739
0.00026182267
0.00024979383
0.00023767677
0.00022569049
0.00021360903
0.00020171373
0.00018971405
0.0001779687
0.00016610672
0.00015458309
0.00014292648
0.00013171196
0.00012034249
0.00010954348
9.8560041e-05
8.8306331e-05
7.78287e-05
6.8279397e-05
5.8453138e-05
4.9804972e-05
4.0808417e-05
3.3308e-05
2.536208e-05
1.932626e-05
1.270702e-05
8.561432e-06
3.6070779e-06
1.9788409e-06
-1.0405294e-06
0.01309896
0.012528987
0.01119506
0.0093911407
0.0075453565
0.0058827376
0.0044355358
0.0031882677
0.0021580997
0.0013883643
0.00090528372
0.00068655128
0.00066345652
0.00074980094
0.0008737645
0.00099307715
0.0010894767
0.0011589411
0.0012045022
0.0012318848
0.0012470061
0.0012547504
0.0012586048
0.0012607799
0.001262514
0.0012643874
0.001266584
0.0012690778
0.0012717421
0.0012744185
0.001276958
0.0012792414
0.001281185
0.0012827389
0.0012838809
0.0012846092
0.0012849363
0.0012848832
0.0012844751
0.0012837386
0.0012826997
0.0012813821
0.0012798073
0.0012779939
0.0012759579
0.001273713
0.0012712707
0.0012686412
0.001265833
0.001262854
0.0012597109
0.0012564102
0.0012529575
0.0012493585
0.0012456183
0.0012417417
0.0012377336
0.0012335982
0.0012293398
0.0012249623
0.0012204696
0.0012158653
0.0012111525
0.0012063347
0.0012014146
0.0011963952
0.001191279
0.0011860686
0.0011807662
0.0011753742
0.0011698944
0.001164329
0.0011586797
0.0011529482
0.0011471361
0.001141245
0.0011352762
0.0011292313
0.0011231112
0.0011169175
0.0011106509
0.0011043127
0.0010979036
0.0010914248
0.0010848767
0.0010782606
0.0010715766
0.0010648261
0.0010580088
0.0010511261
0.0010441776
0.0010371647
0.0010300868
0.0010229453
0.0010157393
0.0010084704
0.0010011374
0.00099374194
0.0009862826
0.00097876126
0.00097117603
0.00096352906
0.00095581809
0.00094804553
0.00094020876
0.00093231045
0.00092434756
0.0009163231
0.00090823357
0.00090008236
0.00089186549
0.00088358677
0.00087524168
0.00086683451
0.00085836018
0.00084982351
0.00084121875
0.00083255138
0.00082381496
0.00081501555
0.00080614608
0.00079721327
0.00078820928
0.00077914164
0.00077000163
0.0007607976
0.00075152006
0.00074217809
0.00073276144
0.00072328002
0.00071372275
0.00070410035
0.00069440097
0.00068463612
0.00067479325
0.00066488458
0.00065489694
0.00064484323
0.00063470972
0.00062450987
0.00061422965
0.00060388281
0.00059345532
0.00058296092
0.000572386
0.00056174387
0.00055102183
0.00054023227
0.00052936399
0.00051842787
0.00050741495
0.00049633384
0.0004851788
0.00047395513
0.00046266156
0.00045129882
0.00043987163
0.0004283746
0.00041682032
0.00040519532
0.00039352244
0.00038177772
0.00036999708
0.00035814314
0.00034626847
0.00033431859
0.00032236702
0.00031033778
0.00029833066
0.00028624263
0.00027420627
0.0002620848
0.00025005161
0.00023792776
0.00022593741
0.0002138491
0.00020195001
0.00018994336
0.0001781945
0.00016632542
0.00015479859
0.00014313469
0.00013191728
0.00012054028
0.00010973874
9.874748e-05
8.8491636e-05
7.800583e-05
6.8454832e-05
5.8619977e-05
4.997061e-05
4.096496e-05
3.3463888e-05
2.5508286e-05
1.9472394e-05
1.2842811e-05
8.6976773e-06
3.7328962e-06
2.0990922e-06
-9.3160021e-07
0.012165443
0.011678663
0.010625161
0.009133507
0.0075019289
0.0059725658
0.0046362882
0.0034969569
0.0025520146
0.0018199129
0.0013208511
0.0010473156
0.00095438718
0.00097579347
0.0010489862
0.0011312685
0.0012010292
0.0012513354
0.001283147
0.0013006307
0.0013084805
0.0013106497
0.0013099662
0.0013082129
0.0013063826
0.0013049393
0.0013040295
0.0013036262
0.0013036124
0.0013038353
0.0013041428
0.0013044045
0.0013045211
0.0013044248
0.0013040752
0.0013034531
0.0013025549
0.0013013868
0.0012999612
0.0012982934
0.0012963994
0.0012942947
0.0012919937
0.0012895085
0.00128685
0.0012840271
0.0012810475
0.0012779176
0.0012746428
0.0012712281
0.0012676778
0.001263996
0.0012601866
0.001256253
0.0012521987
0.0012480272
0.0012437416
0.0012393451
0.0012348408
0.0012302315
0.0012255199
0.0012207089
0.0012158008
0.0012107981
0.0012057032
0.001200518
0.0011952447
0.0011898852
0.0011844414
0.0011789149
0.0011733073
0.0011676204
0.0011618553
0.0011560136
0.0011500964
0.0011441052
0.0011380408
0.0011319046
0.0011256974
0.0011194203
0.0011130739
0.0011066594
0.0011001772
0.0010936284
0.0010870133
0.0010803328
0.0010735871
0.0010667773
0.0010599031
0.0010529656
0.0010459646
0.0010389011
0.0010317745
0.0010245862
0.0010173351
0.0010100227
0.0010026478
0.00099521193
0.00098771364
0.00098015466
0.00097253315
0.00096485109
0.00095710628
0.00094930095
0.00094143256
0.00093350361
0.00092551114
0.00091745799
0.00090934075
0.00090116265
0.00089291979
0.00088461582
0.00087624634
0.00086781544
0.00085931817
0.00085075918
0.00084213283
0.00083344443
0.00082468766
0.00081586842
0.00080697977
0.00079802824
0.00078900614
0.0007799208
0.00077076368
0.00076154292
0.00075224919
0.00074289138
0.00073345941
0.00072396297
0.00071439119
0.00070475453
0.00069504141
0.000685263
0.00067540709
0.00066548554
0.00065548553
0.00064541955
0.00063527429
0.00062506275
0.00061477136
0.00060441335
0.00059397525
0.00058347018
0.00057288517
0.00056223283
0.00055150118
0.00054070183
0.00052982441
0.00051887889
0.00050785728
0.00049676711
0.0004856038
0.0004743714
0.00046306995
0.00045169877
0.00044026408
0.00042875887
0.00041719745
0.0004055645
0.00039388483
0.00038213234
0.00037034525
0.00035848371
0.00034660289
0.00033464555
0.00032268815
0.00031065155
0.00029863887
0.00028654355
0.00027450192
0.00026237319
0.000250335
0.00023820389
0.0002262088
0.00021411317
0.00020220961
0.00019019555
0.00017844247
0.00016656585
0.00015503505
0.00014336341
0.00013214229
0.00012075731
0.00010995231
9.8952754e-05
8.86937e-05
7.8199213e-05
6.8645242e-05
5.8801237e-05
5.0149093e-05
4.1133729e-05
3.3629969e-05
2.5663989e-05
1.9625246e-05
1.2984611e-05
8.8356625e-06
3.8607017e-06
2.2088809e-06
-8.3158761e-07
0.011369802
0.010924553
0.01005616
0.0088250167
0.0074190881
0.0060429214
0.0048144419
0.0037641504
0.0028908128
0.002198919
0.0016988919
0.0013884798
0.0012398403
0.0012044493
0.0012303041
0.0012769088
0.0013206457
0.0013519727
0.0013698622
0.0013770729
0.0013772367
0.0013734771
0.0013679958
0.0013621384
0.0013566235
0.0013517686
0.0013476575
0.0013442453
0.0013414172
0.0013390266
0.0013369227
0.00133497
0.0013330589
0.0013311078
0.0013290616
0.0013268862
0.0013245637
0.0013220871
0.0013194568
0.001316677
0.0013137545
0.0013106962
0.0013075092
0.0013041996
0.0013007725
0.0012972322
0.0012935822
0.0012898249
0.0012859626
0.001281997
0.0012779301
0.001273763
0.0012694976
0.0012651351
0.0012606772
0.0012561254
0.0012514814
0.0012467466
0.0012419229
0.0012370118
0.001232015
0.0012269339
0.0012217702
0.0012165252
0.0012112005
0.0012057974
0.0012003173
0.0011947613
0.0011891306
0.0011834265
0.0011776499
0.001171802
0.0011658837
0.0011598958
0.0011538395
0.0011477153
0.0011415242
0.0011352669
0.0011289441
0.0011225565
0.0011161045
0.0011095889
0.0011030101
0.0010963687
0.001089665
0.0010828995
0.0010760725
0.0010691845
0.0010622355
0.0010552261
0.0010481561
0.0010410263
0.0010338362
0.0010265866
0.0010192767
0.0010119077
0.0010044784
0.00099699009
0.0009894414
0.00098183376
0.00097416549
0.00096643822
0.00095864995
0.00095080259
0.00094289375
0.00093492565
0.0009268955
0.00091880584
0.00091065345
0.00090244126
0.00089416556
0.00088582973
0.00087742954
0.00086896882
0.0008604428
0.00085185587
0.00084320258
0.00083448797
0.00082570592
0.00081686207
0.00080794967
0.00079897501
0.00078993059
0.00078082349
0.00077164537
0.0007624041
0.00075309058
0.00074371343
0.00073426282
0.00072474812
0.00071515875
0.00070550484
0.00069577511
0.00068598039
0.00067610879
0.00066617179
0.00065615694
0.00064607631
0.00063591703
0.00062569159
0.00061538691
0.00060501571
0.00059456502
0.0005840474
0.00057345046
0.00056278616
0.00055204322
0.00054123246
0.00053034432
0.00051938789
0.00050835612
0.00049725552
0.00048608256
0.00047484016
0.00046352956
0.00045214876
0.00044070539
0.00042919091
0.00041762124
0.00040597934
0.00039429184
0.00038253068
0.00037073615
0.00035886618
0.00034697829
0.00033501272
0.00032304859
0.00031100393
0.00029898486
0.0002868816
0.00027483389
0.0002626973
0.00025065332
0.00023851437
0.00022651376
0.00021441029
0.00020250144
0.00019047948
0.00017872134
0.00016683668
0.00015530102
0.00014362115
0.00013239534
0.00012100185
0.00011019229
9.9183872e-05
8.8920326e-05
7.8416522e-05
6.8858017e-05
5.9004137e-05
5.0347233e-05
4.1321318e-05
3.3812219e-05
2.5834902e-05
1.978952e-05
1.3136925e-05
8.9779368e-06
3.9933779e-06
2.3064129e-06
-7.4220118e-07
0.01067479
0.010260243
0.0095243356
0.0085009484
0.0073045165
0.0060877177
0.0049679544
0.0039967157
0.0031839496
0.0025303153
0.0020383578
0.0017056604
0.0015146021
0.0014309916
0.0014135197
0.0014260094
0.0014444794
0.0014573229
0.001461533
0.001458438
0.0014506836
0.0014406808
0.0014300984
0.0014198934
0.0014105213
0.0014021398
0.0013947498
0.0013882702
0.0013825767
0.0013775223
0.001372956
0.001368737
0.0013647455
0.0013608863
0.0013570896
0.0013533061
0.0013495037
0.0013456619
0.0013417691
0.0013378187
0.0013338079
0.0013297353
0.0013256009
0.0013214043
0.0013171458
0.0013128245
0.0013084401
0.0013039913
0.0012994776
0.0012948976
0.0012902507
0.0012855359
0.0012807527
0.0012759004
0.001270979
0.0012659882
0.0012609282
0.001255799
0.0012506012
0.0012453349
0.0012400007
0.001234599
0.0012291305
0.0012235955
0.001217995
0.0012123291
0.0012065987
0.001200804
0.001194946
0.0011890248
0.0011830412
0.0011769956
0.0011708886
0.0011647204
0.0011584917
0.0011522027
0.001145854
0.0011394459
0.0011329788
0.0011264529
0.0011198686
0.0011132262
0.0011065259
0.0010997679
0.0010929524
0.0010860797
0.0010791498
0.001072163
0.0010651192
0.0010580186
0.0010508612
0.0010436472
0.0010363762
0.0010290487
0.0010216641
0.001014223
0.0010067245
0.00099916937
0.00099155653
0.00098388692
0.00097615911
0.00096837429
0.00096053071
0.00095262984
0.00094466957
0.00093665168
0.00092857366
0.00092043761
0.00091224062
0.00090398517
0.00089566787
0.00088729166
0.00087885263
0.00087035419
0.00086179188
0.00085316966
0.00084448243
0.0008357348
0.00082692097
0.00081804618
0.00080910402
0.00080010034
0.00079102801
0.00078189367
0.00077268935
0.00076342249
0.00075408437
0.00074468317
0.00073520943
0.0007256721
0.00071606097
0.00070638575
0.00069663554
0.00068682073
0.00067692985
0.00066697389
0.00065694087
0.00064684235
0.00063666593
0.00062642357
0.00061610274
0.00060571552
0.00059524959
0.00058471681
0.00057410548
0.00056342681
0.00055267026
0.00054184587
0.00053094488
0.0005199755
0.00050893159
0.00049781866
0.00048663423
0.00047538006
0.00046405862
0.00045266659
0.00044121296
0.00042968775
0.00041810837
0.00040645618
0.00039475949
0.00038298843
0.0003711852
0.00035930568
0.00034740955
0.00033543473
0.00032346279
0.00031140914
0.00029938265
0.0002872706
0.00027521583
0.00026307061
0.0002510199
0.00023887241
0.00022686536
0.00021475339
0.00020283835
0.00019080785
0.00017904371
0.00016715041
0.00015560889
0.00014392018
0.00013268857
0.00012128594
0.00011047054
9.9452573e-05
8.9182994e-05
7.8669113e-05
6.9104138e-05
5.9239519e-05
5.0575304e-05
4.1537858e-05
3.4019872e-05
2.6030169e-05
1.9972841e-05
1.3307551e-05
9.1293797e-06
4.1366715e-06
2.3921173e-06
-6.6234651e-07
0.010062143
0.0096760392
0.0090412502
0.008181217
0.0071658622
0.0061025419
0.0050924598
0.0041969038
0.0034382407
0.0028199726
0.0023409123
0.0019968243
0.00177523
0.0016522456
0.0015963441
0.0015768904
0.0015710767
0.0015660331
0.001556936
0.0015436469
0.0015278396
0.0015113028
0.0014952811
0.0014804208
0.0014669497
0.0014548685
0.0014440799
0.0014344493
0.0014258281
0.0014180599
0.0014109885
0.0014044654
0.0013983597
0.0013925621
0.0013869871
0.0013815697
0.0013762631
0.001371033
0.0013658555
0.0013607129
0.0013555928
0.0013504853
0.0013453831
0.0013402794
0.0013351688
0.0013300459
0.0013249061
0.0013197447
0.0013145577
0.0013093408
0.0013040912
0.0012988051
0.0012934802
0.0012881137
0.001282704
0.0012772488
0.0012717473
0.0012661976
0.0012605994
0.0012549512
0.0012492531
0.001243504
0.0012377039
0.0012318521
0.0012259489
0.0012199934
0.0012139862
0.0012079266
0.001201815
0.0011956508
0.0011894347
0.001183166
0.0011768454
0.0011704721
0.001164047
0.0011575693
0.0011510397
0.0011444576
0.0011378237
0.0011311374
0.0011243993
0.0011176087
0.0011107662
0.0011038712
0.0010969243
0.0010899249
0.0010828733
0.0010757692
0.0010686126
0.0010614033
0.0010541414
0.0010468264
0.0010394585
0.0010320373
0.0010245626
0.0010170344
0.0010094522
0.0010018161
0.00099412544
0.00098638044
0.00097858017
0.00097072513
0.00096281406
0.00095484772
0.00094682453
0.00093874556
0.00093060884
0.00092241578
0.00091416399
0.00090585528
0.00089748679
0.00088906078
0.00088057389
0.00087202886
0.00086342179
0.00085475595
0.00084602682
0.00083723832
0.00082838526
0.00081947216
0.00081049322
0.00080145361
0.00079234679
0.00078317873
0.00077394206
0.00076464353
0.00075527504
0.00074584407
0.0007363418
0.00072677649
0.00071713856
0.000707437
0.0006976616
0.000687822
0.00067790742
0.00066792811
0.0006578728
0.00064775226
0.00063755487
0.00062729175
0.00061695117
0.00060654438
0.00059605984
0.00058550857
0.00057487972
0.00056418359
0.00055341054
0.00054256962
0.0005316531
0.00052066808
0.00050960953
0.00049848178
0.00048728356
0.00047601535
0.00046468091
0.00045327556
0.00044180968
0.00043027178
0.00041868088
0.0004070166
0.00039530904
0.00038352645
0.00037171297
0.00035982241
0.00034791661
0.00033593119
0.00032395012
0.00031188624
0.0002998511
0.00028772916
0.00027566618
0.00026351132
0.00025145279
0.00023929585
0.00022728131
0.00021515999
0.00020323771
0.00019119789
0.00017942669
0.00016752399
0.00015597547
0.00014427718
0.0001330385
0.00012162597
0.00011080325
9.9774921e-05
8.9497466e-05
7.8972634e-05
6.9398787e-05
5.9522484e-05
5.0847664e-05
4.1797702e-05
3.4266075e-05
2.6263108e-05
2.0186481e-05
1.3508381e-05
9.2981774e-06
4.2998655e-06
2.4703164e-06
-5.8724275e-07
0.0095194535
0.0091609578
0.0086070911
0.0078753359
0.0070107887
0.0060872723
0.0051851201
0.0043650141
0.003657944
0.0030730347
0.0026092852
0.0022613777
0.0020191581
0.0018654174
0.0017767009
0.0017281969
0.0016994186
0.0016771585
0.0016551609
0.0016318779
0.0016080046
0.0015847516
0.0015630226
0.0015432334
0.0015254326
0.0015094792
0.0014951715
0.0014823065
0.0014706964
0.0014601647
0.0014505438
0.0014416751
0.0014334162
0.0014256431
0.0014182549
0.0014111707
0.0014043287
0.0013976807
0.0013911909
0.0013848303
0.0013785771
0.0013724127
0.0013663224
0.0013602927
0.001354313
0.0013483725
0.0013424627
0.0013365746
0.0013307014
0.0013248354
0.0013189712
0.0013131025
0.001307225
0.0013013335
0.0012954248
0.0012894948
0.0012835412
0.0012775606
0.0012715515
0.001265511
0.0012594383
0.0012533309
0.0012471883
0.0012410085
0.0012347913
0.0012285348
0.0012222392
0.0012159026
0.0012095256
0.0012031062
0.0011966453
0.001190141
0.0011835942
0.0011770032
0.0011703688
0.0011636894
0.001156966
0.001150197
0.0011433834
0.0011365235
0.0011296185
0.0011226666
0.001115669
0.0011086241
0.0011015329
0.0010943939
0.001087208
0.0010799738
0.001072692
0.0010653615
0.0010579828
0.0010505547
0.0010430778
0.0010355509
0.0010279746
0.0010203476
0.0010126704
0.001004942
0.00099716242
0.00098933106
0.00098144769
0.0009735118
0.00096552296
0.00095748091
0.0009493849
0.00094123497
0.00093303004
0.00092477045
0.00091645473
0.00090808362
0.00089965518
0.00089117061
0.00088262749
0.00087402747
0.00086536763
0.00085665015
0.00084787147
0.00083903445
0.00083013486
0.00082117614
0.00081215349
0.00080307098
0.00079392308
0.00078471466
0.00077543936
0.00076610285
0.00075669804
0.00074723132
0.00073769489
0.0007280959
0.00071842583
0.00070869255
0.00069888691
0.00068901742
0.00067907438
0.00066906689
0.00065898479
0.00064883768
0.00063861508
0.0006283269
0.0006179626
0.00060753216
0.0005970253
0.00058645172
0.00057580185
0.00056508466
0.00055429184
0.00054343105
0.00053249593
0.00052149213
0.00051041609
0.0004992706
0.00048805595
0.00047677096
0.00046542108
0.00045399985
0.00044251947
0.00043096654
0.00041936201
0.00040768349
0.00039596314
0.00038416703
0.00037234154
0.00036043811
0.00034852104
0.00033652335
0.00032453167
0.00031245605
0.00030041092
0.0002882777
0.00027620527
0.00026403952
0.000251972
0.00023980447
0.00022778133
0.00021564962
0.00020371903
0.00019166892
0.00017988954
0.00016797653
0.00015641982
0.00014471105
0.00013346395
0.00012204063
0.00011120892
0.00010016935
8.9881857e-05
7.9345183e-05
6.9759521e-05
5.9870663e-05
5.1181054e-05
4.2117818e-05
3.456633e-05
2.6549732e-05
2.0444012e-05
1.3753983e-05
9.4948548e-06
4.4943758e-06
2.5486667e-06
-5.0955749e-07
0.0090364928
0.0087044437
0.0082169578
0.0075873227
0.0068466601
0.006045994
0.0052464105
0.0045016602
0.0038459992
0.0032938541
0.0028468337
0.0025001416
0.002245006
0.0020683346
0.0019526914
0.0018786261
0.0018285945
0.0017899105
0.0017554363
0.0017224097
0.001690571
0.0016605585
0.0016329766
0.0016080709
0.0015857617
0.0015657925
0.0015478617
0.0015316892
0.0015170363
0.0015036958
0.0014914826
0.0014802255
0.00146977
0.0014599782
0.0014507342
0.0014419418
0.0014335246
0.0014254208
0.0014175824
0.0014099697
0.0014025513
0.0013953
0.0013881939
0.0013812126
0.0013743401
0.0013675602
0.0013608602
0.001354227
0.0013476504
0.0013411194
0.0013346261
0.0013281612
0.0013217184
0.0013152902
0.0013088717
0.0013024566
0.0012960415
0.0012896209
0.0012831925
0.0012767516
0.0012702967
0.0012638237
0.0012573318
0.0012508171
0.0012442795
0.0012377156
0.0012311254
0.0012245059
0.0012178574
0.001211177
0.0012044653
0.0011977196
0.0011909408
0.0011841261
0.0011772766
0.0011703896
0.0011634665
0.0011565044
0.0011495049
0.0011424653
0.0011353872
0.0011282678
0.0011211087
0.0011139073
0.0011066653
0.0010993801
0.0010920532
0.0010846821
0.0010772685
0.0010698097
0.0010623075
0.0010547592
0.0010471665
0.001039527
0.0010318419
0.0010241092
0.0010163299
0.0010085021
0.0010006267
0.00099270187
0.00098472847
0.00097670463
0.00096863113
0.0009605063
0.00095233065
0.00094410277
0.00093582288
0.00092748986
0.00091910356
0.00091066324
0.00090216833
0.00089361851
0.00088501277
0.00087635121
0.00086763235
0.00085885681
0.0008500225
0.00084113068
0.00083217864
0.0008231682
0.00081409609
0.00080496474
0.00079577019
0.00078651564
0.00077719635
0.00076781626
0.00075836995
0.00074886206
0.00073928649
0.0007296486
0.00071994161
0.00071017158
0.0007003311
0.00069042687
0.00068045098
0.00067041066
0.00066029759
0.00065011946
0.00063986765
0.00062955015
0.00061915832
0.00060870018
0.00059816739
0.00058756763
0.00057689335
0.00056615142
0.00055533563
0.00054445146
0.00053349473
0.00052246885
0.00051137251
0.00050020616
0.00048897244
0.00047766774
0.00046629997
0.00045486012
0.00044336297
0.00043179245
0.00042017221
0.00040847706
0.000396742
0.00038493015
0.00037309091
0.00036117257
0.00034924263
0.00033723079
0.00032522706
0.00031313799
0.00030108155
0.00028893549
0.00027685241
0.00026467435
0.00025259675
0.00024041733
0.00022838456
0.00021624128
0.00020430135
0.00019223986
0.00018045126
0.00016852694
0.00015696086
0.00014524069
0.00013398374
0.00012254877
0.00011170623
0.00010065461
9.0354597e-05
7.9805357e-05
7.0204344e-05
6.0302373e-05
5.1592787e-05
4.2516051e-05
3.4936849e-05
2.6907111e-05
2.0759907e-05
1.4060013e-05
9.7312977e-06
4.7323362e-06
2.6374311e-06
-4.2032228e-07
0.008604492
0.0082973308
0.0078652396
0.0073185013
0.0066796561
0.005984794
0.0052795513
0.004608431
0.004004559
0.0034856614
0.0030566706
0.0027146687
0.0024523837
0.0022594244
0.0021225627
0.0020267847
0.0019576074
0.0019035017
0.0018570427
0.0018145708
0.0017749603
0.0017382771
0.0017048306
0.0016747272
0.0016478009
0.0016237126
0.0016020763
0.0015825359
0.0015647946
0.0015486063
0.0015337625
0.0015200765
0.0015073815
0.0014955267
0.0014843826
0.0014738381
0.001463803
0.0014542019
0.0014449754
0.0014360726
0.0014274532
0.0014190809
0.001410927
0.0014029642
0.0013951708
0.0013875251
0.0013800104
0.0013726089
0.0013653074
0.0013580912
0.0013509499
0.001343871
0.0013368465
0.0013298659
0.0013229231
0.0013160092
0.0013091198
0.0013022472
0.0012953883
0.0012885365
0.0012816896
0.0012748417
0.0012679916
0.001261134
0.0012542684
0.0012473898
0.0012404984
0.0012335894
0.0012266635
0.0012197162
0.0012127485
0.0012057561
0.0011987404
0.0011916972
0.0011846282
0.0011775292
0.0011704021
0.0011632429
0.0011560537
0.0011488305
0.0011415756
0.0011342848
0.0011269607
0.0011195992
0.001112203
0.0011047679
0.0010972966
0.0010897851
0.0010822361
0.0010746456
0.0010670164
0.0010593444
0.0010516324
0.0010438764
0.0010360792
0.0010282368
0.001020352
0.0010124209
0.0010044461
0.0009964239
0.00098835676
0.00098024101
0.00097207909
0.00096386746
0.00095560834
0.00094729843
0.00093893972
0.00093052912
0.00092206835
0.00091355463
0.00090498933
0.00089637002
0.00088769772
0.00087897036
0.00087018853
0.00086135067
0.00085245678
0.0008435059
0.00083449748
0.00082543104
0.00081630558
0.00080712114
0.00079787608
0.00078857119
0.00077920409
0.00076977626
0.00076028469
0.00075073151
0.0007411131
0.00073143226
0.00072168473
0.00071187395
0.00070199512
0.00069205225
0.00068204008
0.00067196311
0.00066181574
0.00065160285
0.00064131863
0.00063096818
0.00062054575
0.00061005636
0.00059949469
0.00058886533
0.0005781638
0.00056739384
0.00055655237
0.00054564165
0.00053466077
0.00052360975
0.0005124907
0.00050130057
0.00049004553
0.00047871834
0.00046733058
0.00045586947
0.00044435361
0.00043276299
0.00042112526
0.00040941112
0.00039765973
0.00038582994
0.00037397547
0.00036204016
0.00035009603
0.00033806813
0.00032605118
0.00031394689
0.0003018781
0.00028971758
0.00027762293
0.00026543106