/*--------------------------------*- C++ -*----------------------------------*\
| =========                 |                                                 |
| \\      /  F ield         | OpenFOAM: The Open Source CFD Toolbox           |
|  \\    /   O peration     | Version:  5.x                                   |
|   \\  /    A nd           | Web:      www.OpenFOAM.org                      |
|    \\/     M anipulation  |                                                 |
\*---------------------------------------------------------------------------*/
FoamFile
{
    version     2.0;
    format      ascii;
    class       surfaceScalarField;
    location    "0.6";
    object      phi;
}
// * * * * * * * * * * * * * * * * * * * * * * * * * * * * * * * * * * * * * //

dimensions      [0 3 -1 0 0 0 0];

internalField   nonuniform List<scalar> 
42870
(
3.6476975e-08
3.0076897e-09
-3.9484665e-08
3.2669302e-08
3.8076736e-09
2.8878403e-08
3.7908992e-09
2.5281815e-08
3.5965878e-09
2.1876149e-08
3.4056662e-09
1.8728954e-08
3.1471942e-09
1.5965891e-08
2.7630632e-09
1.3680192e-08
2.2856994e-09
1.1890769e-08
1.7894227e-09
1.0564422e-08
1.3263475e-09
9.6153167e-09
9.4910508e-10
8.9443959e-09
6.7092073e-10
8.4645019e-09
4.7989399e-10
8.108649e-09
3.5585295e-10
7.8293019e-09
2.7934703e-10
7.5933951e-09
2.3590688e-10
7.3805754e-09
2.1281972e-10
7.1803672e-09
2.0020818e-10
6.9885283e-09
1.9183888e-10
6.8040762e-09
1.8445215e-10
6.6273786e-09
1.766976e-10
6.4590993e-09
1.6827923e-10
6.2997111e-09
1.5938821e-10
6.1493424e-09
1.5036871e-10
6.0077946e-09
1.4154781e-10
5.8746291e-09
1.3316552e-10
5.7492649e-09
1.2536418e-10
5.6310575e-09
1.1820735e-10
5.51936e-09
1.1169752e-10
5.4135616e-09
1.0579841e-10
5.3131072e-09
1.0045439e-10
5.2175036e-09
9.5603649e-11
5.1263181e-09
9.1185498e-11
5.0391736e-09
8.7144405e-11
4.9557423e-09
8.3431372e-11
4.8757378e-09
8.000447e-11
4.7989096e-09
7.6828221e-11
4.7250365e-09
7.3873093e-11
4.6539221e-09
7.1114423e-11
4.5853903e-09
6.8531782e-11
4.5192823e-09
6.6107983e-11
4.4554537e-09
6.3828607e-11
4.3937725e-09
6.1681251e-11
4.3341172e-09
5.965526e-11
4.276376e-09
5.7741209e-11
4.2204452e-09
5.5930788e-11
4.1662287e-09
5.4216467e-11
4.1136373e-09
5.2591456e-11
4.0625878e-09
5.1049508e-11
4.0130028e-09
4.9584915e-11
3.9648104e-09
4.819244e-11
3.9179432e-09
4.6867222e-11
3.8723384e-09
4.5604819e-11
3.8279373e-09
4.4401068e-11
3.7846851e-09
4.325223e-11
3.7425303e-09
4.2154736e-11
3.7014249e-09
4.110544e-11
3.6613236e-09
4.0101274e-11
3.622184e-09
3.913961e-11
3.5839662e-09
3.8217778e-11
3.5466326e-09
3.7333605e-11
3.5101479e-09
3.648474e-11
3.4744785e-09
3.5669403e-11
3.439593e-09
3.4885502e-11
3.4054614e-09
3.4131594e-11
3.3720556e-09
3.3405774e-11
3.3393487e-09
3.2706886e-11
3.3073156e-09
3.2033156e-11
3.2759319e-09
3.138371e-11
3.245175e-09
3.0756869e-11
3.215023e-09
3.0152017e-11
3.1854555e-09
2.9567531e-11
3.1564524e-09
2.9003026e-11
3.1279955e-09
2.8456888e-11
3.1000666e-09
2.7928965e-11
3.0726489e-09
2.741764e-11
3.0457259e-09
2.6922999e-11
3.0192826e-09
2.6443374e-11
2.9933035e-09
2.5979078e-11
2.9677751e-09
2.5528366e-11
2.9426833e-09
2.5091802e-11
2.9180158e-09
2.4667539e-11
2.8937594e-09
2.4256396e-11
2.869903e-09
2.3856381e-11
2.8464344e-09
2.3468571e-11
2.8233436e-09
2.3090807e-11
2.8006192e-09
2.2724469e-11
2.778252e-09
2.2367193e-11
2.7562313e-09
2.202067e-11
2.734549e-09
2.1682273e-11
2.713195e-09
2.1354041e-11
2.6921619e-09
2.1033065e-11
2.6714401e-09
2.072178e-11
2.6510232e-09
2.0416929e-11
2.6309018e-09
2.0121371e-11
2.6110704e-09
1.9831444e-11
2.5915199e-09
1.9550491e-11
2.5722455e-09
1.9274396e-11
2.5532385e-09
1.9007045e-11
2.5344947e-09
1.8743798e-11
2.5160055e-09
1.8489138e-11
2.4977677e-09
1.823783e-11
2.4797727e-09
1.7995024e-11
2.4620179e-09
1.7754821e-11
2.4444948e-09
1.7523106e-11
2.4272015e-09
1.7293239e-11
2.4101296e-09
1.7071928e-11
2.3932779e-09
1.6851699e-11
2.3766377e-09
1.6640153e-11
2.3602088e-09
1.6428901e-11
2.3439823e-09
1.6226546e-11
2.3279586e-09
1.6023663e-11
2.3121287e-09
1.5829961e-11
2.2964938e-09
1.5634892e-11
2.2810444e-09
1.5449357e-11
2.2657828e-09
1.5261571e-11
2.2506991e-09
1.5083767e-11
2.2357963e-09
1.4902757e-11
2.221064e-09
1.4732275e-11
2.2065064e-09
1.4557599e-11
2.1921124e-09
1.4394043e-11
2.1778871e-09
1.4225265e-11
2.1638188e-09
1.4068296e-11
2.1499138e-09
1.3904997e-11
2.1361595e-09
1.3754296e-11
2.1225635e-09
1.3596096e-11
2.1091121e-09
1.3451357e-11
2.0958142e-09
1.3297896e-11
2.0826554e-09
1.3158836e-11
2.0696456e-09
1.3009759e-11
2.0567695e-09
1.2876117e-11
2.0440384e-09
1.2731104e-11
2.0314358e-09
1.2602625e-11
2.0189744e-09
1.2461364e-11
2.0066366e-09
1.2337808e-11
1.9944366e-09
1.2200006e-11
1.9823554e-09
1.2081138e-11
1.9704089e-09
1.1946514e-11
1.9585768e-09
1.1832115e-11
1.9468764e-09
1.1700407e-11
1.9352862e-09
1.1590249e-11
1.923825e-09
1.1461203e-11
1.9124699e-09
1.1355069e-11
1.9012414e-09
1.1228447e-11
1.8901153e-09
1.1126107e-11
1.8791136e-09
1.1001686e-11
1.8682107e-09
1.0902905e-11
1.8574302e-09
1.0780493e-11
1.8467452e-09
1.0685008e-11
1.8361808e-09
1.0564432e-11
1.8257088e-09
1.0471971e-11
1.8153558e-09
1.0353084e-11
1.8050924e-09
1.0263337e-11
1.7949464e-09
1.0146022e-11
1.7848877e-09
1.0058662e-11
1.7749449e-09
9.9428247e-12
1.7650874e-09
9.857486e-12
1.7553443e-09
9.7430784e-12
1.745685e-09
9.6593502e-12
1.7361386e-09
9.5463716e-12
1.7266748e-09
9.4637698e-12
1.7173226e-09
9.3522975e-12
1.7080523e-09
9.2702752e-12
1.6988918e-09
9.1604559e-12
1.6898134e-09
9.0783758e-12
1.680843e-09
8.9704622e-12
1.6719554e-09
8.8876025e-12
1.6631734e-09
8.7819443e-12
1.654476e-09
8.6974714e-12
1.6458814e-09
8.5945855e-12
1.6373739e-09
8.507527e-12
1.6289657e-09
8.4081113e-12
1.6206484e-09
8.3173225e-12
1.6124261e-09
8.2223468e-12
1.6042996e-09
8.1264775e-12
1.5962624e-09
8.0372137e-12
1.5883277e-09
7.9346942e-12
1.5804749e-09
7.8528208e-12
1.5727331e-09
7.7418093e-12
1.5650635e-09
7.669504e-12
1.5575157e-09
7.5478452e-12
1.5500277e-09
7.4879752e-12
1.5426746e-09
7.3530883e-12
1.5353652e-09
7.3094247e-12
1.5282069e-09
7.1582782e-12
1.5210712e-09
7.1357503e-12
1.5141064e-09
6.9648134e-12
1.5071365e-09
6.9699049e-12
1.5003614e-09
6.7751041e-12
1.4935449e-09
6.8164875e-12
1.4869518e-09
6.5930515e-12
1.4802691e-09
6.6826957e-12
1.4738441e-09
6.4250235e-12
1.4672641e-09
6.5800107e-12
1.4609827e-09
6.2813801e-12
1.4544553e-09
6.5274351e-12
1.4482766e-09
6.1786336e-12
1.4417219e-09
6.5547873e-12
1.4355908e-09
6.1310532e-12
6.9549757e-12
4.2104039e-08
2.7426873e-09
-4.1839036e-08
4.1941733e-08
3.969979e-09
4.1256121e-08
4.4765117e-09
4.029368e-08
4.5590289e-09
3.9153422e-08
4.5459235e-09
3.7830838e-08
4.4697786e-09
3.6343416e-08
4.2504855e-09
3.4751916e-08
3.8771986e-09
3.3142317e-08
3.3990225e-09
3.1584091e-08
2.8845734e-09
3.0124063e-08
2.4091329e-09
2.8780562e-08
2.0144213e-09
2.7553664e-08
1.7067929e-09
2.6436829e-08
1.472687e-09
2.5426584e-08
1.2895927e-09
2.4512205e-08
1.150286e-09
2.3681879e-08
1.0431457e-09
2.2924446e-08
9.5764065e-10
2.2230098e-08
8.8618707e-10
2.1590525e-08
8.2402499e-10
2.0998829e-08
7.6839398e-10
2.0449329e-08
7.1777937e-10
1.9937321e-08
6.7139595e-10
1.9458844e-08
6.2884585e-10
1.9010492e-08
5.8989977e-10
1.8589294e-08
5.5436346e-10
1.819263e-08
5.2202812e-10
1.7818169e-08
4.9266798e-10
1.746384e-08
4.6602676e-10
1.7127804e-08
4.4183414e-10
1.6808436e-08
4.1982286e-10
1.6504298e-08
3.9974148e-10
1.6214123e-08
3.8136075e-10
1.593679e-08
3.6447709e-10
1.5671309e-08
3.4891234e-10
1.5416801e-08
3.3451301e-10
1.5172481e-08
3.2114747e-10
1.4937651e-08
3.087038e-10
1.4711679e-08
2.9708646e-10
1.4493996e-08
2.8621423e-10
1.4284087e-08
2.7601722e-10
1.408148e-08
2.6643536e-10
1.3885745e-08
2.5741615e-10
1.3696487e-08
2.4891371e-10
1.3513341e-08
2.408872e-10
1.3335971e-08
2.3330031e-10
1.3164068e-08
2.2612022e-10
1.2997342e-08
2.1931735e-10
1.2835527e-08
2.1286463e-10
1.2678374e-08
2.0673746e-10
1.2525653e-08
2.0091334e-10
1.2377149e-08
1.9537158e-10
1.223266e-08
1.9009327e-10
1.2092e-08
1.8506091e-10
1.1954994e-08
1.8025863e-10
1.1821477e-08
1.7567156e-10
1.1691296e-08
1.7128633e-10
1.1564307e-08
1.6709027e-10
1.1440375e-08
1.6307215e-10
1.1319372e-08
1.5922103e-10
1.1201178e-08
1.5552752e-10
1.108568e-08
1.5198209e-10
1.0972773e-08
1.485769e-10
1.0862355e-08
1.4530359e-10
1.0754331e-08
1.4215562e-10
1.0648611e-08
1.3912551e-10
1.054511e-08
1.3620785e-10
1.0443747e-08
1.3339583e-10
1.0344446e-08
1.3068509e-10
1.0247133e-08
1.2806933e-10
1.015174e-08
1.2554513e-10
1.0058201e-08
1.2310659e-10
9.9664532e-09
1.2075112e-10
9.8764371e-09
1.1847303e-10
9.7880955e-09
1.1627052e-10
9.7013751e-09
1.1413805e-10
9.6162235e-09
1.1207465e-10
9.5325921e-09
1.1007474e-10
9.4504331e-09
1.0813814e-10
9.3697022e-09
1.0625917e-10
9.2903556e-09
1.0443845e-10
9.212353e-09
1.0267009e-10
9.1356539e-09
1.0095551e-10
9.0602218e-09
9.9288527e-11
8.986019e-09
9.7671387e-11
8.9130123e-09
9.6097473e-11
8.8411668e-09
9.4569968e-11
8.7704523e-09
9.3081715e-11
8.7008361e-09
9.1636868e-11
8.6322908e-09
9.0227573e-11
8.5647858e-09
8.8859047e-11
8.4982962e-09
8.7522638e-11
8.4327932e-09
8.6224757e-11
8.3682544e-09
8.495579e-11
8.3046523e-09
8.3723433e-11
8.2419668e-09
8.2516918e-11
8.1801719e-09
8.1345397e-11
8.1192495e-09
8.0196791e-11
8.0591747e-09
7.9081887e-11
7.9999314e-09
7.7987077e-11
7.9414956e-09
7.6924951e-11
7.8838533e-09
7.5880155e-11
7.826981e-09
7.4867298e-11
7.7708668e-09
7.3869048e-11
7.7154876e-09
7.2902255e-11
7.6608335e-09
7.1947365e-11
7.6068817e-09
7.1023737e-11
7.5536241e-09
7.0109285e-11
7.5010381e-09
6.9226136e-11
7.4491176e-09
6.8349404e-11
7.3978399e-09
6.7504297e-11
7.3472008e-09
6.6662761e-11
7.2971773e-09
6.5853446e-11
7.2477674e-09
6.5044792e-11
7.1989475e-09
6.426921e-11
7.1507179e-09
6.3491257e-11
7.1030541e-09
6.2747539e-11
7.0559586e-09
6.1998222e-11
7.0094063e-09
6.1284639e-11
6.9634018e-09
6.0562078e-11
6.9179188e-09
5.9876996e-11
6.8729647e-09
5.9179403e-11
6.8285116e-09
5.8521356e-11
6.7845696e-09
5.7847023e-11
6.7411092e-09
5.7214659e-11
6.6981433e-09
5.6561985e-11
6.6556407e-09
5.5954036e-11
6.6136171e-09
5.5321511e-11
6.5720391e-09
5.4736792e-11
6.5309259e-09
5.4122952e-11
6.4902416e-09
5.3560377e-11
6.4500089e-09
5.2963846e-11
6.4101891e-09
5.2422381e-11
6.3708087e-09
5.1841832e-11
6.331826e-09
5.1320506e-11
6.2932713e-09
5.0754665e-11
6.2550999e-09
5.0252556e-11
6.2173462e-09
4.9700193e-11
6.1799619e-09
4.9216441e-11
6.1429859e-09
4.867636e-11
6.1063661e-09
4.8210121e-11
6.0701461e-09
4.7681149e-11
6.0342696e-09
4.7231626e-11
5.9987854e-09
4.6712623e-11
5.9636325e-09
4.6279019e-11
5.9288653e-09
4.5768869e-11
5.8944178e-09
4.5350395e-11
5.8603503e-09
4.4848034e-11
5.8265914e-09
4.4443862e-11
5.7932076e-09
4.3948262e-11
5.760122e-09
4.3557559e-11
5.7274073e-09
4.3067718e-11
5.6949811e-09
4.26896e-11
5.6629225e-09
4.220456e-11
5.6311431e-09
4.1838112e-11
5.599729e-09
4.1356936e-11
5.5685853e-09
4.100118e-11
5.5378054e-09
4.0522991e-11
5.5072879e-09
4.0176879e-11
5.4771334e-09
3.970086e-11
5.4472339e-09
3.9363214e-11
5.4176975e-09
3.8888674e-11
5.3884096e-09
3.8558193e-11
5.3594855e-09
3.8084556e-11
5.3308041e-09
3.775979e-11
5.3024879e-09
3.7286648e-11
5.2744095e-09
3.6966e-11
5.2466984e-09
3.6493117e-11
5.219221e-09
3.6174814e-11
5.1921133e-09
3.570225e-11
5.1652366e-09
3.5384294e-11
5.1387322e-09
3.491247e-11
5.1124569e-09
3.4592602e-11
5.0865568e-09
3.4122472e-11
5.0608852e-09
3.3798127e-11
5.0355911e-09
3.3331289e-11
5.0105262e-09
3.2999628e-11
4.9858405e-09
3.2538526e-11
4.9613858e-09
3.2196416e-11
4.9373108e-09
3.1744576e-11
4.91347e-09
3.1388603e-11
4.8900069e-09
3.0951054e-11
4.8667826e-09
3.0577455e-11
4.8439307e-09
3.0161251e-11
4.8213229e-09
2.9766089e-11
4.7990778e-09
2.9380917e-11
4.7770822e-09
2.8960342e-11
4.7554326e-09
2.8619499e-11
4.7340376e-09
2.8170128e-11
4.712962e-09
2.7892128e-11
4.6921435e-09
2.7411495e-11
4.6716034e-09
2.7222859e-11
4.6513179e-09
2.6710455e-11
4.6312478e-09
2.6650128e-11
4.6114192e-09
2.6109979e-11
4.5917106e-09
2.6236103e-11
4.5722067e-09
2.5682492e-11
4.5526875e-09
2.6073936e-11
4.5332953e-09
2.5523343e-11
2.6996651e-11
4.4024846e-08
2.5882805e-09
-4.3870439e-08
4.4406673e-08
3.5881521e-09
4.4607288e-08
4.2758973e-09
4.4657324e-08
4.5089926e-09
4.462374e-08
4.5795073e-09
4.4503095e-08
4.5904234e-09
4.4241099e-08
4.5124817e-09
4.3816848e-08
4.3014498e-09
4.3250621e-08
3.9652491e-09
4.2577787e-08
3.5574072e-09
4.1840032e-08
3.1468883e-09
4.1069643e-08
2.7848104e-09
4.0286112e-08
2.4903236e-09
3.950159e-08
2.2572093e-09
3.8721494e-08
2.0696892e-09
3.7952861e-08
1.9189188e-09
3.7199748e-08
1.7962584e-09
3.6464088e-08
1.6933003e-09
3.5746859e-08
1.6034166e-09
3.5048697e-08
1.5221869e-09
3.4370108e-08
1.4469825e-09
3.3711515e-08
1.376373e-09
3.3073247e-08
1.3096636e-09
3.2455519e-08
1.2465743e-09
3.1858392e-08
1.187026e-09
3.1281773e-08
1.1309827e-09
3.0725411e-08
1.0783901e-09
3.0188903e-08
1.0291761e-09
2.9671724e-08
9.8320526e-10
2.9173256e-08
9.4030214e-10
2.8692812e-08
9.0026759e-10
2.8229659e-08
8.6289439e-10
2.7783043e-08
8.2797664e-10
2.7352203e-08
7.953175e-10
2.6936383e-08
7.6473189e-10
2.6534846e-08
7.3604957e-10
2.6146879e-08
7.0911457e-10
2.5771797e-08
6.8378594e-10
2.5408948e-08
6.5993583e-10
2.5057713e-08
6.3744939e-10
2.4717507e-08
6.1622243e-10
2.4387782e-08
5.9616124e-10
2.4068017e-08
5.7718037e-10
2.3757728e-08
5.5920264e-10
2.3456458e-08
5.4215725e-10
2.3163779e-08
5.2597988e-10
2.2879288e-08
5.1061124e-10
2.2602608e-08
4.9599721e-10
2.2333385e-08
4.8208766e-10
2.2071286e-08
4.6883668e-10
2.1815997e-08
4.562019e-10
2.1567224e-08
4.4414423e-10
2.132469e-08
4.326276e-10
2.1088132e-08
4.2161855e-10
2.0857305e-08
4.1108645e-10
2.0631974e-08
4.0100255e-10
2.0411919e-08
3.9134073e-10
2.0196933e-08
3.8207621e-10
1.9986819e-08
3.7318675e-10
1.9781389e-08
3.6465075e-10
1.9580467e-08
3.5644933e-10
1.9383886e-08
3.4856349e-10
1.9191485e-08
3.4097722e-10
1.9003115e-08
3.3367372e-10
1.8818632e-08
3.2663942e-10
1.8637898e-08
3.1985925e-10
1.8460784e-08
3.1332177e-10
1.8287166e-08
3.0701325e-10
1.8116927e-08
3.0092428e-10
1.7949955e-08
2.9504213e-10
1.778614e-08
2.893592e-10
1.7625383e-08
2.8386359e-10
1.7467585e-08
2.7854935e-10
1.7312653e-08
2.7340503e-10
1.7160497e-08
2.6842625e-10
1.7011034e-08
2.636019e-10
1.6864179e-08
2.5892917e-10
1.6719857e-08
2.54397e-10
1.6577991e-08
2.5000413e-10
1.6438511e-08
2.4573936e-10
1.6301346e-08
2.4160297e-10
1.6166433e-08
2.375834e-10
1.6033706e-08
2.3368253e-10
1.5903106e-08
2.2988828e-10
1.5774573e-08
2.2620416e-10
1.5648054e-08
2.2261729e-10
1.552349e-08
2.1913301e-10
1.5400835e-08
2.1573743e-10
1.5280034e-08
2.1243778e-10
1.5161043e-08
2.092189e-10
1.5043811e-08
2.0609009e-10
1.4928299e-08
2.0303467e-10
1.481446e-08
2.0006425e-10
1.4702255e-08
1.9716033e-10
1.4591642e-08
1.9433705e-10
1.4482585e-08
1.9157368e-10
1.4375043e-08
1.8888724e-10
1.4268986e-08
1.8625445e-10
1.4164372e-08
1.8369551e-10
1.4061175e-08
1.811842e-10
1.3959355e-08
1.7874428e-10
1.385889e-08
1.7634608e-10
1.3759739e-08
1.7401738e-10
1.3661884e-08
1.7172463e-10
1.3565286e-08
1.6950003e-10
1.3469928e-08
1.6730565e-10
1.3375773e-08
1.6517867e-10
1.3282806e-08
1.6307617e-10
1.3190991e-08
1.6104083e-10
1.3100317e-08
1.5902414e-10
1.3010746e-08
1.5707497e-10
1.292227e-08
1.5513849e-10
1.2834853e-08
1.5327045e-10
1.2748489e-08
1.5140898e-10
1.2663141e-08
1.4961746e-10
1.2578806e-08
1.4782612e-10
1.2495446e-08
1.461069e-10
1.2413064e-08
1.4438109e-10
1.2331618e-08
1.4273025e-10
1.2251114e-08
1.4106574e-10
1.2171512e-08
1.3947962e-10
1.2092819e-08
1.3787237e-10
1.2014992e-08
1.3634768e-10
1.1938046e-08
1.3479385e-10
1.1861933e-08
1.3332751e-10
1.1786671e-08
1.3182349e-10
1.1712213e-08
1.3041264e-10
1.1638579e-08
1.2895499e-10
1.1565719e-08
1.2759698e-10
1.149366e-08
1.2618236e-10
1.1422345e-08
1.2487476e-10
1.1351809e-08
1.2350002e-10
1.1281991e-08
1.222405e-10
1.121293e-08
1.2090258e-10
1.1144562e-08
1.1968901e-10
1.1076931e-08
1.1838494e-10
1.1009969e-08
1.172153e-10
1.0943727e-08
1.1594218e-10
1.0878128e-08
1.148146e-10
1.0813235e-08
1.1356959e-10
1.0748963e-08
1.1248228e-10
1.0685382e-08
1.1126255e-10
1.0622399e-08
1.1021382e-10
1.0560096e-08
1.090166e-10
1.049837e-08
1.0800482e-10
1.0437311e-08
1.0682733e-10
1.0376811e-08
1.0585092e-10
1.0316968e-08
1.0469043e-10
1.0257664e-08
1.037478e-10
1.0199011e-08
1.0260157e-10
1.0140877e-08
1.0169117e-10
1.0083389e-08
1.0055647e-10
1.0026402e-08
9.9676703e-11
9.9700554e-09
9.8550792e-11
9.9141934e-09
9.7700076e-11
9.8589702e-09
9.6580154e-11
9.8042145e-09
9.5756866e-11
9.7500974e-09
9.4640134e-11
9.6964317e-09
9.3842598e-11
9.6434063e-09
9.2726241e-11
9.5908168e-09
9.1952659e-11
9.5388716e-09
9.0833929e-11
9.4873474e-09
9.0082397e-11
9.4364733e-09
8.8958586e-11
9.3860061e-09
8.8227077e-11
9.3361971e-09
8.709558e-11
9.2867811e-09
8.6381971e-11
9.238034e-09
8.5240272e-11
9.1896665e-09
8.4542334e-11
9.1419805e-09
8.3388179e-11
9.0946613e-09
8.2703555e-11
9.0480387e-09
8.1535035e-11
9.0017701e-09
8.0861246e-11
8.9562155e-09
7.9677033e-11
8.9110021e-09
7.9011501e-11
8.8665224e-09
7.781101e-11
8.8223708e-09
7.7151222e-11
8.7789745e-09
7.5934879e-11
8.7358923e-09
7.5278539e-11
8.6935888e-09
7.4048111e-11
8.651584e-09
7.3393379e-11
8.6103825e-09
7.2152582e-11
8.5694616e-09
7.1498314e-11
8.5293693e-09
7.0253586e-11
8.4895354e-09
6.9600013e-11
8.4505548e-09
6.8361453e-11
8.411804e-09
6.7711186e-11
8.3739294e-09
6.6494122e-11
8.336246e-09
6.5853507e-11
8.2994569e-09
6.46812e-11
8.2628063e-09
6.4062138e-11
8.2270586e-09
6.2970524e-11
8.1913751e-09
6.2393977e-11
8.1565861e-09
6.1439079e-11
8.1217531e-09
6.0943046e-11
8.0877776e-09
6.0211551e-11
8.0535933e-09
5.9866828e-11
8.0201796e-09
5.9487648e-11
7.9863505e-09
5.9352455e-11
6.0830669e-11
4.5950665e-08
2.5157861e-09
-4.587817e-08
4.6263263e-08
3.2755539e-09
4.6597493e-08
3.9416674e-09
4.6848285e-08
4.2582e-09
4.7063171e-08
4.3646216e-09
4.7267658e-08
4.3859366e-09
4.7428449e-08
4.3516905e-09
4.7504725e-08
4.2251739e-09
4.7477213e-08
3.9927606e-09
4.7349279e-08
3.6853418e-09
4.7140771e-08
3.3553962e-09
4.6874884e-08
3.0506976e-09
4.6569547e-08
2.7956608e-09
4.6234859e-08
2.5918964e-09
4.5875209e-08
2.4293392e-09
4.5496146e-08
2.2979823e-09
4.5102242e-08
2.1901625e-09
4.4696241e-08
2.0993011e-09
4.4279719e-08
2.0199384e-09
4.385384e-08
1.9480659e-09
4.3419736e-08
1.8810865e-09
4.2978617e-08
1.8174924e-09
4.2531776e-08
1.7565043e-09
4.2080562e-08
1.6977885e-09
4.1626334e-08
1.641254e-09
4.1170411e-08
1.5869055e-09
4.0714033e-08
1.5347687e-09
4.0258345e-08
1.4848639e-09
3.9804382e-08
1.4371681e-09
3.9353064e-08
1.3916205e-09
3.8905197e-08
1.3481339e-09
3.8461484e-08
1.3066074e-09
3.8022527e-08
1.2669344e-09
3.7588834e-08
1.2290098e-09
3.7160834e-08
1.1927322e-09
3.6738876e-08
1.1580076e-09
3.6323242e-08
1.1247486e-09
3.5914152e-08
1.092876e-09
3.5511771e-08
1.0623166e-09
3.5116216e-08
1.0330045e-09
3.472756e-08
1.0048783e-09
3.4345839e-08
9.778822e-10
3.3971056e-08
9.5196321e-10
3.3603187e-08
9.2707244e-10
3.3242181e-08
9.0316302e-10
3.288797e-08
8.80191e-10
3.2540467e-08
8.5811391e-10
3.2199573e-08
8.3689159e-10
3.1865175e-08
8.1648498e-10
3.1537155e-08
7.9685708e-10
3.1215385e-08
7.7797229e-10
3.0899732e-08
7.5979648e-10
3.0590063e-08
7.4229711e-10
3.0286239e-08
7.2544275e-10
2.9988121e-08
7.0920401e-10
2.9695572e-08
6.9355209e-10
2.9408452e-08
6.7846044e-10
2.9126625e-08
6.6390281e-10
2.8849956e-08
6.498555e-10
2.8578313e-08
6.362944e-10
2.8311563e-08
6.2319862e-10
2.8049581e-08
6.1054591e-10
2.779224e-08
5.9831798e-10
2.753942e-08
5.8649432e-10
2.7291e-08
5.7505903e-10
2.7046866e-08
5.6399303e-10
2.6806905e-08
5.5328265e-10
2.6571009e-08
5.4290991e-10
2.633907e-08
5.3286347e-10
2.6110986e-08
5.2312607e-10
2.5886656e-08
5.1368857e-10
2.5665986e-08
5.0453436e-10
2.5448879e-08
4.9565637e-10
2.5235245e-08
4.8703821e-10
2.5024997e-08
4.7867491e-10
2.4818048e-08
4.7055014e-10
2.4614317e-08
4.626611e-10
2.4413722e-08
4.5499118e-10
2.4216187e-08
4.4753983e-10
2.4021636e-08
4.4028988e-10
2.3829996e-08
4.3324307e-10
2.3641198e-08
4.2638134e-10
2.3455172e-08
4.1970893e-10
2.3271853e-08
4.1320665e-10
2.3091176e-08
4.0688128e-10
2.2913081e-08
4.0071216e-10
2.2737505e-08
3.9470894e-10
2.2564394e-08
3.8884909e-10
2.2393686e-08
3.8314536e-10
2.2225332e-08
3.7757291e-10
2.2059274e-08
3.7214792e-10
2.1895466e-08
3.6684285e-10
2.1733853e-08
3.616777e-10
2.1574391e-08
3.5662173e-10
2.1417029e-08
3.5169916e-10
2.1261727e-08
3.4687545e-10
2.1108435e-08
3.4217956e-10
2.0957117e-08
3.3757259e-10
2.0807724e-08
3.3308888e-10
2.0660223e-08
3.2868443e-10
2.0514568e-08
3.2439957e-10
2.037073e-08
3.2018446e-10
2.0228661e-08
3.1608617e-10
2.0088337e-08
3.1204822e-10
1.9949712e-08
3.0812521e-10
1.9812765e-08
3.0425314e-10
1.9677448e-08
3.0049507e-10
1.9543746e-08
2.9677842e-10
1.9411611e-08
2.9317569e-10
1.9281031e-08
2.8960468e-10
1.9151957e-08
2.8614848e-10
1.9024382e-08
2.82714e-10
1.8898256e-08
2.7939615e-10
1.8773575e-08
2.7608972e-10
1.865029e-08
2.7290273e-10
1.85284e-08
2.6971631e-10
1.8407853e-08
2.666533e-10
1.8288655e-08
2.6357931e-10
1.8170752e-08
2.6063383e-10
1.8054152e-08
2.5766526e-10
1.79388e-08
2.5483132e-10
1.7824711e-08
2.519614e-10
1.7711825e-08
2.4923357e-10
1.7600163e-08
2.4645587e-10
1.7489662e-08
2.4382907e-10
1.7380348e-08
2.411375e-10
1.7272153e-08
2.3860698e-10
1.7165113e-08
2.3599569e-10
1.7059153e-08
2.3355709e-10
1.6954315e-08
2.3102039e-10
1.685052e-08
2.2866967e-10
1.6747818e-08
2.2620212e-10
1.6646123e-08
2.2393547e-10
1.6545493e-08
2.2153176e-10
1.6445837e-08
2.1934565e-10
1.6347221e-08
2.1700058e-10
1.6249545e-08
2.1489172e-10
1.6152887e-08
2.1260018e-10
1.6057136e-08
2.1056551e-10
1.5962383e-08
2.0832243e-10
1.5868506e-08
2.0635906e-10
1.5775609e-08
2.0415937e-10
1.5683559e-08
2.0226459e-10
1.5592472e-08
2.0010321e-10
1.5502202e-08
1.9827447e-10
1.5412883e-08
1.9614629e-10
1.5324353e-08
1.9438112e-10
1.5236763e-08
1.9228099e-10
1.5149933e-08
1.90577e-10
1.5064035e-08
1.8849972e-10
1.4978872e-08
1.8685461e-10
1.4894633e-08
1.8479482e-10
1.4811104e-08
1.832063e-10
1.4728496e-08
1.8115855e-10
1.4646572e-08
1.7962442e-10
1.4565569e-08
1.7758303e-10
1.4485225e-08
1.761011e-10
1.4405805e-08
1.7406023e-10
1.4327019e-08
1.7262834e-10
1.4249163e-08
1.7058194e-10
1.4171918e-08
1.6919787e-10
1.4095612e-08
1.6713977e-10
1.4019893e-08
1.6580127e-10
1.3945127e-08
1.6372512e-10
1.3870924e-08
1.6242995e-10
1.379769e-08
1.6032927e-10
1.3724997e-08
1.5907525e-10
1.3653294e-08
1.5694337e-10
1.3582108e-08
1.5572842e-10
1.3511937e-08
1.5355871e-10
1.344226e-08
1.523809e-10
1.3373628e-08
1.5016679e-10
1.3305465e-08
1.4902444e-10
1.3238382e-08
1.4675972e-10
1.3171742e-08
1.4565156e-10
1.3106223e-08
1.4333058e-10
1.3041118e-08
1.4225614e-10
1.2977178e-08
1.3987405e-10
1.2913623e-08
1.3883408e-10
1.2851284e-08
1.3638726e-10
1.2789293e-08
1.353844e-10
1.2728574e-08
1.3287119e-10
1.2668162e-08
1.3191064e-10
1.2609083e-08
1.2933239e-10
1.255026e-08
1.2842334e-10
1.2492835e-08
1.2578572e-10
1.2435603e-08
1.2494333e-10
1.2379839e-08
1.2225867e-10
1.2324186e-08
1.2150655e-10
1.2270069e-08
1.1879813e-10
1.2215959e-08
1.1817168e-10
1.2163448e-08
1.1548131e-10
1.2110809e-08
1.150335e-10
1.2059814e-08
1.1243412e-10
1.200851e-08
1.1224732e-10
1.1958856e-08
1.0986487e-10
1.190866e-08
1.1006352e-10
1.1860003e-08
1.081437e-10
1.1810622e-08
1.0873406e-10
1.0964767e-10
4.7968255e-08
2.4583498e-09
-4.7910819e-08
4.8194984e-08
3.0488248e-09
4.8511946e-08
3.6247055e-09
4.8793722e-08
3.976424e-09
4.9037417e-08
4.1209262e-09
4.9274532e-08
4.1488224e-09
4.9504331e-08
4.1218907e-09
4.9699241e-08
4.0302644e-09
4.9833671e-08
3.8583305e-09
4.9898088e-08
3.6209244e-09
4.9900435e-08
3.3530494e-09
4.9857309e-08
3.093824e-09
4.9782971e-08
2.8699985e-09
4.9685767e-08
2.689101e-09
4.9569381e-08
2.5457251e-09
4.9436696e-08
2.4306672e-09
4.9290359e-08
2.3364989e-09
4.9131995e-08
2.2576651e-09
4.8962193e-08
2.1897405e-09
4.8780983e-08
2.1292761e-09
4.8588261e-08
2.0738086e-09
4.8384003e-08
2.0217502e-09
4.8168341e-08
1.9721664e-09
4.794157e-08
1.9245589e-09
4.7704134e-08
1.8786902e-09
4.7456579e-08
1.8344606e-09
4.7199521e-08
1.7918268e-09
4.6933623e-08
1.7507619e-09
4.6659568e-08
1.7112234e-09
4.637804e-08
1.6731487e-09
4.6089716e-08
1.6364571e-09
4.5795263e-08
1.6010611e-09
4.5495326e-08
1.5668706e-09
4.5190536e-08
1.5338007e-09
4.4881496e-08
1.5017716e-09
4.4568791e-08
1.470713e-09
4.4252978e-08
1.4405616e-09
4.393459e-08
1.4112641e-09
4.3614133e-08
1.3827735e-09
4.3292086e-08
1.3550511e-09
4.2968902e-08
1.3280625e-09
4.2645004e-08
1.3017797e-09
4.232079e-08
1.2761773e-09
4.1996629e-08
1.2512341e-09
4.1672862e-08
1.2269301e-09
4.1349804e-08
1.2032481e-09
4.1027747e-08
1.1801714e-09
4.0706954e-08
1.1576848e-09
4.0387665e-08
1.1357734e-09
4.00701e-08
1.114423e-09
3.9754452e-08
1.0936198e-09
3.9440898e-08
1.0733503e-09
3.9129594e-08
1.0536014e-09
3.8820677e-08
1.0343595e-09
3.8514269e-08
1.0156125e-09
3.8210474e-08
9.9734695e-10
3.7909383e-08
9.7955119e-10
3.7611074e-08
9.6221183e-10
3.7315611e-08
9.4531812e-10
3.7023049e-08
9.2885641e-10
3.6733431e-08
9.1281701e-10
3.6446791e-08
8.9718595e-10
3.6163154e-08
8.8195457e-10
3.588254e-08
8.6710871e-10
3.5604958e-08
8.526408e-10
3.5330415e-08
8.3853638e-10
3.5058908e-08
8.2478907e-10
3.4790434e-08
8.1138388e-10
3.4524982e-08
7.9831611e-10
3.4262538e-08
7.8556995e-10
3.4003084e-08
7.7314234e-10
3.3746602e-08
7.6101688e-10
3.3493066e-08
7.4919226e-10
3.3242453e-08
7.3765097e-10
3.2994734e-08
7.2639381e-10
3.2749882e-08
7.1540211e-10
3.2507864e-08
7.0467896e-10
3.2268651e-08
6.942042e-10
3.2032208e-08
6.8398352e-10
3.1798503e-08
6.7399497e-10
3.1567498e-08
6.6424712e-10
3.1339164e-08
6.5471583e-10
3.111346e-08
6.4541289e-10
3.0890355e-08
6.363117e-10
3.0669809e-08
6.2742757e-10
3.045179e-08
6.1873094e-10
3.0236258e-08
6.1024118e-10
3.0023182e-08
6.0192524e-10
2.981252e-08
5.93807e-10
2.9604243e-08
5.8584934e-10
2.939831e-08
5.7808123e-10
2.9194692e-08
5.7046086e-10
2.8993347e-08
5.6302292e-10
2.8794248e-08
5.5572022e-10
2.8597354e-08
5.4859389e-10
2.8402639e-08
5.4159044e-10
2.821006e-08
5.3475829e-10
2.8019596e-08
5.2803677e-10
2.7831202e-08
5.2148261e-10
2.764486e-08
5.1502689e-10
2.7460524e-08
5.0873561e-10
2.7278178e-08
5.0253046e-10
2.7097776e-08
4.9648794e-10
2.6919305e-08
4.9051907e-10
2.6742718e-08
4.8471214e-10
2.6568005e-08
4.7896612e-10
2.6395118e-08
4.7338255e-10
2.6224049e-08
4.6784673e-10
2.605475e-08
4.6247507e-10
2.5887217e-08
4.5713748e-10
2.5721398e-08
4.5196706e-10
2.5557296e-08
4.4681641e-10
2.5394855e-08
4.4183725e-10
2.5234082e-08
4.3686286e-10
2.5074919e-08
4.3206576e-10
2.4917378e-08
4.2725737e-10
2.4761397e-08
4.2263376e-10
2.4606995e-08
4.1798168e-10
2.4454105e-08
4.1352345e-10
2.4302752e-08
4.0901851e-10
2.4152865e-08
4.0471816e-10
2.4004475e-08
4.0035141e-10
2.3857507e-08
3.9620205e-10
2.3711998e-08
3.9196492e-10
2.3567867e-08
3.8796006e-10
2.342516e-08
3.8384434e-10
2.3283789e-08
3.7997791e-10
2.3143809e-08
3.7597558e-10
2.3005124e-08
3.7224198e-10
2.2867799e-08
3.683452e-10
2.273173e-08
3.647392e-10
2.2596992e-08
3.6094035e-10
2.246347e-08
3.5745706e-10
2.2331253e-08
3.5374861e-10
2.2200215e-08
3.5038348e-10
2.2070458e-08
3.4675797e-10
2.1941843e-08
3.4350676e-10
2.1814486e-08
3.3995676e-10
2.1688236e-08
3.3681554e-10
2.1563225e-08
3.3333358e-10
2.1439285e-08
3.3029866e-10
2.1316568e-08
3.2687717e-10
2.1194887e-08
3.2394513e-10
2.1074414e-08
3.2057643e-10
2.0954944e-08
3.1774405e-10
2.083667e-08
3.144203e-10
2.0719367e-08
3.1168454e-10
2.060325e-08
3.0839771e-10
2.0488072e-08
3.0575566e-10
2.0374074e-08
3.0249749e-10
2.0260982e-08
2.9994639e-10
2.0149069e-08
2.9670829e-10
2.0038029e-08
2.9424548e-10
1.9928169e-08
2.9101851e-10
1.9819152e-08
2.8864152e-10
1.9711319e-08
2.8541625e-10
1.9604297e-08
2.8312268e-10
1.9498468e-08
2.7988924e-10
1.939342e-08
2.7767684e-10
1.9289577e-08
2.7442481e-10
1.9186484e-08
2.722914e-10
1.9084613e-08
2.6900988e-10
1.8983461e-08
2.6695341e-10
1.8883555e-08
2.6363092e-10
1.8784336e-08
2.6164953e-10
1.8686391e-08
2.5827404e-10
1.85891e-08
2.5636619e-10
1.8493119e-08
2.5292499e-10
1.8397757e-08
2.5108959e-10
1.8303747e-08
2.4756949e-10
1.8210321e-08
2.4580604e-10
1.8118295e-08
2.4219338e-10
1.8026817e-08
2.4050224e-10
1.7936794e-08
2.3678317e-10
1.7847279e-08
2.3516588e-10
1.7759283e-08
2.3132655e-10
1.7671753e-08
2.297865e-10
1.7585814e-08
2.2581333e-10
1.7500291e-08
2.2435662e-10
1.7416442e-08
2.2023673e-10
1.7332953e-08
2.188732e-10
1.7251229e-08
2.1459532e-10
1.7169799e-08
2.1333994e-10
1.7090236e-08
2.0889582e-10
1.7010889e-08
2.077707e-10
1.6933517e-08
2.0315707e-10
1.6856266e-08
2.021944e-10
1.6781108e-08
1.9741656e-10
1.6705953e-08
1.9666196e-10
1.6633011e-08
1.9174055e-10
1.6559925e-08
1.9125706e-10
1.6489166e-08
1.8624041e-10
1.6418085e-08
1.8611488e-10
1.6349418e-08
1.81101e-10
1.6280211e-08
1.814538e-10
1.6213439e-08
1.7663701e-10
1.6145893e-08
1.7761004e-10
1.6080587e-08
1.7344949e-10
1.6014421e-08
1.7489973e-10
1.7465664e-10
5.0052831e-08
2.3980857e-09
-4.9992566e-08
5.0227228e-08
2.874427e-09
5.0499546e-08
3.3523877e-09
5.0774848e-08
3.7011218e-09
5.1018994e-08
3.8767802e-09
5.1243938e-08
3.9238784e-09
5.146309e-08
3.9027386e-09
5.1664441e-08
3.828914e-09
5.1827374e-08
3.6953969e-09
5.1939955e-08
3.5083438e-09
5.2003885e-08
3.2891195e-09
5.2030743e-08
3.0669658e-09
5.2033569e-08
2.8671725e-09
5.2020864e-08
2.7018057e-09
5.1996988e-08
2.5696014e-09
5.1964158e-08
2.4634976e-09
5.1924094e-08
2.3765627e-09
5.187802e-08
2.3037388e-09
5.182642e-08
2.2413411e-09
5.1769159e-08
2.1865368e-09
5.1705789e-08
2.1371786e-09
5.1635788e-08
2.0917507e-09
5.1558695e-08
2.04926e-09
5.1474155e-08
2.0090987e-09
5.1381934e-08
1.9709112e-09
5.1281898e-08
1.9344964e-09
5.1173996e-08
1.899729e-09
5.1058242e-08
1.8665162e-09
5.0934697e-08
1.8347682e-09
5.0803457e-08
1.8043885e-09
5.0664645e-08
1.7752696e-09
5.0518404e-08
1.7473015e-09
5.0364901e-08
1.7203741e-09
5.0204317e-08
1.6943846e-09
5.0036852e-08
1.6692365e-09
4.986272e-08
1.6448448e-09
4.9682149e-08
1.6211326e-09
4.9495379e-08
1.5980344e-09
4.930266e-08
1.5754924e-09
4.9104252e-08
1.5534585e-09
4.8900424e-08
1.5318911e-09
4.8691448e-08
1.5107559e-09
4.8477601e-08
1.4900235e-09
4.8259166e-08
1.4696697e-09
4.8036422e-08
1.4496739e-09
4.7809651e-08
1.4300187e-09
4.7579133e-08
1.4106896e-09
4.7345144e-08