/*--------------------------------*- C++ -*----------------------------------*\
| =========                 |                                                 |
| \\      /  F ield         | OpenFOAM: The Open Source CFD Toolbox           |
|  \\    /   O peration     | Version:  5.x                                   |
|   \\  /    A nd           | Web:      www.OpenFOAM.org                      |
|    \\/     M anipulation  |                                                 |
\*---------------------------------------------------------------------------*/
FoamFile
{
    version     2.0;
    format      ascii;
    class       volVectorField;
    location    "0.6";
    object      U;
}
// * * * * * * * * * * * * * * * * * * * * * * * * * * * * * * * * * * * * * //

dimensions      [0 1 -1 0 0 0 0];

internalField   nonuniform List<vector> 
21600
(
(0.44560315 0.0096599077 0)
(0.40258965 0.013137793 0)
(0.36166389 0.013390343 0)
(0.32009772 0.012309295 0)
(0.27849596 0.011029894 0)
(0.23874774 0.0096290386 0)
(0.20299299 0.0079007347 0)
(0.17302387 0.0058433778 0)
(0.14932554 0.0036682605 0)
(0.13152253 0.0018305256 0)
(0.11855566 0.00060900199 0)
(0.10924311 -4.4811768e-05 0)
(0.10256797 -0.00031940692 0)
(0.097688058 -0.00036975474 0)
(0.093971643 -0.00030768123 0)
(0.090951415 -0.00019932719 0)
(0.088317888 -8.6977025e-05 0)
(0.08589253 5.9013257e-06 0)
(0.083588452 7.1885275e-05 0)
(0.081374692 0.00011292142 0)
(0.079248284 0.00013456486 0)
(0.077216095 0.0001428126 0)
(0.07528536 0.00014272575 0)
(0.073459908 0.00013801997 0)
(0.071739465 0.00013114465 0)
(0.070120322 0.00012355204 0)
(0.068596498 0.00011601896 0)
(0.067160762 0.00010892324 0)
(0.065805493 0.00010240422 0)
(0.064523274 9.6475868e-05 0)
(0.063307235 9.1097249e-05 0)
(0.062151203 8.6209211e-05 0)
(0.061049731 8.175034e-05 0)
(0.059998057 7.7664332e-05 0)
(0.058992038 7.3901987e-05 0)
(0.058028063 7.0421892e-05 0)
(0.057102979 6.7189354e-05 0)
(0.056214014 6.4175866e-05 0)
(0.055358713 6.1357746e-05 0)
(0.054534887 5.8715593e-05 0)
(0.053740566 5.6233128e-05 0)
(0.052973967 5.389682e-05 0)
(0.052233462 5.1695002e-05 0)
(0.05151756 4.9617684e-05 0)
(0.050824888 4.7655933e-05 0)
(0.050154176 4.5801825e-05 0)
(0.049504246 4.4048061e-05 0)
(0.048874009 4.238796e-05 0)
(0.048262446 4.0815287e-05 0)
(0.047668615 3.9324305e-05 0)
(0.047091631 3.7909697e-05 0)
(0.046530677 3.6566425e-05 0)
(0.045984983 3.5289875e-05 0)
(0.045453836 3.4075645e-05 0)
(0.044936563 3.2919818e-05 0)
(0.044432543 3.1818569e-05 0)
(0.043941182 3.0768608e-05 0)
(0.043461938 2.9766601e-05 0)
(0.042994286 2.8809812e-05 0)
(0.042537749 2.7895315e-05 0)
(0.042091863 2.7020865e-05 0)
(0.041656204 2.6183864e-05 0)
(0.041230358 2.5382498e-05 0)
(0.040813953 2.4614425e-05 0)
(0.040406615 2.3878204e-05 0)
(0.040008013 2.3171669e-05 0)
(0.03961781 2.2493709e-05 0)
(0.039235713 2.1842288e-05 0)
(0.038861415 2.1216605e-05 0)
(0.038494655 2.0614718e-05 0)
(0.038135156 2.0036113e-05 0)
(0.037782681 1.9478889e-05 0)
(0.037436978 1.8942785e-05 0)
(0.037097838 1.8425907e-05 0)
(0.036765025 1.7928258e-05 0)
(0.036438355 1.7447939e-05 0)
(0.036117611 1.6985205e-05 0)
(0.035802625 1.65381e-05 0)
(0.035493201 1.6107116e-05 0)
(0.035189185 1.5690227e-05 0)
(0.034890395 1.5288188e-05 0)
(0.034596695 1.4898885e-05 0)
(0.034307915 1.4523322e-05 0)
(0.034023932 1.4159241e-05 0)
(0.033744588 1.3807905e-05 0)
(0.033469772 1.346691e-05 0)
(0.033199338 1.3137813e-05 0)
(0.032933182 1.2818028e-05 0)
(0.032671173 1.2509395e-05 0)
(0.032413211 1.2209098e-05 0)
(0.03215918 1.1919297e-05 0)
(0.031908983 1.163694e-05 0)
(0.031662515 1.1364539e-05 0)
(0.031419684 1.1098746e-05 0)
(0.031180398 1.0842438e-05 0)
(0.030944563 1.0591934e-05 0)
(0.030712105 1.0350523e-05 0)
(0.030482924 1.0114159e-05 0)
(0.030256964 9.8865733e-06 0)
(0.030034118 9.6633091e-06 0)
(0.02981435 9.4485775e-06 0)
(0.029597542 9.237464e-06 0)
(0.029383683 9.0346941e-06 0)
(0.029172636 8.834856e-06 0)
(0.028964419 8.6432321e-06 0)
(0.028758874 8.4538731e-06 0)
(0.028556052 8.2726626e-06 0)
(0.028355767 8.09306e-06 0)
(0.02815811 7.9215773e-06 0)
(0.027962858 7.7510543e-06 0)
(0.027770149 7.5886872e-06 0)
(0.027579717 7.4266194e-06 0)
(0.027391755 7.2727919e-06 0)
(0.027205943 7.1186219e-06 0)
(0.027022539 6.9728086e-06 0)
(0.026841159 6.8260048e-06 0)
(0.026662135 6.6877356e-06 0)
(0.026485009 6.5477946e-06 0)
(0.026310201 6.4166287e-06 0)
(0.026137162 6.2831195e-06 0)
(0.025966415 6.1586253e-06 0)
(0.025797304 6.0311294e-06 0)
(0.025630474 5.9129378e-06 0)
(0.025465141 5.791056e-06 0)
(0.025302092 5.678817e-06 0)
(0.025140395 5.5621965e-06 0)
(0.024981002 5.4555764e-06 0)
(0.024822805 5.3438915e-06 0)
(0.02466695 5.2425743e-06 0)
(0.024512126 5.1355097e-06 0)
(0.0243597 5.0392092e-06 0)
(0.024208124 4.93649e-06 0)
(0.024059027 4.8449239e-06 0)
(0.023910583 4.7462875e-06 0)
(0.023764721 4.6591942e-06 0)
(0.023619297 4.564403e-06 0)
(0.023476585 4.4815257e-06 0)
(0.023334072 4.3903616e-06 0)
(0.023194434 4.3114634e-06 0)
(0.023054728 4.2237307e-06 0)
(0.022918095 4.1485693e-06 0)
(0.022781095 4.0640888e-06 0)
(0.022647405 3.9924394e-06 0)
(0.022513014 3.9110522e-06 0)
(0.022382214 3.8426807e-06 0)
(0.022250336 3.7642481e-06 0)
(0.022122381 3.6989255e-06 0)
(0.021992923 3.6233418e-06 0)
(0.021867778 3.5608232e-06 0)
(0.021740648 3.4880024e-06 0)
(0.021618286 3.428045e-06 0)
(0.021493392 3.35793e-06 0)
(0.021373797 3.3002716e-06 0)
(0.021251049 3.2328307e-06 0)
(0.021134213 3.1772072e-06 0)
(0.02101352 3.1124314e-06 0)
(0.020899449 3.058561e-06 0)
(0.020780718 2.99648e-06 0)
(0.020669429 2.9440609e-06 0)
(0.020552564 2.8847402e-06 0)
(0.020444087 2.8334323e-06 0)
(0.020328991 2.7769928e-06 0)
(0.02022337 2.7264284e-06 0)
(0.02010994 2.6730339e-06 0)
(0.020007236 2.6228014e-06 0)
(0.019895362 2.5726826e-06 0)
(0.019795652 2.5223308e-06 0)
(0.019685218 2.4757711e-06 0)
(0.019588598 2.4247956e-06 0)
(0.019479476 2.3821742e-06 0)
(0.019386064 2.3299978e-06 0)
(0.019278114 2.291785e-06 0)
(0.01918805 2.2377439e-06 0)
(0.019081115 2.2045506e-06 0)
(0.018994565 2.1478714e-06 0)
(0.018888466 2.1204482e-06 0)
(0.018805624 2.0602443e-06 0)
(0.018700154 2.0395316e-06 0)
(0.018621247 1.9747636e-06 0)
(0.018516165 1.9619246e-06 0)
(0.018441455 1.8913753e-06 0)
(0.018336473 1.8878784e-06 0)
(0.018266263 1.8100757e-06 0)
(0.018161033 1.8177788e-06 0)
(0.018095671 1.7309675e-06 0)
(0.017989764 1.7522104e-06 0)
(0.017929655 1.6542908e-06 0)
(0.017822535 1.6920482e-06 0)
(0.017768143 1.5805025e-06 0)
(0.017659127 1.6386235e-06 0)
(0.017610989 1.5103467e-06 0)
(0.017499189 1.5939936e-06 0)
(0.017457924 1.445057e-06 0)
(0.017342156 1.5614386e-06 0)
(0.017308493 1.3865129e-06 0)
(0.017187104 1.5466211e-06 0)
(0.017161967 1.3369524e-06 0)
(0.017032407 1.559494e-06 0)
(0.017017566 1.2919953e-06 0)
(0.016874067 1.7085263e-06 0)
(0.4765161 0.016892642 0)
(0.47440396 0.023596117 0)
(0.47061007 0.025575106 0)
(0.46344984 0.025283992 0)
(0.45232251 0.024407945 0)
(0.43782914 0.023242937 0)
(0.42105702 0.021517647 0)
(0.4032399 0.019078152 0)
(0.38515475 0.016047455 0)
(0.36745243 0.012847135 0)
(0.35052596 0.0099285524 0)
(0.33459811 0.0075384081 0)
(0.31986799 0.0057127519 0)
(0.3064029 0.0043744125 0)
(0.29422696 0.0034409637 0)
(0.28325439 0.0028198033 0)
(0.27334523 0.0024156492 0)
(0.26435195 0.0021467518 0)
(0.25614109 0.0019549957 0)
(0.24860032 0.0018046603 0)
(0.24163869 0.0016761126 0)
(0.23518341 0.0015597353 0)
(0.22917578 0.0014515812 0)
(0.22356741 0.0013505608 0)
(0.21831739 0.0012567468 0)
(0.21339028 0.0011704364 0)
(0.20875496 0.0010917185 0)
(0.20438375 0.0010203929 0)
(0.20025196 0.00095599396 0)
(0.19633757 0.00089788952 0)
(0.19262107 0.00084538423 0)
(0.18908515 0.00079779508 0)
(0.18571454 0.00075449175 0)
(0.18249572 0.00071491711 0)
(0.17941678 0.00067859033 0)
(0.17646713 0.00064510498 0)
(0.17363737 0.00061411978 0)
(0.17091911 0.00058535073 0)
(0.16830483 0.00055856007 0)
(0.16578773 0.00053354898 0)
(0.16336168 0.00051014858 0)
(0.16102108 0.000488215 0)
(0.15876085 0.00046762316 0)
(0.15657629 0.00044826399 0)
(0.15446311 0.00043004039 0)
(0.15241734 0.00041286589 0)
(0.15043533 0.00039666213 0)
(0.14851367 0.00038135827 0)
(0.14664923 0.0003668893 0)
(0.14483908 0.00035319597 0)
(0.14308051 0.00034022399 0)
(0.141371 0.00032792345 0)
(0.13970818 0.00031624869 0)
(0.13808985 0.00030515742 0)
(0.13651397 0.00029461125 0)
(0.13497861 0.0002845743 0)
(0.13348196 0.00027501428 0)
(0.13202235 0.00026590058 0)
(0.13059818 0.00025720608 0)
(0.12920798 0.00024890447 0)
(0.12785033 0.00024097298 0)
(0.12652393 0.00023338883 0)
(0.12522751 0.00022613297 0)
(0.12395992 0.00021918545 0)
(0.12272002 0.00021253036 0)
(0.1215068 0.00020614995 0)
(0.12031923 0.00020003096 0)
(0.1191564 0.00019415741 0)
(0.11801738 0.00018851839 0)
(0.11690136 0.00018309938 0)
(0.1158075 0.00017789158 0)
(0.11473507 0.00017288154 0)
(0.1136833 0.00016806232 0)
(0.11265155 0.0001634212 0)
(0.11163911 0.00015895298 0)
(0.11064539 0.00015464554 0)
(0.10966975 0.00015049531 0)
(0.10871167 0.00014649052 0)
(0.10777055 0.00014262909 0)
(0.10684591 0.00013889938 0)
(0.10593721 0.00013530081 0)
(0.10504401 0.00013182177 0)
(0.10416582 0.0001284631 0)
(0.10330223 0.00012521296 0)
(0.1024528 0.00012207361 0)
(0.10161715 0.00011903286 0)
(0.10079486 0.00011609447 0)
(0.099985595 0.00011324574 0)
(0.099188975 0.00011049194 0)
(0.098404668 0.00010781956 0)
(0.097632346 0.00010523548 0)
(0.096871683 0.00010272532 0)
(0.096122399 0.00010029769 0)
(0.095384164 9.7937122e-05 0)
(0.094656748 9.5653966e-05 0)
(0.093939814 9.3431444e-05 0)
(0.093233185 9.1281851e-05 0)
(0.092536504 8.9186935e-05 0)
(0.091849657 8.7161083e-05 0)
(0.091172256 8.5184324e-05 0)
(0.090504258 8.3273294e-05 0)
(0.089845231 8.1406073e-05 0)
(0.089195213 7.9601722e-05 0)
(0.088553714 7.783616e-05 0)
(0.087920868 7.6131071e-05 0)
(0.087296107 7.445998e-05 0)
(0.086679677 7.2847417e-05 0)
(0.086070916 7.1264241e-05 0)
(0.085470198 6.9737999e-05 0)
(0.084876744 6.8236681e-05 0)
(0.08429108 6.6791122e-05 0)
(0.083712283 6.5366092e-05 0)
(0.083141059 6.399601e-05 0)
(0.082576309 6.2642189e-05 0)
(0.082018948 6.1342812e-05 0)
(0.081467671 6.0055476e-05 0)
(0.080923636 5.8822455e-05 0)
(0.08038529 5.7597194e-05 0)
(0.079854078 5.6426503e-05 0)
(0.079328152 5.5259331e-05 0)
(0.078809291 5.4147192e-05 0)
(0.078295302 5.3034373e-05 0)
(0.077788353 5.1977366e-05 0)
(0.077285844 5.0915395e-05 0)
(0.076790396 4.9910348e-05 0)
(0.076298933 4.889601e-05 0)
(0.075814603 4.7939957e-05 0)
(0.075333774 4.6970264e-05 0)
(0.074860204 4.6060439e-05 0)
(0.074389618 4.5132568e-05 0)
(0.073926478 4.426642e-05 0)
(0.073465759 4.3377781e-05 0)
(0.073012744 4.2552899e-05 0)
(0.072561535 4.1701055e-05 0)
(0.072118362 4.0915188e-05 0)
(0.071676321 4.0097874e-05 0)
(0.071242734 3.9348896e-05 0)
(0.070809531 3.8563991e-05 0)
(0.070385296 3.7849922e-05 0)
(0.069960614 3.7095447e-05 0)
(0.069545521 3.6414386e-05 0)
(0.069129054 3.5688479e-05 0)
(0.06872292 3.5038644e-05 0)
(0.068314369 3.4339572e-05 0)
(0.067917034 3.3719237e-05 0)
(0.067516109 3.3045384e-05 0)
(0.067127439 3.2452893e-05 0)
(0.066733858 3.1802789e-05 0)
(0.066353747 3.1236505e-05 0)
(0.065967229 3.0608794e-05 0)
(0.065595601 3.0067132e-05 0)
(0.065215869 2.9460581e-05 0)
(0.064852675 2.8941958e-05 0)
(0.064479455 2.8355453e-05 0)
(0.06412468 2.7858317e-05 0)
(0.063757694 2.7290845e-05 0)
(0.063411358 2.6813642e-05 0)
(0.063050328 2.6264331e-05 0)
(0.062712489 2.5805491e-05 0)
(0.062357126 2.5273603e-05 0)
(0.062027883 2.4831486e-05 0)
(0.061677894 2.4316478e-05 0)
(0.06135739 2.3889394e-05 0)
(0.061012465 2.3390888e-05 0)
(0.060700894 2.2977062e-05 0)
(0.060360708 2.24949e-05 0)
(0.060058316 2.2092483e-05 0)
(0.059722521 2.1626706e-05 0)
(0.059429616 2.1233741e-05 0)
(0.059097833 2.0784699e-05 0)
(0.058814787 2.0399079e-05 0)
(0.0584866 1.996745e-05 0)
(0.05821386 1.9586873e-05 0)
(0.057888806 1.9173803e-05 0)
(0.057626899 1.8795735e-05 0)
(0.057304451 1.8402874e-05 0)
(0.057053997 1.802455e-05 0)
(0.05673355 1.7654193e-05 0)
(0.05649527 1.7272566e-05 0)
(0.056176114 1.6927781e-05 0)
(0.055950845 1.6539485e-05 0)
(0.055632137 1.6224388e-05 0)
(0.055420849 1.5825604e-05 0)
(0.055101572 1.5545662e-05 0)
(0.054905383 1.5132153e-05 0)
(0.054584287 1.4894516e-05 0)
(0.054404494 1.4461647e-05 0)
(0.054080016 1.4275696e-05 0)
(0.05391812 1.3818487e-05 0)
(0.053588276 1.369673e-05 0)
(0.053446013 1.3209789e-05 0)
(0.053108239 1.3169456e-05 0)
(0.052987625 1.2647059e-05 0)
(0.05263853 1.2712661e-05 0)
(0.052541932 1.2148984e-05 0)
(0.052176837 1.2356885e-05 0)
(0.052107219 1.1745933e-05 0)
(0.051719077 1.2146856e-05 0)
(0.051681392 1.1477009e-05 0)
(0.051257061 1.2551474e-05 0)
(0.47977634 0.015745987 0)
(0.48109367 0.021484849 0)
(0.48389481 0.024576012 0)
(0.48656807 0.025587195 0)
(0.48783125 0.025703417 0)
(0.48724974 0.025403083 0)
(0.48486748 0.024569979 0)
(0.48089691 0.023002418 0)
(0.47552382 0.020778186 0)
(0.46895006 0.018210294 0)
(0.4614319 0.015687604 0)
(0.45322231 0.013477909 0)
(0.4446227 0.011674194 0)
(0.4358685 0.010235006 0)
(0.42716744 0.0090973604 0)
(0.41861983 0.0081936313 0)
(0.410266 0.0074609409 0)
(0.40211959 0.0068477555 0)
(0.39418429 0.0063171742 0)
(0.38646099 0.0058455682 0)
(0.37895092 0.0054188519 0)
(0.37165643 0.0050289225 0)
(0.36458068 0.004671164 0)
(0.35772662 0.004342852 0)
(0.35109616 0.0040421579 0)
(0.34468952 0.0037675474 0)
(0.33850518 0.0035174852 0)
(0.3325398 0.0032902535 0)
(0.32678843 0.0030839583 0)
(0.32124488 0.0028966269 0)
(0.31590203 0.0027263083 0)
(0.31075209 0.0025711547 0)
(0.30578691 0.0024294647 0)
(0.30099818 0.0022997083 0)
(0.29637759 0.0021805273 0)
(0.29191695 0.0020707327 0)
(0.28760832 0.0019692888 0)
(0.28344404 0.0018753006 0)
(0.27941681 0.0017879937 0)
(0.27551969 0.0017067005 0)
(0.27174611 0.0016308411 0)
(0.26808986 0.0015599126 0)
(0.26454513 0.0014934738 0)
(0.26110643 0.0014311376 0)
(0.25776862 0.0013725604 0)
(0.25452687 0.0013174375 0)
(0.25137667 0.0012654949 0)
(0.24831374 0.0012164875 0)
(0.24533411 0.0011701931 0)
(0.24243403 0.001126411 0)
(0.23960998 0.0010849585 0)
(0.23685863 0.0010456698 0)
(0.23417688 0.0010083936 0)
(0.23156177 0.00097299144 0)
(0.22901054 0.00093933751 0)
(0.22652056 0.00090731568 0)
(0.22408937 0.00087682071 0)
(0.22171463 0.00084775441 0)
(0.21939413 0.00082002842 0)
(0.21712578 0.00079355904 0)
(0.21490759 0.00076827188 0)
(0.21273769 0.000744095 0)
(0.21061428 0.0007209657 0)
(0.2085357 0.00069882154 0)
(0.20650031 0.00067760962 0)
(0.2045066 0.0006572751 0)
(0.2025531 0.00063777329 0)
(0.20063845 0.00061905548 0)
(0.19876131 0.00060108419 0)
(0.19692044 0.00058381572 0)
(0.19511463 0.00056721888 0)
(0.19334275 0.00055125395 0)
(0.19160369 0.00053589525 0)
(0.18989644 0.00052110604 0)
(0.18821997 0.00050686563 0)
(0.18657336 0.00049313971 0)
(0.18495568 0.00047991222 0)
(0.18336606 0.00046715056 0)
(0.18180367 0.00045484294 0)
(0.1802677 0.00044295785 0)
(0.1787574 0.00043148754 0)
(0.17727202 0.00042040114 0)
(0.17581088 0.00040969482 0)
(0.17437326 0.00039933778 0)
(0.17295856 0.00038932998 0)
(0.1715661 0.00037964029 0)
(0.17019534 0.00037027254 0)
(0.16884563 0.0003611948 0)
(0.16751651 0.00035241477 0)
(0.16620733 0.00034389914 0)
(0.16491771 0.00033565963 0)
(0.163647 0.0003276612 0)
(0.1623949 0.00031991985 0)
(0.16116073 0.00031239826 0)
(0.15994431 0.00030511687 0)
(0.15874492 0.00029803548 0)
(0.15756248 0.00029117932 0)
(0.1563962 0.00028450493 0)
(0.15524614 0.00027804267 0)
(0.15411143 0.00027174519 0)
(0.15299227 0.00026564835 0)
(0.15188769 0.00025970034 0)
(0.15079805 0.00025394297 0)
(0.14972225 0.0002483194 0)
(0.14866084 0.00024287787 0)
(0.14761255 0.00023755587 0)
(0.14657816 0.00023240864 0)
(0.14555621 0.00022736732 0)
(0.14454771 0.00022249463 0)
(0.14355098 0.00021771474 0)
(0.14256732 0.00021309856 0)
(0.14159476 0.00020856243 0)
(0.14063495 0.00020418617 0)
(0.13968558 0.00019987759 0)
(0.13874869 0.00019572602 0)
(0.13782158 0.00019162998 0)
(0.13690676 0.00018768917 0)
(0.13600103 0.00018379172 0)
(0.13510745 0.0001800488 0)
(0.13422227 0.00017633717 0)
(0.13334917 0.00017278017 0)
(0.13248377 0.00016924248 0)
(0.13163044 0.00016586045 0)
(0.13078406 0.00016248558 0)
(0.12994985 0.00015926839 0)
(0.12912178 0.00015604605 0)
(0.12830606 0.00015298428 0)
(0.12749563 0.00014990491 0)
(0.12669782 0.00014698979 0)
(0.12590439 0.00014404438 0)
(0.12512396 0.00014126783 0)
(0.12434691 0.00013844802 0)
(0.12358337 0.00013580243 0)
(0.12282212 0.00013310038 0)
(0.122075 0.00013057868 0)
(0.12132898 0.00012798702 0)
(0.12059787 0.0001255826 0)
(0.11986654 0.00012309443 0)
(0.11915106 0.0001208011 0)
(0.1184339 0.00011840989 0)
(0.11773372 0.00011622182 0)
(0.11703021 0.00011392141 0)
(0.11634504 0.00011183315 0)
(0.11565469 0.00010961771 0)
(0.11498427 0.00010762408 0)
(0.1143066 0.00010548811 0)
(0.11365071 0.00010358418 0)
(0.11298525 0.00010152254 0)
(0.11234373 9.9703558e-05 0)
(0.11169001 9.7711377e-05 0)
(0.11106275 9.5972837e-05 0)
(0.1104203 9.4045521e-05 0)
(0.10980724 9.2383039e-05 0)
(0.10917559 9.0516271e-05 0)
(0.10857671 8.8925632e-05 0)
(0.10795542 8.7115319e-05 0)
(0.10737077 8.5592427e-05 0)
(0.10675935 8.383474e-05 0)
(0.10618904 8.2375597e-05 0)
(0.10558702 8.0666968e-05 0)
(0.10503124 7.9267583e-05 0)
(0.10443811 7.7604797e-05 0)
(0.10389712 7.62612e-05 0)
(0.10331236 7.4641349e-05 0)
(0.1027865 7.3349576e-05 0)
(0.10220957 7.177012e-05 0)
(0.10169929 7.0526222e-05 0)
(0.10112959 6.8984975e-05 0)
(0.10063543 6.7784994e-05 0)
(0.10007234 6.6280284e-05 0)
(0.09959495 6.5120202e-05 0)
(0.099037754 6.3650936e-05 0)
(0.098577931 6.2526656e-05 0)
(0.098025856 6.1092523e-05 0)
(0.097584527 5.9999844e-05 0)
(0.097036689 5.8601431e-05 0)
(0.096614946 5.7536147e-05 0)
(0.096070331 5.6175134e-05 0)
(0.095669446 5.5133074e-05 0)
(0.095126869 5.3812488e-05 0)
(0.094748322 5.2789607e-05 0)
(0.094206379 5.1514276e-05 0)
(0.093851881 5.0506674e-05 0)
(0.093308882 4.9283787e-05 0)
(0.092980418 4.8288073e-05 0)
(0.092434292 4.7127787e-05 0)
(0.092134158 4.6141606e-05 0)
(0.091582333 4.5058087e-05 0)
(0.091313187 4.4080808e-05 0)
(0.090752421 4.3094002e-05 0)
(0.090517337 4.2127595e-05 0)
(0.089943475 4.1266342e-05 0)
(0.089746009 4.0317231e-05 0)
(0.08915363 3.9624028e-05 0)
(0.088997913 3.8707673e-05 0)
(0.08837969 3.8244829e-05 0)
(0.088270712 3.7397053e-05 0)
(0.087616053 3.7241664e-05 0)
(0.087560881 3.6519351e-05 0)
(0.086853548 3.7702109e-05 0)
(0.48223864 0.01472904 0)
(0.48326878 0.019052525 0)
(0.4858657 0.022167241 0)
(0.48936605 0.02369257 0)
(0.4927829 0.02419416 0)
(0.49554849 0.024157839 0)
(0.49750611 0.023671454 0)
(0.49862872 0.02263847 0)
(0.49888045 0.021074455 0)
(0.49820603 0.019168718 0)
(0.49661815 0.017196813 0)
(0.49420925 0.015395693 0)
(0.49115681 0.013882124 0)
(0.48765199 0.01266426 0)
(0.48386002 0.011686004 0)
(0.47988287 0.010885866 0)
(0.4757713 0.010214597 0)
(0.47154744 0.009635187 0)
(0.46722098 0.0091205347 0)
(0.46279798 0.0086516885 0)
(0.45828529 0.0082162132 0)
(0.45369225 0.0078065314 0)
(0.44903082 0.0074184384 0)
(0.44431475 0.0070498801 0)
(0.43955864 0.0067000162 0)
(0.43477699 0.0063685399 0)
(0.42998371 0.0060552695 0)
(0.4251916 0.0057598731 0)
(0.42041229 0.0054817903 0)
(0.41565613 0.0052202727 0)
(0.41093225 0.0049744481 0)
(0.40624859 0.0047433926 0)
(0.40161201 0.004526173 0)
(0.39702832 0.0043218832 0)
(0.39250243 0.0041296552 0)
(0.38803837 0.003948674 0)
(0.38363946 0.0037781757 0)
(0.37930828 0.0036174526 0)
(0.37504686 0.0034658465 0)
(0.37085663 0.0033227504 0)
(0.36673859 0.0031875994 0)
(0.36269329 0.0030598723 0)
(0.35872092 0.0029390827 0)
(0.35482135 0.0028247803 0)
(0.35099419 0.002716544 0)
(0.34723878 0.0026139836 0)
(0.34355434 0.0025167335 0)
(0.33993984 0.0024244549 0)
(0.33639419 0.0023368309 0)
(0.33291615 0.0022535677 0)
(0.32950445 0.0021743908 0)
(0.32615768 0.0020990453 0)
(0.32287448 0.0020272939 0)
(0.31965338 0.001958916 0)
(0.31649295 0.0018937073 0)
(0.31339171 0.0018314771 0)
(0.31034823 0.0017720497 0)
(0.30736103 0.0017152599 0)
(0.30442873 0.0016609569 0)
(0.30154986 0.0016089967 0)
(0.29872311 0.00155925 0)
(0.29594704 0.001511591 0)
(0.2932204 0.0014659087 0)
(0.29054184 0.0014220925 0)
(0.28791013 0.0013800472 0)
(0.28532401 0.0013396748 0)
(0.28278232 0.0013008937 0)
(0.28028384 0.0012636162 0)
(0.27782751 0.0012277731 0)
(0.27541216 0.001193285 0)
(0.2730368 0.0011600935 0)
(0.27070031 0.0011281262 0)
(0.2684018 0.0010973343 0)
(0.26614016 0.0010676506 0)
(0.2639146 0.0010390352 0)
(0.26172407 0.0010114251 0)
(0.25956782 0.0009847886 0)
(0.25744485 0.00095906591 0)
(0.25535449 0.00093423293 0)
(0.25329577 0.00091023194 0)
(0.25126811 0.00088704608 0)
(0.24927052 0.0008646188 0)
(0.24730254 0.00084294034 0)
(0.24536319 0.00082195442 0)
(0.24345207 0.00080165819 0)
(0.2415682 0.0007819948 0)
(0.23971131 0.00076296843 0)
(0.23788037 0.00074452084 0)
(0.23607522 0.0007266633 0)
(0.23429479 0.00070933524 0)
(0.23253906 0.00069255525 0)
(0.23080687 0.00067625965 0)
(0.22909837 0.00066047482 0)
(0.22741231 0.00064513305 0)
(0.22574898 0.00063026885 0)
(0.22410704 0.00061580943 0)
(0.22248696 0.00060179805 0)
(0.22088725 0.00058815599 0)
(0.21930861 0.00057493591 0)
(0.21774936 0.00056205212 0)
(0.21621045 0.00054956735 0)
(0.21468998 0.00053738782 0)
(0.2131892 0.00052558721 0)
(0.21170594 0.00051406255 0)
(0.21024177 0.00050289939 0)
(0.20879423 0.0004919844 0)
(0.20736525 0.000481416 0)
(0.20595202 0.00047106924 0)
(0.20455689 0.00046105641 0)
(0.20317663 0.00045123964 0)
(0.2018141 0.00044174649 0)
(0.20046555 0.00043242458 0)
(0.19913442 0.00042341804 0)
(0.19781639 0.00041455863 0)
(0.19651555 0.00040600832 0)
(0.19522689 0.00039758139 0)
(0.19395528 0.00038945944 0)
(0.19269492 0.00038143714 0)
(0.19145156 0.00037371771 0)
(0.19021846 0.00036607443 0)
(0.18900241 0.00035873357 0)
(0.1877956 0.00035144539 0)
(0.18660599 0.00034446113 0)
(0.18542454 0.0003375057 0)
(0.18426055 0.00033085765 0)
(0.18310356 0.00032421423 0)
(0.18196443 0.00031788343 0)
(0.18083105 0.00031153266 0)
(0.17971605 0.00030550152 0)
(0.17860546 0.00029942518 0)
(0.17751394 0.00029367739 0)
(0.17642535 0.00028785848 0)
(0.17535669 0.00028237878 0)
(0.17428935 0.0002768013 0)
(0.17324299 0.00027157551 0)
(0.17219615 0.00026622441 0)
(0.17117158 0.00026123924 0)
(0.17014455 0.00025610031 0)
(0.1691413 0.00025134341 0)
(0.16813338 0.00024640319 0)
(0.16715104 0.00024186292 0)
(0.16616157 0.00023710864 0)
(0.16519978 0.00023277414 0)
(0.16422809 0.00022819366 0)
(0.16328656 0.00022405467 0)
(0.16233201 0.00021963643 0)
(0.16141048 0.00021568327 0)
(0.16047244 0.00021141631 0)
(0.15957074 0.00020763977 0)
(0.15864857 0.00020351363 0)
(0.15776658 0.00019990499 0)
(0.15685966 0.00019590965 0)
(0.15599732 0.00019246057 0)
(0.15510501 0.00018858645 0)
(0.15426236 0.00018528902 0)
(0.15338403 0.00018152688 0)
(0.15256118 0.00017837353 0)
(0.15169616 0.00017471452 0)
(0.15089332 0.00017169798 0)
(0.15004095 0.00016813361 0)
(0.14925841 0.00016524685 0)
(0.14841799 0.00016176907 0)
(0.14765616 0.00015900527 0)
(0.14682697 0.00015560646 0)
(0.14608639 0.00015295902 0)
(0.14526765 0.00014963198 0)
(0.14454897 0.00014709459 0)
(0.14373985 0.00014383256 0)
(0.1430439 0.00014139918 0)
(0.1422435 0.00013819601 0)
(0.14157126 0.00013586085 0)
(0.14077858 0.00013271108 0)
(0.14013121 0.00013046868 0)
(0.13934517 0.00012736783 0)
(0.13872405 0.00012521308 0)
(0.13794337 0.00012215775 0)
(0.13735012 0.0001200862 0)
(0.13657338 0.00011707436 0)
(0.13600987 0.00011508245 0)
(0.1352354 0.00011211373 0)
(0.13470381 0.00011019918 0)
(0.13392964 0.00010727549 0)
(0.13343251 0.00010543765 0)
(0.13265625 0.00010256394 0)
(0.13219651 0.00010080475 0)
(0.1314153 9.7989917e-05 0)
(0.13099631 9.6315217e-05 0)
(0.13020659 9.3573693e-05 0)
(0.12983227 9.1994866e-05 0)
(0.12902962 8.9349492e-05 0)
(0.12870443 8.7885675e-05 0)
(0.12788327 8.5372775e-05 0)
(0.12761234 8.4055089e-05 0)
(0.12676552 8.1732233e-05 0)
(0.12655467 8.0613567e-05 0)
(0.12567282 7.8570049e-05 0)
(0.12552867 7.7743713e-05 0)
(0.12459911 7.6119144e-05 0)
(0.1245292 7.564208e-05 0)
(0.12353617 7.6209255e-05 0)
(0.48421431 0.014152922 0)
(0.48510633 0.017536881 0)
(0.48715902 0.020380853 0)
(0.49012833 0.022086502 0)
(0.49338852 0.0227677 0)
(0.49641651 0.022797904 0)
(0.49900397 0.022385254 0)
(0.50111746 0.021561605 0)
(0.5027414 0.020342722 0)
(0.50381926 0.018837081 0)
(0.50430204 0.01723062 0)
(0.50420077 0.015714004 0)
(0.50360503 0.014406631 0)
(0.50264587 0.013341032 0)
(0.50144728 0.012484413 0)
(0.50009391 0.011786037 0)
(0.49862837 0.011202434 0)
(0.49706429 0.010701512 0)
(0.49540041 0.010259849 0)
(0.49363019 0.0098602913 0)
(0.49174722 0.0094906284 0)
(0.48974757 0.0091426764 0)
(0.48763048 0.0088113711 0)
(0.48539789 0.0084938896 0)
(0.48305388 0.0081888447 0)
(0.48060384 0.0078956474 0)
(0.47805411 0.0076140249 0)
(0.47541136 0.0073437735 0)
(0.47268259 0.0070846179 0)
(0.46987477 0.0068361898 0)
(0.4669949 0.0065980401 0)
(0.46404977 0.0063696862 0)
(0.4610461 0.0061506351 0)
(0.45799029 0.0059404142 0)
(0.45488863 0.0057385739 0)
(0.45174708 0.0055447019 0)
(0.44857145 0.0053584151 0)
(0.44536717 0.0051793673 0)
(0.44213957 0.0050072376 0)
(0.43889354 0.0048417356 0)
(0.43563387 0.0046825891 0)
(0.43236488 0.0045295482 0)
(0.42909082 0.0043823744 0)
(0.42581545 0.0042408448 0)
(0.42254247 0.0041047428 0)
(0.41927508 0.0039738631 0)
(0.41601645 0.0038480044 0)
(0.41276927 0.0037269736 0)
(0.40953619 0.0036105817 0)
(0.40631941 0.003498646 0)
(0.40312114 0.0033909881 0)
(0.39994311 0.0032874347 0)
(0.39678715 0.0031878179 0)
(0.39365457 0.0030919743 0)
(0.39054684 0.0029997475 0)
(0.38746494 0.0029109839 0)
(0.38441001 0.0028255391 0)
(0.38138274 0.0027432696 0)
(0.37838401 0.002664043 0)
(0.37541424 0.0025877255 0)
(0.37247411 0.0025141966 0)
(0.3695638 0.0024433318 0)
(0.36668384 0.0023750226 0)
(0.3638342 0.002309153 0)
(0.3610153 0.002245626 0)
(0.35822692 0.0021843333 0)
(0.35546939 0.002125189 0)
(0.35274237 0.0020680915 0)
(0.3500461 0.0020129659 0)
(0.34738011 0.0019597166 0)
(0.34474461 0.0019082791 0)
(0.34213902 0.0018585625 0)
(0.33956355 0.0018105125 0)
(0.33701749 0.0017640417 0)
(0.33450106 0.0017191057 0)
(0.33201346 0.0016756199 0)
(0.32955494 0.0016335494 0)
(0.3271246 0.0015928118 0)
(0.32472273 0.0015533816 0)
(0.32234833 0.0015151772 0)
(0.32000178 0.0014781824 0)
(0.31768195 0.0014423154 0)
(0.31538932 0.0014075697 0)
(0.31312264 0.0013738622 0)
(0.31088249 0.0013411962 0)
(0.30866751 0.001309486 0)
(0.30647841 0.0012787453 0)
(0.30431367 0.0012488848 0)
(0.30217417 0.0012199287 0)
(0.30005821 0.001191783 0)
(0.29796688 0.001164483 0)
(0.29589827 0.0011379287 0)
(0.29385369 0.0011121675 0)
(0.29183102 0.0010870921 0)
(0.2898318 0.0010627625 0)
(0.28785366 0.0010390625 0)
(0.28589846 0.001016066 0)
(0.28396349 0.00099364668 0)
(0.28205098 0.00097189322 0)
(0.28015786 0.00095066753 0)
(0.27828676 0.00093007445 0)
(0.2764342 0.00090996233 0)
(0.27460327 0.00089045357 0)
(0.27279001 0.0008713812 0)
(0.27099805 0.00085288685 0)
(0.26922289 0.00083478627 0)
(0.26746875 0.00081724195 0)
(0.2657305 0.00080005039 0)
(0.26401306 0.00078339673 0)
(0.26231059 0.00076705596 0)
(0.26062879 0.00075123819 0)
(0.25896099 0.00073569442 0)
(0.25731382 0.00072066186 0)
(0.25567962 0.00070586521 0)
(0.25406609 0.00069157111 0)
(0.25246448 0.00067747507 0)
(0.25088365 0.00066387626 0)
(0.24931362 0.00065043759 0)
(0.24776462 0.00063749383 0)
(0.2462252 0.00062467247 0)
(0.24470717 0.00061234649 0)
(0.24319744 0.00060010478 0)
(0.24170958 0.00058836218 0)
(0.24022863 0.00057666492 0)
(0.23877019 0.00056547361 0)
(0.23731714 0.00055428796 0)
(0.2358874 0.00054361804 0)
(0.2344614 0.00053291315 0)
(0.2330597 0.00052273684 0)
(0.23165992 0.0005124836 0)
(0.23028564 0.00050277504 0)
(0.22891127 0.00049294615 0)
(0.22756383 0.00048368114 0)
(0.22621409 0.00047425079 0)
(0.22489295 0.00046540676 0)
(0.22356707 0.00045635054 0)
(0.22227177 0.00044790637 0)
(0.22096899 0.00043920113 0)
(0.21969909 0.00043113712 0)
(0.21841866 0.00042276083 0)
(0.21717381 0.00041505845 0)
(0.215915 0.00040699008 0)
(0.21469487 0.00039963201 0)
(0.21345694 0.00039185146 0)
(0.21226129 0.0003848214 0)
(0.21104353 0.00037730941 0)
(0.20987217 0.000370592 0)
(0.20867384 0.00036333013 0)
(0.20752665 0.00035691083 0)
(0.20634704 0.00034988132 0)
(0.20522399 0.00034374641 0)
(0.20406235 0.00033693211 0)
(0.20296348 0.00033106859 0)
(0.20181906 0.0003244529 0)
(0.20074451 0.00031884848 0)
(0.19961655 0.00031241522 0)
(0.19856656 0.00030705827 0)
(0.19745427 0.0003007917 0)
(0.1964292 0.00029567121 0)
(0.19533174 0.00028955598 0)
(0.19433206 0.00028466146 0)
(0.19324858 0.00027868269 0)
(0.19227491 0.00027400417 0)
(0.1912045 0.00026814737 0)
(0.1902576 0.00026367547 0)
(0.18919927 0.00025792659 0)
(0.1882801 0.00025365259 0)
(0.1872328 0.0002479979 0)
(0.18634248 0.00024391381 0)
(0.18530506 0.00023834016 0)
(0.18444496 0.0002344388 0)
(0.18341613 0.00022893369 0)
(0.18258783 0.0002252088 0)
(0.18156619 0.00021976065 0)
(0.18077157 0.00021620717 0)
(0.17975548 0.00021080549 0)
(0.17899672 0.00020742002 0)
(0.17798434 0.00020205568 0)
(0.17726399 0.00019883707 0)
(0.17625315 0.00019350266 0)
(0.17557413 0.00019045275 0)
(0.17456231 0.00018514333 0)
(0.17392802 0.00018226784 0)
(0.17291219 0.00017698196 0)
(0.17232654 0.00017429205 0)
(0.17130304 0.00016903311 0)
(0.17077052 0.00016654751 0)
(0.16973492 0.0001613262 0)
(0.16926068 0.00015907373 0)
(0.16820752 0.00015391265 0)
(0.16779739 0.00015193537 0)
(0.16671992 0.0001468773 0)
(0.16638045 0.00014523615 0)
(0.16527026 0.00014035773 0)
(0.16500865 0.0001391436 0)
(0.16385516 0.00013458081 0)
(0.16367897 0.00013392015 0)
(0.16246893 0.00012996508 0)
(0.16238491 0.00012979059 0)
(0.16110466 0.00012907139 0)
(0.48587233 0.013720079 0)
(0.48670236 0.016484196 0)
(0.48839157 0.018956261 0)
(0.49083378 0.020652228 0)
(0.49365056 0.021451475 0)
(0.49641736 0.021563499 0)
(0.49888842 0.021215417 0)
(0.50099702 0.020519638 0)
(0.50274085 0.019520433 0)
(0.50410294 0.01828476 0)
(0.50505369 0.016934636 0)
(0.50558974 0.015617377 0)