0 	0 	0 	0
2.5125628e-05 	0.017897547 	4.4039366e-06 	0
5.0251256e-05 	0.035885166 	1.2786818e-05 	0
7.5376884e-05 	0.054054234 	2.9783441e-05 	0
0.00010050251 	0.071786567 	4.6372255e-05 	0
0.00012562814 	0.089261428 	6.2720652e-05 	0
0.00015075377 	0.10711707 	0.00010048956 	0
0.0001758794 	0.12493563 	0.00014102376 	0
0.00020100503 	0.14215284 	0.00018019343 	0
0.00022613065 	0.15940676 	0.00022638062 	0
0.00025125628 	0.1767295 	0.00028850461 	0
0.00027638191 	0.19373274 	0.00034948554 	0
0.00030150754 	0.21038921 	0.00040922584 	0
0.00032663317 	0.22683117 	0.00048203018 	0
0.00035175879 	0.24311323 	0.00056390128 	0
0.00037688442 	0.25896234 	0.00064360121 	0
0.00040201005 	0.27461689 	0.00072232547 	0
0.00042713568 	0.28956351 	0.000814341 	0
0.00045226131 	0.30422995 	0.00091133068 	0
0.00047738693 	0.31847252 	0.0010055281 	0
0.00050251256 	0.33257344 	0.0010987925 	0
0.00052763819 	0.3455264 	0.001199261 	0
0.00055276382 	0.3579877 	0.0013025954 	0
0.00057788945 	0.3701361 	0.0014033526 	0
0.00060301508 	0.38211771 	0.0015027362 	0
0.0006281407 	0.39297062 	0.0016015976 	0
0.00065326633 	0.40279289 	0.0016997497 	0
0.00067839196 	0.4124676 	0.0017964456 	0
0.00070351759 	0.42191344 	0.0018908831 	0
0.00072864322 	0.43093591 	0.0019832369 	0
0.00075376884 	0.43801046 	0.0020654803 	0
0.00077889447 	0.445085 	0.0021477237 	0
0.0008040201 	0.45190066 	0.0022270251 	0
0.00082914573 	0.45870615 	0.0023062109 	0
0.00085427136 	0.46405381 	0.0023729486 	0
0.00087939698 	0.46865466 	0.0024332073 	0
0.00090452261 	0.47319389 	0.0024926913 	0
0.00092964824 	0.4776217 	0.002550774 	0
0.00095477387 	0.48202672 	0.0026086079 	0
0.0009798995 	0.48479122 	0.0026479179 	0
0.0010050251 	0.4874701 	0.0026862234 	0
0.0010301508 	0.49009272 	0.0027237835 	0
0.0010552764 	0.49267231 	0.0027607734 	0
0.001080402 	0.49515677 	0.002796504 	0
0.0011055276 	0.49654512 	0.0028173818 	0
0.0011306533 	0.49793347 	0.0028382596 	0
0.0011557789 	0.4992922 	0.0028587573 	0
0.0011809045 	0.50063004 	0.002878987 	0
0.0012060302 	0.5019434 	0.0028988478 	0
0.0012311558 	0.50260468 	0.0029086828 	0
0.0012562814 	0.50324234 	0.0029181468 	0
0.001281407 	0.50387076 	0.0029275201 	0
0.0013065327 	0.50448575 	0.0029367619 	0
0.0013316583 	0.50510074 	0.0029460037 	0
0.0013567839 	0.5054589 	0.0029508905 	0
0.0013819095 	0.50571741 	0.0029540771 	0
0.0014070352 	0.5059757 	0.0029572637 	0
0.0014321608 	0.50622529 	0.0029604539 	0
0.0014572864 	0.50647488 	0.0029636441 	0
0.0014824121 	0.50668826 	0.0029661651 	0
0.0015075377 	0.50678008 	0.0029664257 	0
0.0015326633 	0.50687191 	0.0029666863 	0
0.0015577889 	0.50696245 	0.0029669906 	0
0.0015829146 	0.50705125 	0.0029673539 	0
0.0016080402 	0.50714006 	0.0029677173 	0
0.0016331658 	0.50719714 	0.0029674245 	0
0.0016582915 	0.50722494 	0.0029665247 	0
0.0016834171 	0.50725273 	0.0029656248 	0
0.0017085427 	0.50728004 	0.0029648077 	0
0.0017336683 	0.50730703 	0.0029640448 	0
0.001758794 	0.50733401 	0.002963282 	0
0.0017839196 	0.50734883 	0.0029622109 	0
0.0018090452 	0.50735494 	0.0029609207 	0
0.0018341709 	0.50736106 	0.0029596305 	0
0.0018592965 	0.50736713 	0.0029584194 	0
0.0018844221 	0.50737317 	0.0029572729 	0
0.0019095477 	0.5073792 	0.0029561263 	0
0.0019346734 	0.50738255 	0.002954875 	0
0.001959799 	0.50738204 	0.0029534764 	0
0.0019849246 	0.50738152 	0.0029520778 	0
0.0020100503 	0.50738104 	0.0029507153 	0
0.0020351759 	0.50738067 	0.0029494573 	0
0.0020603015 	0.5073803 	0.0029481994 	0
0.0020854271 	0.50737984 	0.0029469344 	0
0.0021105528 	0.50737747 	0.0029455215 	0
0.0021356784 	0.507375 	0.0029441021 	0
0.002160804 	0.50737252 	0.0029426826 	0
0.0021859296 	0.5073702 	0.0029413591 	0
0.0022110553 	0.50736794 	0.0029400743 	0
0.0022361809 	0.50736567 	0.0029387896 	0
0.0022613065 	0.50736314 	0.0029374608 	0
0.0022864322 	0.50736001 	0.0029360436 	0
0.0023115578 	0.50735689 	0.0029346265 	0
0.0023366834 	0.50735376 	0.0029332094 	0
0.002361809 	0.50735084 	0.0029319085 	0
0.0023869347 	0.50734795 	0.0029306195 	0
0.0024120603 	0.50734505 	0.0029293306 	0
0.0024371859 	0.50734196 	0.0029279939 	0
0.0024623116 	0.50733853 	0.0029265842 	0
0.0024874372 	0.5073351 	0.0029251746 	0
0.0025125628 	0.50733167 	0.002923765 	0
0.0025376884 	0.50732844 	0.0029224566 	0
0.0025628141 	0.50732525 	0.0029211688 	0
0.0025879397 	0.50732206 	0.0029198809 	0
0.0026130653 	0.5073188 	0.0029185724 	0
0.002638191 	0.50731518 	0.0029171711 	0
0.0026633166 	0.50731155 	0.0029157699 	0
0.0026884422 	0.50730792 	0.0029143686 	0
0.0027135678 	0.50730441 	0.0029130221 	0
0.0027386935 	0.50730103 	0.0029117365 	0
0.0027638191 	0.50729764 	0.0029104509 	0
0.0027889447 	0.50729426 	0.0029091653 	0
0.0028140704 	0.50729062 	0.0029078065 	0
0.002839196 	0.50728683 	0.0029064134 	0
0.0028643216 	0.50728305 	0.0029050204 	0
0.0028894472 	0.50727927 	0.0029036273 	0
0.0029145729 	0.50727569 	0.0029023247 	0
0.0029396985 	0.50727215 	0.0029010416 	0
0.0029648241 	0.50726861 	0.0028997584 	0
0.0029899497 	0.50726507 	0.0028984752 	0
0.0030150754 	0.50726122 	0.002897102 	0
0.003040201 	0.50725731 	0.0028957168 	0
0.0030653266 	0.50725339 	0.0028943317 	0
0.0030904523 	0.50724948 	0.0028929465 	0
0.0031155779 	0.50724578 	0.0028916521 	0
0.0031407035 	0.50724211 	0.0028903713 	0
0.0031658291 	0.50723845 	0.0028890905 	0
0.0031909548 	0.50723478 	0.0028878098 	0
0.0032160804 	0.50723085 	0.0028864541 	0
0.003241206 	0.50722683 	0.0028850764 	0
0.0032663317 	0.50722281 	0.0028836987 	0
0.0032914573 	0.50721879 	0.002882321 	0
0.0033165829 	0.50721491 	0.0028810026 	0
0.0033417085 	0.50721113 	0.0028797242 	0
0.0033668342 	0.50720735 	0.0028784457 	0
0.0033919598 	0.50720358 	0.0028771673 	0
0.0034170854 	0.5071997 	0.0028758574 	0
0.0034422111 	0.50719559 	0.0028744868 	0
0.0034673367 	0.50719147 	0.0028731161 	0
0.0034924623 	0.50718736 	0.0028717455 	0
0.0035175879 	0.50718324 	0.0028703748 	0
0.0035427136 	0.50717937 	0.0028690984 	0
0.0035678392 	0.5071755 	0.0028678222 	0
0.0035929648 	0.50717163 	0.002866546 	0
0.0036180905 	0.50716776 	0.0028652698 	0
0.0036432161 	0.50716372 	0.0028639432 	0
0.0036683417 	0.50715952 	0.0028625791 	0
0.0036934673 	0.50715533 	0.002861215 	0
0.003718593 	0.50715113 	0.0028598509 	0
0.0037437186 	0.50714695 	0.0028584917 	0
0.0037688442 	0.507143 	0.0028572177 	0
0.0037939698 	0.50713905 	0.0028559437 	0
0.0038190955 	0.5071351 	0.0028546696 	0
0.0038442211 	0.50713115 	0.0028533956 	0
0.0038693467 	0.50712707 	0.0028520831 	0
0.0038944724 	0.50712281 	0.0028507251 	0
0.003919598 	0.50711855 	0.002849367 	0
0.0039447236 	0.50711428 	0.002848009 	0
0.0039698492 	0.50711002 	0.0028466509 	0
0.0039949749 	0.50710594 	0.0028453578 	0
0.0040201005 	0.50710192 	0.0028440857 	0
0.0040452261 	0.5070979 	0.0028428135 	0
0.0040703518 	0.50709388 	0.0028415414 	0
0.0040954774 	0.50708985 	0.0028402664 	0
0.004120603 	0.50708556 	0.0028389185 	0
0.0041457286 	0.50708123 	0.0028375661 	0
0.0041708543 	0.5070769 	0.0028362137 	0
0.0041959799 	0.50707258 	0.0028348613 	0
0.0042211055 	0.50706827 	0.002833516 	0
0.0042462312 	0.50706419 	0.0028322456 	0
0.0042713568 	0.5070601 	0.0028309752 	0
0.0042964824 	0.50705602 	0.0028297048 	0
0.004321608 	0.50705194 	0.0028284344 	0
0.0043467337 	0.50704782 	0.0028271529 	0
0.0043718593 	0.50704345 	0.0028258073 	0
0.0043969849 	0.50703907 	0.0028244602 	0
0.0044221106 	0.50703468 	0.0028231132 	0
0.0044472362 	0.5070303 	0.0028217661 	0
0.0044723618 	0.50702592 	0.0028204216 	0
0.0044974874 	0.50702178 	0.0028191527 	0
0.0045226131 	0.50701763 	0.0028178839 	0
0.0045477387 	0.50701349 	0.002816615 	0
0.0045728643 	0.50700935 	0.0028153461 	0
0.0045979899 	0.5070052 	0.0028140773 	0
0.0046231156 	0.50700082 	0.0028127441 	0
0.0046482412 	0.50699638 	0.0028114019 	0
0.0046733668 	0.50699194 	0.0028100597 	0
0.0046984925 	0.5069875 	0.0028087175 	0
0.0047236181 	0.50698306 	0.0028073753 	0
0.0047487437 	0.50697876 	0.0028060764 	0
0.0047738693 	0.50697456 	0.002804809 	0
0.004798995 	0.50697035 	0.0028035416 	0
0.0048241206 	0.50696615 	0.0028022742 	0
0.0048492462 	0.50696195 	0.0028010068 	0
0.0048743719 	0.50695771 	0.0027997237 	0
0.0048994975 	0.50695322 	0.0027983857 	0
0.0049246231 	0.50694872 	0.0027970478 	0
0.0049497487 	0.50694423 	0.0027957099 	0
0.0049748744 	0.50693973 	0.0027943719 	0
0.005 	0.50693524 	0.002793034 	0
