/*--------------------------------*- C++ -*----------------------------------*\
| =========                 |                                                 |
| \\      /  F ield         | OpenFOAM: The Open Source CFD Toolbox           |
|  \\    /   O peration     | Version:  5.x                                   |
|   \\  /    A nd           | Web:      www.OpenFOAM.org                      |
|    \\/     M anipulation  |                                                 |
\*---------------------------------------------------------------------------*/
FoamFile
{
    version     2.0;
    format      ascii;
    class       volScalarField;
    location    "0.4";
    object      p;
}
// * * * * * * * * * * * * * * * * * * * * * * * * * * * * * * * * * * * * * //

dimensions      [0 2 -2 0 0 0 0];

internalField   nonuniform List<scalar> 
21600
(
0.044258432
0.041673454
0.036696431
0.032002456
0.028432078
0.025819609
0.023694551
0.021657727
0.019487217
0.017103569
0.014513701
0.011778738
0.0090021631
0.0063227386
0.0039027027
0.0019050911
0.00045179216
-0.00040828897
-0.00070869365
-0.00055166265
-7.5318946e-05
0.00058154293
0.0013032717
0.00200649
0.0026394758
0.003176002
0.0036080524
0.0039399054
0.0041833037
0.0043533427
0.0044654782
0.0045337836
0.0045701966
0.0045843491
0.0045837065
0.0045738359
0.0045587334
0.0045411395
0.004522838
0.0045049006
0.0044878971
0.0044720491
0.0044573565
0.0044436793
0.0044308059
0.0044184892
0.0044064806
0.0043945399
0.0043824534
0.0043700332
0.0043571269
0.0043436103
0.0043293928
0.0043144077
0.0042986163
0.0042819974
0.0042645515
0.0042462899
0.0042272394
0.0042074322
0.0041869104
0.0041657162
0.004143898
0.0041215007
0.0040985726
0.0040751567
0.004051298
0.0040270346
0.0040024062
0.003977445
0.0039521841
0.0039266494
0.0039008679
0.0038748597
0.0038486463
0.0038222433
0.0037956677
0.0037689319
0.0037420497
0.003715031
0.0036878872
0.0036606257
0.0036332556
0.0036057824
0.0035782136
0.0035505538
0.0035228098
0.0034949858
0.0034670875
0.0034391186
0.0034110839
0.0033829863
0.0033548298
0.0033266164
0.0032983488
0.0032700282
0.0032416564
0.0032132347
0.0031847645
0.0031562469
0.0031276827
0.0030990723
0.0030704165
0.0030417153
0.0030129691
0.0029841778
0.002955341
0.0029264579
0.0028975278
0.0028685491
0.0028395208
0.002810441
0.002781309
0.0027521223
0.0027228806
0.0026935806
0.0026642221
0.0026348011
0.0026053186
0.0025757695
0.0025461559
0.0025164712
0.0024867185
0.0024568892
0.0024269885
0.0023970054
0.0023669477
0.0023368024
0.0023065794
0.0022762627
0.002245866
0.0022153683
0.0021847887
0.0021541012
0.0021233295
0.0020924426
0.0020614705
0.0020303755
0.0019991949
0.0019678834
0.0019364865
0.0019049499
0.00187333
0.00184156
0.0018097109
0.0017777003
0.0017456155
0.0017133588
0.0016810345
0.001648526
0.0016159574
0.0015831931
0.001550379
0.0015173551
0.0014842946
0.0014510088
0.0014177049
0.0013841578
0.0013506151
0.0013168092
0.0012830355
0.0012489767
0.0012149812
0.0011806776
0.0011464742
0.0011119356
0.0010775411
0.0010427806
0.0010082176
0.00097325557
0.00093855611
0.00090341908
0.00086862105
0.00083334293
0.00079849505
0.00076311861
0.00072828045
0.00069286076
0.00065810683
0.0006227116
0.00058813606
0.00055285082
0.00051857125
0.00048350492
0.00044966937
0.00041495892
0.00038175257
0.0003475719
0.00031523078
0.00028180294
0.0002506322
0.00021824441
0.00018864476
0.00015767669
0.00013019011
0.00010114925
7.6537815e-05
5.0089194e-05
2.9521162e-05
6.1780855e-06
0.039751268
0.038559291
0.035250587
0.031398697
0.028043051
0.02540729
0.02325756
0.021262124
0.019183701
0.016912443
0.014436837
0.011812307
0.0091410385
0.0065613631
0.0042304308
0.002294341
0.00086372759
-1.1006061e-05
-0.00035188041
-0.00024640277
0.00017869419
0.00078986915
0.0014719741
0.0021409166
0.0027458138
0.0032606631
0.0036766656
0.003997172
0.0042327894
0.0043974915
0.00450586
0.0045713759
0.0046055972
0.0046179139
0.0046156424
0.0046042623
0.0045877233
0.0045687452
0.0045491066
0.0045298817
0.0045116461
0.0044946272
0.0044788293
0.0044641145
0.0044502718
0.004437053
0.0044242068
0.0044114884
0.0043986798
0.0043855883
0.0043720571
0.0043579571
0.0043431942
0.0043276976
0.0043114257
0.0042943541
0.0042764809
0.0042578149
0.0042383813
0.0042182099
0.0041973416
0.0041758171
0.0041536838
0.0041309851
0.0041077689
0.0040840769
0.0040599535
0.0040354362
0.0040105641
0.0039853686
0.0039598826
0.0039341314
0.0039081416
0.0038819327
0.0038555262
0.0038289368
0.0038021819
0.0037752728
0.0037482239
0.0037210439
0.0036937447
0.0036663328
0.0036388178
0.0036112042
0.0035835
0.0035557088
0.0035278382
0.003499891
0.0034718741
0.0034437898
0.0034156438
0.0033874378
0.0033591768
0.0033308614
0.0033024956
0.0032740789
0.0032456147
0.0032171024
0.0031885452
0.0031599421
0.0031312957
0.0031026046
0.0030738712
0.0030450937
0.0030162743
0.0029874106
0.0029585046
0.002929553
0.0029005574
0.0028715137
0.0028424234
0.0028132819
0.0027840911
0.0027548458
0.0027255484
0.0026961925
0.0026667813
0.0026373071
0.0026077746
0.0025781749
0.0025485138
0.0025187808
0.002488983
0.0024591076
0.0024291641
0.0023991369
0.0023690385
0.0023388511
0.0023085894
0.0022782324
0.002247799
0.0022172627
0.0021866482
0.0021559236
0.0021251188
0.0020941964
0.0020631928
0.0020320636
0.0020008531
0.0019695088
0.0019380834
0.0019065151
0.0018748683
0.0018430679
0.0018111932
0.0017791531
0.0017470441
0.001714759
0.0016824117
0.0016498757
0.0016172853
0.0015844944
0.0015516597
0.00151861
0.00148553
0.0014522192
0.0014188969
0.0013853254
0.0013517654
0.0013179357
0.0012841458
0.0012500638
0.0012160532
0.0011817269
0.0011475093
0.0011129484
0.0010785406
0.0010437583
0.0010091831
0.00097419957
0.00093948884
0.00090433062
0.00086952226
0.00083422321
0.00079936593
0.00076396879
0.00072912213
0.00069368195
0.00065892044
0.00062350487
0.00058892268
0.00055361722
0.00051933195
0.00048424551
0.0004504052
0.00041567474
0.00038246463
0.00034826409
0.0003159202
0.00028247266
0.00025130025
0.00021889304
0.00018929291
0.00015830586
0.00013082022
0.00010176107
7.7152611e-05
5.0686155e-05
3.012362e-05
6.7728309e-06
0.036527309
0.036051235
0.033939686
0.030912847
0.027841096
0.025174851
0.022935844
0.020918967
0.018899883
0.016741448
0.014408125
0.011942874
0.0094411688
0.0070306163
0.0048486057
0.003018901
0.0016344358
0.00074095927
0.00032732474
0.00032777357
0.00063885613
0.0011442267
0.0017377145
0.0023370427
0.0028866189
0.0033577511
0.0037418444
0.0040414865
0.004265189
0.0044242668
0.0045308726
0.0045966753
0.0046320565
0.0046457142
0.0046445957
0.0046340089
0.0046178509
0.0045988551
0.00457885
0.0045589739
0.0045398706
0.0045218296
0.0045049105
0.0044890194
0.004473981
0.0044595734
0.0044455661
0.0044317285
0.0044178531
0.0044037527
0.0043892736
0.0043742866
0.0043586968
0.0043424304
0.0043254436
0.0043077079
0.0042892184
0.0042699797
0.0042500139
0.0042293469
0.0042080169
0.0041860609
0.004163524
0.0041404468
0.0041168752
0.0040928484
0.0040684096
0.0040435939
0.0040184397
0.0039929763
0.0039672364
0.0039412433
0.0039150236
0.0038885951
0.0038619795
0.00383519
0.0038082443
0.0037811522
0.0037539286
0.0037265809
0.0036991214
0.0036715552
0.0036438926
0.0036161367
0.0035882964
0.0035603738
0.0035323772
0.0035043084
0.0034761748
0.0034479775
0.0034197231
0.003391412
0.0033630502
0.0033346369
0.003306177
0.0032776689
0.003249117
0.0032205192
0.0031918798
0.0031631966
0.0031344733
0.003105707
0.0030769015
0.0030480532
0.0030191661
0.0029902359
0.0029612662
0.0029322518
0.0029031963
0.0028740933
0.0028449465
0.0028157489
0.0027865049
0.0027572066
0.0027278589
0.0026984528
0.002668994
0.0026394722
0.0026098948
0.0025802499
0.0025505462
0.0025207703
0.0024909322
0.0024610159
0.0024310343
0.0024009681
0.0023708337
0.0023406091
0.0023103132
0.0022799207
0.0022494548
0.0022188847
0.0021882394
0.0021574823
0.0021266484
0.0020956948
0.0020646636
0.0020335046
0.0020022679
0.0019708949
0.0019394448
0.0019078489
0.0018761785
0.0018443516
0.0018124547
0.001780389
0.001748259
0.0017159491
0.001683582
0.0016510221
0.0016184129
0.0015855988
0.0015527465
0.0015196743
0.0014865776
0.0014532449
0.0014199071
0.0013863142
0.0013527397
0.0013188891
0.0012850857
0.0012509832
0.0012169599
0.0011826135
0.0011483843
0.0011138037
0.0010793851
0.0010445832
0.0010099983
0.0009749954
0.00094027579
0.0009050984
0.00087028207
0.00083496393
0.00080009962
0.0007646834
0.00072983061
0.00069437132
0.00065960462
0.00062416985
0.00058958341
0.00055425858
0.00051997003
0.00048486402
0.0004510214
0.00041627108
0.00038305965
0.00034883893
0.00031649471
0.00028302661
0.00025185492
0.00021942672
0.0001898283
0.00015881983
0.00013133689
0.00010225591
7.7651086e-05
5.1164148e-05
3.0584876e-05
7.2007194e-06
0.034240349
0.034028874
0.032606064
0.030245309
0.027518869
0.024919984
0.022633418
0.020588597
0.01861323
0.016564803
0.014386639
0.012103408
0.0097951439
0.0075717878
0.005550206
0.0038351619
0.0025055305
0.0016027934
0.0011238278
0.0010209962
0.0012125041
0.0016003966
0.0020898534
0.0026029066
0.0030845387
0.0035041337
0.0038505326
0.0041240736
0.00433093
0.0044799836
0.0045811559
0.0046443303
0.0046786176
0.004691884
0.0046905705
0.0046796961
0.0046630143
0.0046432042
0.004622099
0.0046008722
0.0045802211
0.0045604913
0.0045417982
0.0045240948
0.0045072457
0.0044910554
0.0044753161
0.0044598157
0.0044443623
0.0044287759
0.0044129076
0.004396627
0.0043798375
0.0043624601
0.0043444465
0.0043257612
0.0043063941
0.0042863424
0.0042656234
0.0042442559
0.0042222742
0.0041997091
0.0041766027
0.0041529903
0.0041289159
0.0041044142
0.0040795273
0.0040542866
0.0040287298
0.0040028834
0.0039767798
0.0039504397
0.0039238898
0.0038971459
0.0038702298
0.0038431528
0.0038159331
0.0037885787
0.0037611052
0.0037335178
0.0037058299
0.0036780446
0.003650173
0.0036222164
0.0035941846
0.0035660781
0.003537906
0.0035096683
0.0034813735
0.0034530209
0.0034246182
0.0033961639
0.0033676653
0.0033391199
0.0033105337
0.0032819034
0.0032532347
0.0032245236
0.0031957761
0.0031669877
0.003138164
0.0031092999
0.0030804009
0.0030514615
0.0030224874
0.0029934722
0.0029644213
0.0029353275
0.0029061961
0.0028770188
0.002847801
0.0028185337
0.0027892232
0.0027598594
0.0027304494
0.0027009818
0.0026714646
0.0026418849
0.0026122526
0.002582553
0.0025527978
0.0025229703
0.0024930837
0.0024631186
0.0024330912
0.002402979
0.0023728015
0.0023425332
0.0023121967
0.0022817627
0.0022512585
0.0022206489
0.0021899674
0.0021591729
0.0021283048
0.0020973156
0.0020662521
0.002035059
0.0020037917
0.0019723863
0.0019409073
0.0019092804
0.0018775828
0.0018457261
0.0018138035
0.0017817093
0.001749555
0.0017172178
0.0016848277
0.0016522415
0.0016196107
0.0015867712
0.0015538985
0.0015208018
0.001487686
0.0014543296
0.0014209738
0.001387358
0.0013537666
0.0013198937
0.0012860745
0.0012519503
0.0012179122
0.0011835447
0.0011493016
0.0011147003
0.0010802689
0.0010454467
0.0010108499
0.00097582713
0.00094109662
0.00090589956
0.00087107322
0.00083573562
0.00080086219
0.00076542667
0.00073056558
0.0006950871
0.00066031293
0.00062485901
0.00059026588
0.00055492189
0.0005206274
0.00048550215
0.00045165426
0.00041688456
0.00038366843
0.00034942816
0.00031707965
0.00028359177
0.00025241597
0.00021996773
0.00019036495
0.00015933619
0.00013184784
0.00010274675
7.8132931e-05
5.1631974e-05
3.0989637e-05
7.565673e-06
0.032416134
0.032283327
0.031235603
0.029364494
0.027007853
0.024573535
0.022314711
0.02026731
0.018331361
0.016385833
0.014362223
0.012263
0.010147297
0.0081054407
0.006235952
0.0046286876
0.0033525207
0.0024462241
0.0019129157
0.0017191935
0.0018012799
0.0020779034
0.0024659034
0.0028933178
0.0033071113
0.0036752946
0.0039837462
0.0042300718
0.0044182104
0.0045550751
0.0046487965
0.0047077089
0.0047397009
0.004751749
0.0047496952
0.0047381776
0.0047207304
0.0046999203
0.0046775442
0.0046547836
0.0046323736
0.0046107084
0.0045899582
0.0045701253
0.0045511201
0.0045327832
0.0045149387
0.0044973969
0.0044799848
0.0044625327
0.0044449
0.0044269574
0.0044086094
0.0043897727
0.0043703969
0.0043504395
0.0043298868
0.0043087282
0.0042869768
0.0042646439
0.0042417599
0.0042183485
0.0041944486
0.0041700894
0.0041453123
0.0041201468
0.0040946333
0.0040687985
0.0040426795
0.0040162984
0.0039896874
0.0039628636
0.0039358539
0.0039086707
0.0038813365
0.0038538596
0.0038262589
0.0037985398
0.0037707185
0.0037427979
0.0037147922
0.0036867018
0.0036585391
0.0036303028
0.0036020041
0.0035736408
0.0035452237
0.0035167502
0.0034882303
0.0034596605
0.0034310505
0.0034023961
0.0033737063
0.003344976
0.0033162133
0.0032874123
0.0032585803
0.0032297113
0.0032008127
0.0031718778
0.0031429139
0.0031139138
0.0030848848
0.0030558191
0.0030267241
0.0029975913
0.0029684281
0.0029392247
0.0029099886
0.002880709
0.0028513936
0.0028220308
0.0027926291
0.0027631761
0.002733681
0.0027041298
0.002674533
0.002644875
0.0026151683
0.0025853953
0.0025555703
0.0025256739
0.0024957219
0.0024656919
0.0024356032
0.00240543
0.0023751949
0.0023448692
0.0023144785
0.0022839903
0.0022534352
0.0022227744
0.002192045
0.0021612021
0.0021302889
0.0020992539
0.0020681479
0.0020369115
0.0020056042
0.0019741575
0.0019426408
0.0019109747
0.0018792416
0.0018473477
0.0018153916
0.001783262
0.0017510762
0.0017187052
0.0016862853
0.0016536668
0.001621008
0.0015881377
0.0015552385
0.0015221122
0.0014889715
0.0014555868
0.0014222075
0.0013885645
0.001354951
0.001321052
0.001287212
0.0012530626
0.0012190049
0.001184613
0.0011503515
0.0011157265
0.0010812779
0.0010464329
0.0010118199
0.00097677487
0.00094202923
0.00090681049
0.00087196996
0.00083661118
0.00080172442
0.00076626817
0.00073139452
0.00069589569
0.00066110968
0.00062563575
0.00059103136
0.00055566765
0.00052136235
0.00048621761
0.00045235911
0.00041757013
0.00038434331
0.00035008396
0.00031772424
0.00028421743
0.00025302924
0.00022056228
0.00019094474
0.00015989766
0.00013238988
0.00010327252
7.8626995e-05
5.2123447e-05
3.1354292e-05
7.8869125e-06
0.030841048
0.030720155
0.029881144
0.028358005
0.0263475
0.02414123
0.021982717
0.019972772
0.018083193
0.016230327
0.01434754
0.012420036
0.01048464
0.0086111994
0.0068816826
0.0053737748
0.004148884
0.0032440858
0.0026673086
0.0023960957
0.0023813229
0.0025563229
0.0028492529
0.0031949644
0.0035431109
0.0038609755
0.0041318439
0.0043505949
0.0045190056
0.0046422896
0.0047271154
0.0047805038
0.0048092226
0.0048193576
0.0048161033
0.0048036562
0.0047852778
0.0047633796
0.004739692
0.0047153812
0.0046912058
0.0046675967
0.0046447732
0.0046227818
0.0046015783
0.0045810388
0.0045610211
0.0045413561
0.0045218913
0.0045024667
0.0044829528
0.0044632218
0.0044431826
0.0044227486
0.0044018693
0.0043804964
0.0043586143
0.0043362051
0.0043132793
0.0042898404
0.0042659161
0.0042415227
0.0042166971
0.0041914611
0.0041658552
0.0041399023
0.0041136423
0.0040870962
0.0040603011
0.0040332739
0.0040060476
0.0039786344
0.0039510626
0.00392334
0.0038954908
0.0038675191
0.0038394459
0.0038112724
0.003783017
0.0037546787
0.0037262738
0.003697799
0.0036692687
0.0036406781
0.0036120407
0.0035833509
0.0035546216
0.0035258467
0.0034970386
0.0034681904
0.0034393141
0.0034104021
0.0033814659
0.0033524971
0.0033235063
0.0032944841
0.0032654406
0.0032363664
0.0032072714
0.0031781458
0.0031489994
0.0031198218
0.003090623
0.003061392
0.003032139
0.0030028522
0.0029735415
0.0029441943
0.0029148206
0.0028854067
0.0028559627
0.0028264742
0.0027969525
0.0027673818
0.0027377743
0.002708113
0.002678411
0.0026486499
0.0026188447
0.002588975
0.0025590576
0.0025290703
0.0024990316
0.0024689163
0.0024387463
0.0024084929
0.0023781814
0.0023477802
0.0023173178
0.0022867585
0.0022561359
0.0022254081
0.0021946152
0.0021637092
0.0021327362
0.0021016416
0.0020704794
0.0020391866
0.0020078263
0.0019763264
0.0019447598
0.0019130433
0.0018812632
0.0018493215
0.0018173211
0.0017851464
0.0017529187
0.0017205049
0.0016880456
0.0016553864
0.0016226903
0.0015897813
0.001556847
0.0015236839
0.0014905101
0.0014570903
0.0014236799
0.0013900034
0.0013563605
0.0013224297
0.0012885618
0.0012543819
0.0012202979
0.0011858767
0.0011515904
0.0011169375
0.0010824653
0.0010475935
0.0010129583
0.00097788755
0.00094312084
0.00090787737
0.0008730168
0.00083763418
0.00080272825
0.00076724904
0.00073235693
0.00069683596
0.00066203204
0.00062653672
0.00059191474
0.00055653041
0.00052220754
0.0004870429
0.00045316639
0.00041835819
0.00038511236
0.00035083458
0.00031845397
0.00028492952
0.00025371721
0.00022123367
0.00019158635
0.00016052456
0.00013297627
0.00010385
7.9137822e-05
5.2648072e-05
3.1673718e-05
8.1592553e-06
0.029427307
0.029298905
0.02858993
0.02732001
0.025606709
0.023646194
0.021637866
0.019706738
0.017877346
0.016108708
0.014348437
0.012573048
0.010800293
0.0090803307
0.007479309
0.0060639284
0.0048895278
0.0039918955
0.0033825472
0.0030473048
0.0029487058
0.0030325986
0.0032378406
0.0035064645
0.0037914063
0.0040599439
0.0042933982
0.0044841906
0.004632026
0.0047405446
0.0048151525
0.0048617472
0.0048860949
0.0048934294
0.0048882867
0.0048743867
0.0048546828
0.0048313994
0.0048061769
0.0047801471
0.0047540782
0.0047284263
0.0047034518
0.0046792382
0.004655783
0.0046329932
0.004610758
0.0045889262
0.0045673646
0.0045459216
0.0045244792
0.0045029109
0.0044811313
0.0044590498
0.004436618
0.0044137803
0.0043905211
0.0043668138
0.0043426679
0.0043180777
0.0042930697
0.0042676509
0.0042418578
0.0042157033
0.0041892281
0.0041624468
0.0041354005
0.0041081025
0.0040805915
0.0040528776
0.0040249959
0.0039969523
0.0039687777
0.003940474
0.0039120687
0.0038835601
0.0038549728
0.0038263023
0.003797571
0.0037687723
0.0037399262
0.0037110242
0.0036820846
0.0036530973
0.0036240799
0.0035950214
0.0035659391
0.0035368214
0.003507685
0.0034785178
0.0034493358
0.0034201266
0.0033909057
0.0033616598
0.0033324036
0.0033031229
0.0032738318
0.0032445161
0.0032151898
0.0031858385
0.0031564759
0.0031270871
0.003097686
0.0030682574
0.0030388151
0.003009343
0.002979855
0.002950334
0.002920794
0.0028912168
0.0028616168
0.0028319752
0.0028023069
0.0027725924
0.0027428473
0.0027130507
0.0026832194
0.0026533311
0.0026234043
0.002593415
0.0025633833
0.0025332832
0.0025031369
0.0024729153
0.002442644
0.0024122906
0.0023818837
0.0023513881
0.0023208357
0.0022901873
0.0022594799
0.0022286681
0.0021977951
0.0021668096
0.0021357611
0.0021045915
0.0020733581
0.0020419944
0.0020105667
0.0019789996
0.0019473695
0.0019155895
0.0018837494
0.0018517476
0.0018196905
0.0017874589
0.0017551777
0.00172271
0.0016901999
0.0016574897
0.0016247457
0.0015917882
0.0015588085
0.0015255994
0.0014923829
0.0014589194
0.0014254684
0.0013917506
0.0013580693
0.0013240992
0.0012901949
0.0012559776
0.001221859
0.0011874023
0.0011530831
0.0011183963
0.0010838929
0.001048989
0.001014324
0.00097922284
0.00094442765
0.00090915523
0.00087426726
0.00083885713
0.00080392466
0.00076841937
0.00073350134
0.00069795564
0.00066312612
0.00062760744
0.00059295979
0.00055755351
0.00052320441
0.00048801919
0.00045411508
0.00041928778
0.00038601205
0.00035171683
0.00031930249
0.00028576246
0.00025451019
0.00022201367
0.00019231587
0.00016124557
0.00013362716
0.00010450381
7.9677046e-05
5.3220053e-05
3.1954721e-05
8.39697e-06
0.028137394
0.028000202
0.027383488
0.026304849
0.024836797
0.023110043
0.021275915
0.019455709
0.017704101
0.016016543
0.014362005
0.012717674
0.011088357
0.0095069416
0.0080245053
0.006697149
0.0055743146
0.0046902001
0.0040587895
0.0036722023
0.0035023139
0.0035056376
0.003630874
0.0038272563
0.0040515046
0.0042716391
0.0044677333
0.0046301672
0.0047567109
0.0048494815
0.0049127145
0.0049513152
0.0049701663
0.0049737188
0.0049658723
0.0049498609
0.0049283086
0.0049032275
0.0048761469
0.0048481446
0.0048199841
0.0047921333
0.0047648842
0.0047383485
0.0047125599
0.00468745
0.0046629362
0.0046388817
0.0046151717
0.0045916609
0.0045682429
0.0045447915
0.004521228
0.0044974569
0.0044734329
0.0044490925
0.004424421
0.004399382
0.0043739851
0.0043482139
0.0043220952
0.0042956253
0.0042688409
0.0042417453
0.00421438
0.0041867503
0.0041588993
0.0041308313
0.0041025878
0.0040741705
0.004045618
0.004016928
0.003988136
0.003959236
0.0039302603
0.0039011998
0.0038720841
0.0038429018
0.0038136804
0.003784406
0.0037551045
0.00372576
0.0036963966
0.003666997
0.0036375846
0.0036081414
0.0035786906
0.0035492137
0.0035197333
0.0034902302
0.0034607266
0.0034312029
0.0034016809
0.0033721404
0.003342602
0.0033130448
0.0032834892
0.0032539139
0.0032243392
0.0031947437
0.0031651477
0.0031355291
0.0031059085
0.0030762636
0.0030466146
0.0030169386
0.0029872558
0.0029575425
0.0029278188
0.00289806
0.0028682867
0.0028384735
0.0028086417
0.0027787651
0.0027488655
0.0027189157
0.0026889386
0.0026589054
0.0026288408
0.0025987144
0.0025685524
0.0025383225
0.0025080529
0.0024777085
0.0024473205
0.0024168508
0.0023863334
0.0023557276
0.0023250707
0.0022943178
0.0022635113
0.0022326004
0.0022016336
0.0021705542
0.0021394167
0.002108158
0.0020768404
0.0020453921
0.0020138845
0.0019822371
0.0019505312
0.0019186752
0.0018867632
0.0018546891
0.0018225637
0.0017902638
0.001757918
0.0017253851
0.0016928136
0.0016600416
0.0016272395
0.0015942232
0.0015611882
0.0015279233
0.0014946543
0.001461138
0.0014276371
0.001393869
0.0013601404
0.0013261227
0.0012921732
0.0012579108
0.0012237491
0.0011892494
0.001154889
0.0011201616
0.0010856189
0.0010506766
0.0010159739
0.00098083646
0.00094600487
0.00091069833
0.00087577502
0.00084033278
0.00080536573
0.0007698304
0.00073487817
0.00069930447
0.00066444069
0.00062889609
0.00059421356
0.00055878356
0.0005243982
0.00048919154
0.00045524854
0.00042040228
0.00038708358
0.00035277237
0.00032030859
0.000286756
0.00025544401
0.00022293986
0.00019316532
0.00016209559
0.00013436962
0.00010526423
8.026562e-05
5.3857464e-05
3.2219502e-05
8.6306991e-06
0.026953141
0.026812243
0.02626837
0.025337762
0.02406928
0.022551061
0.020894584
0.019204179
0.01754662
0.015942556
0.014382485
0.012851039
0.011346828
0.0098896901
0.0085171448
0.0072747245
0.0062054342
0.0053411289
0.0046972355
0.0042707238
0.0040410778
0.0039739046
0.0040267734
0.0041558743
0.0043220796
0.0044948421
0.0046536962
0.0047874599
0.0048921616
0.0049684297
0.0050193539
0.0050489206
0.0050612292
0.0050600327
0.0050486439
0.0050298257
0.0050058653
0.0049785442
0.0049492598
0.0049190161
0.004888555
0.0048583419
0.0048286892
0.0047997276
0.00477152
0.0047440167
0.0047171596
0.0046908234
0.00466491
0.0046392786
0.0046138346
0.0045884509
0.0045630558
0.0045375488
0.0045118881
0.0044860018
0.0044598768
0.0044334663
0.0044067807
0.0043797926
0.0043525291
0.0043249756
0.0042971699
0.0042691042
0.0042408222
0.0042123188
0.0041836397
0.0041547795
0.0041257831
0.0040966429
0.0040674017
0.0040380484
0.0040086234
0.0039791121
0.0039495524
0.0039199267
0.0038902709
0.0038605649
0.0038308427
0.0038010822
0.0037713159
0.0037415192
0.0037117235
0.0036819027
0.0036520876
0.0036222514
0.0035924249
0.0035625808
0.0035327495
0.0035029029
0.0034730711
0.0034432256
0.0034133962
0.0033835536
0.0033537269
0.0033238859
0.0032940595
0.0032642171
0.0032343878
0.0032045406
0.0031747047
0.0031448488
0.0031150021
0.003085133
0.0030552707
0.0030253827
0.0029954983
0.0029655842
0.0029356697
0.0029057207
0.0028757669
0.0028457733
0.0028157706
0.0027857228
0.0027556612
0.0027255489
0.0026954181
0.0026652307
0.0026350203
0.0026047472
0.0025744468
0.0025440773
0.0025136762
0.002483199
0.0024526861
0.00242209
0.002391454
0.0023607278
0.0023299579
0.0022990903
0.0022681764
0.0022371563
0.0022060872
0.0021749035
0.0021436688
0.0021123109
0.0020809007
0.0020493577
0.0020177619
0.0019860242
0.0019542344
0.0019222923
0.0018903003
0.001858144
0.0018259426
0.0017935645
0.0017611463
0.0017285388
0.001695898
0.0016630549
0.001630187
0.0015971029
0.001564005
0.0015306755
0.0014973467
0.0014637689
0.0014302109
0.0013963843
0.0013626011
0.0013285278
0.0012945262
0.0012602109
0.0012259991
0.0011914491
0.0011570406
0.0011222657
0.0010876767
0.0010526896
0.0010179422
0.00098276248
0.00094788749
0.00091254134
0.00087757551
0.00084209621
0.00080708713
0.00077151748
0.00073652321
0.0007009179
0.00066601146
0.00063043812
0.00059571149
0.0005602559
0.00052582395
0.00049059502
0.00045660117
0.00042173639
0.00038836053
0.00035403536
0.00032150467
0.00028794359
0.00025654947
0.00022404462
0.00019416341
0.00016310508
0.00013522984
0.00010615724
8.0927392e-05
5.4575196e-05
3.2498274e-05
8.8932518e-06
0.025863519
0.025725246
0.025242356
0.02442928
0.023322757
0.021984369
0.020496112
0.018942698
0.017390811
0.015875513
0.014404496
0.01297257
0.011577806
0.0102318
0.008960881
0.0078003939
0.0067863136
0.0059472812
0.005299208
0.0048427768
0.0045637454
0.0044354833
0.0044234336
0.0044903352
0.0046014095
0.0047281059
0.0048500586
0.0049550123
0.0050374986
0.0050967194
0.0051346216
0.0051543041
0.0051591557
0.0051523161
0.0051365762
0.0051142623
0.0050873315
0.0050573247
0.005025489
0.0049927351
0.0049597651
0.0049270267
0.0048948409
0.0048633483
0.0048326333
0.0048026603
0.0047733913
0.00474471
0.0047165335
0.0046887245
0.0046611988
0.0046338286
0.0046065487
0.0045792536
0.0045519049
0.0045244229
0.0044967955
0.0044689665
0.0044409465
0.0044126975
0.004384247
0.0043555696
0.004326704
0.0042976318
0.0042683984
0.0042389886
0.0042094504
0.0041797687
0.0041499919
0.0041201029
0.0040901487
0.0040601092
0.0040300297
0.0039998868
0.0039697242
0.0039395155
0.0039093028
0.0038790572
0.0038488197
0.003818559
0.0037883147
0.0037580536
0.003727814
0.003697561
0.003667333
0.003637094
0.0036068828
0.0035766626
0.0035464723
0.0035162743
0.0034861072
0.0034559327
0.0034257896
0.0033956385
0.0033655178
0.003335387
0.0033052847
0.0032751697
0.003245081
0.0032149771
0.0031848971
0.003154799
0.0031247225
0.0030946246
0.0030645454
0.003034441
0.0030043515
0.0029742323
0.0029441238
0.0029139803
0.0028838428
0.0028536646
0.0028234879
0.0027932646
0.002763038
0.0027327587
0.0027024713
0.0026721249
0.0026417659
0.0026113414
0.0025808995
0.0025503857
0.0025198499
0.0024892349
0.002458594
0.0024278664
0.0023971084
0.0023662565
0.0023353704
0.0023043825
0.0022733579
0.0022422228
0.0022110481
0.0021797543
0.0021484188
0.0021169556
0.0020854492
0.0020538054
0.0020221176
0.0019902832
0.0019584058
0.0019263712
0.0018942956
0.0018620505
0.001829769
0.0017973062
0.0017648117
0.0017321228
0.0016994089
0.001666488
0.0016335503
0.0016003916
0.0015672267
0.0015338258
0.0015004333
0.0014667873
0.0014331681
0.0013992762
0.0013654344
0.001331299
0.0012972409
0.0012628664
0.0012286002
0.0011939938
0.0011595327
0.0011247043
0.0010900645
0.0010550268
0.00102023
0.00098500269
0.00095007932
0.00091468863
0.00087967498
0.00084415415
0.00080909728
0.00077348942
0.00073844679
0.00070280664
0.00066785043
0.00063224592
0.00059746704
0.00056198439
0.00052749633
0.00049224479
0.00045818865
0.0004233064
0.0003898593
0.000355523
0.00032290766
0.00028934305
0.00025784379
0.00022534596
0.00019532761
0.00016429121
0.00013622598
0.0001071965
8.1682304e-05
5.5379683e-05
3.2820544e-05
9.2071358e-06
0.024860166
0.024730404
0.024300348
0.023583011
0.022608264
0.02142226
0.020086485
0.018668414
0.017228202
0.015806845
0.014423499
0.013082594
0.011785116
0.010538582
0.0093610017
0.008278646
0.0073203258
0.0065107678
0.0058654761
0.0053878357
0.0050687384
0.0048881503
0.0048184296
0.0048283739
0.0048875826
0.0049699047
0.0050556115
0.0051318436
0.0051919208
0.0052337286
0.0052580878
0.0052672218
0.005263854
0.0052505817
0.0052297419
0.0052032718
0.0051728183
0.0051396818
0.0051049456
0.0050694101
0.0050337193
0.0049982889
0.0049634352
0.0049293004
0.0048959831
0.004863457
0.0048317002
0.0048006042
0.0047700984
0.0047400491
0.0047103806
0.0046809646
0.0046517413
0.0046226011
0.0045935079
0.0045643752
0.0045351914
0.0045058917
0.0044764863
0.0044469278
0.0044172429
0.0043873967
0.0043574277
0.0043273082
0.0042970838
0.0042667305
0.0042362975
0.0042057612
0.0041751719
0.0041445044
0.0041138084
0.0040830562
0.0040522964
0.0040214984
0.0039907097
0.0039598968
0.0039291063
0.0038983023
0.0038675307
0.0038367528
0.0038060138
0.0037752728
0.0037445741
0.0037138751
0.0036832204
0.003652566
0.0036219576
0.0035913501
0.0035607895
0.0035302298
0.0034997172
0.0034692045
0.0034387385
0.0034082706
0.0033778475
0.0033474193
0.0033170334
0.003286639
0.0032562843
0.0032259173
0.0031955872
0.0031652412
0.0031349293
0.0031045976
0.0030742966
0.003043971
0.003013672
0.0029833432
0.0029530368
0.0029226946
0.0028923699
0.0028620033
0.0028316493
0.002801247
0.0027708523
0.0027404028
0.002709956
0.0026794476
0.0026489373
0.0026183585
0.0025877729
0.0025571115
0.0025264391
0.0024956833
0.0024649124
0.0024340503
0.0024031687
0.0023721879
0.002341184
0.0023100728
0.0022789359
0.0022476827
0.0022164007
0.0021849936
0.0021535559
0.002121984
0.0020903801
0.002058632
0.0020268509
0.0019949162
0.0019629498
0.001930819
0.0018986584
0.0018663207
0.0018339578
0.0018014064
0.0017688343
0.0017360599
0.0017032713
0.0016702684
0.0016372597
0.0016040219
0.0015707887
0.0015373121
0.0015038543
0.0014701357
0.0014364536
0.0014024921
0.00136859
0.001334388
0.0013002717
0.0012658335
0.0012315109
0.0011968436
0.0011623279
0.0011274416
0.0010927487
0.0010576564
0.0010228076
0.00098752885
0.00095255413
0.0009171154
0.00088205051
0.00084648502
0.00081137642
0.00077572772
0.00074063205
0.00070495503
0.00066994349
0.00063430651
0.00059946867
0.00056395857
0.00052940617
0.00049413275
0.00046000403
0.00042510637
0.00039157509
0.00035723132
0.0003245148
0.00029095212
0.00025932639
0.00022684276
0.00019665997
0.00016565301
0.00013736367
0.0001083792
8.2540957e-05
5.6266402e-05
3.3207313e-05
9.5761807e-06
0.023936228
0.023820366
0.023437271
0.02279931
0.021932523
0.0208745
0.019673278
0.018382914
0.01705518
0.015731002
0.014435717
0.013181048
0.011972068
0.010815106
0.0097226754
0.0087137001
0.0078103399
0.0070330791
0.0063962546
0.005904997
0.005554268
0.0053295611
0.0052092412
0.0051676357
0.0051786153
0.0052186751
0.0052691483
0.0053170008
0.0053546513
0.0053788303
0.0053892826
0.0053873698
0.0053751735
0.0053548
0.0053281924
0.005296951
0.0052624422
0.0052257372
0.0051877486
0.0051491546
0.0051105242
0.0050722278
0.0050345641
0.0049976686
0.0049616461
0.0049264767