/*--------------------------------*- C++ -*----------------------------------*\
| =========                 |                                                 |
| \\      /  F ield         | OpenFOAM: The Open Source CFD Toolbox           |
|  \\    /   O peration     | Version:  5.x                                   |
|   \\  /    A nd           | Web:      www.OpenFOAM.org                      |
|    \\/     M anipulation  |                                                 |
\*---------------------------------------------------------------------------*/
FoamFile
{
    version     2.0;
    format      ascii;
    class       surfaceScalarField;
    location    "0.4";
    object      phi;
}
// * * * * * * * * * * * * * * * * * * * * * * * * * * * * * * * * * * * * * //

dimensions      [0 3 -1 0 0 0 0];

internalField   nonuniform List<scalar> 
42870
(
7.8534418e-08
2.935278e-09
-8.1469696e-08
7.4586731e-08
3.9476869e-09
7.0425207e-08
4.1615239e-09
6.631561e-08
4.1095966e-09
6.2248028e-08
4.0675821e-09
5.8178712e-08
4.0693161e-09
5.4099708e-08
4.0790037e-09
5.0030557e-08
4.0691518e-09
4.6011121e-08
4.019436e-09
4.209054e-08
3.9205801e-09
3.8321704e-08
3.7688368e-09
3.4759749e-08
3.5619551e-09
3.1465253e-08
3.2944958e-09
2.8494767e-08
2.9704854e-09
2.5888883e-08
2.6058844e-09
2.3675534e-08
2.2133492e-09
2.185722e-08
1.8183138e-09
2.0408958e-08
1.4482624e-09
1.9284073e-08
1.1248851e-09
1.8425058e-08
8.5901462e-10
1.7772957e-08
6.5210056e-10
1.7273878e-08
4.9907965e-10
1.6882173e-08
3.9170477e-10
1.656136e-08
3.2081287e-10
1.6284959e-08
2.7640126e-10
1.6034111e-08
2.5084787e-10
1.5795504e-08
2.3860755e-10
1.5560811e-08
2.346922e-10
1.5325785e-08
2.3502643e-10
1.5089011e-08
2.3677369e-10
1.4850798e-08
2.3821333e-10
1.4612342e-08
2.3845622e-10
1.4375185e-08
2.371565e-10
1.4140875e-08
2.3431085e-10
1.3910778e-08
2.3009684e-10
1.3685995e-08
2.2478255e-10
1.3467343e-08
2.1865203e-10
1.3255363e-08
2.1197987e-10
1.3050363e-08
2.0500048e-10
1.2852452e-08
1.9791147e-10
1.266159e-08
1.9086147e-10
1.2477625e-08
1.8396518e-10
1.2300327e-08
1.7729774e-10
1.2129415e-08
1.7091259e-10
1.1964579e-08
1.6483617e-10
1.1805495e-08
1.5908357e-10
1.1651842e-08
1.5365292e-10
1.1503301e-08
1.4854162e-10
1.1359565e-08
1.4373583e-10
1.1220342e-08
1.3922289e-10
1.1085359e-08
1.3498257e-10
1.095436e-08
1.309988e-10
1.082711e-08
1.2725023e-10
1.070339e-08
1.2372069e-10
1.0583e-08
1.2039004e-10
1.0465756e-08
1.1724351e-10
1.0351493e-08
1.1426325e-10
1.0240056e-08
1.1143661e-10
1.0131308e-08
1.0874849e-10
1.0025119e-08
1.0618847e-10
9.9213749e-09
1.0374432e-10
9.8199673e-09
1.0140762e-10
9.7207985e-09
9.9168788e-11
9.6237774e-09
9.7021109e-11
9.52882e-09
9.4957343e-11
9.435848e-09
9.2971994e-11
9.3447882e-09
9.1059854e-11
9.255572e-09
8.9216188e-11
9.1681344e-09
8.7437539e-11
9.0824149e-09
8.5719494e-11
8.9983548e-09
8.4060092e-11
8.9158999e-09
8.2454911e-11
8.8349966e-09
8.0903314e-11
8.7555961e-09
7.9400552e-11
8.6776488e-09
7.7947237e-11
8.6011108e-09
7.6538062e-11
8.5259359e-09
7.5174854e-11
8.4520844e-09
7.3851533e-11
8.3795132e-09
7.257117e-11
8.3081865e-09
7.1326756e-11
8.2380638e-09
7.0122656e-11
8.169113e-09
6.8950781e-11
8.1012961e-09
6.7816908e-11
8.0345843e-09
6.6711762e-11
7.9689417e-09
6.5642609e-11
7.9043429e-09
6.4598839e-11
7.8407536e-09
6.3589338e-11
7.7781515e-09
6.2602025e-11
7.716504e-09
6.1647536e-11
7.6557918e-09
6.0712185e-11
7.5959833e-09
5.9808493e-11
7.5370623e-09
5.8921022e-11
7.478998e-09
5.8064311e-11
7.421777e-09
5.7221018e-11
7.3653691e-09
5.6407845e-11
7.3097637e-09
5.560538e-11
7.2549311e-09
5.4832642e-11
7.2008631e-09
5.4067982e-11
7.1475302e-09
5.3332889e-11
7.0949269e-09
5.2603299e-11
7.0430236e-09
5.190333e-11
6.9918172e-09
5.1206327e-11
6.941278e-09
5.05392e-11
6.8914055e-09
4.9872525e-11
6.8421693e-09
4.9236165e-11
6.7935716e-09
4.8597749e-11
6.7455813e-09
4.7990278e-11
6.698203e-09
4.7378237e-11
6.6514051e-09
4.6797944e-11
6.6051945e-09
4.6210549e-11
6.5595387e-09
4.5655857e-11
6.5144472e-09
4.50915e-11
6.4698862e-09
4.4560961e-11
6.425868e-09
4.4018167e-11
6.3823576e-09
4.3510463e-11
6.3393697e-09
4.2987869e-11
6.2968679e-09
4.250178e-11
6.2548698e-09
4.1998125e-11
6.2133372e-09
4.1532521e-11
6.1722906e-09
4.1046633e-11
6.1316901e-09
4.0600466e-11
6.0915589e-09
4.0131256e-11
6.0518553e-09
3.9703557e-11
6.0126053e-09
3.9250031e-11
5.9737654e-09
3.8839899e-11
5.9353643e-09
3.8401117e-11
5.8973565e-09
3.8007715e-11
5.8597737e-09
3.7582799e-11
5.8225684e-09
3.7205362e-11
5.7857748e-09
3.6793521e-11
5.7493435e-09
3.6431304e-11
5.7133118e-09
3.6031786e-11
5.6776277e-09
3.5684085e-11
5.6423315e-09
3.5296185e-11
5.6073691e-09
3.4962405e-11
5.5727836e-09
3.4585512e-11
5.5385186e-09
3.4264982e-11
5.5046201e-09
3.389849e-11
5.4710295e-09
3.3590593e-11
5.4377955e-09
3.323399e-11
5.4048573e-09
3.2938223e-11
5.3722662e-09
3.2591036e-11
5.3399595e-09
3.230675e-11
5.307991e-09
3.1968481e-11
5.2762958e-09
3.1695177e-11
5.2449302e-09
3.1365618e-11
5.2138275e-09
3.1102724e-11
5.1830462e-09
3.0781255e-11
5.152518e-09
3.0528224e-11
5.1223031e-09
3.0214914e-11
5.0923319e-09
2.9971198e-11
5.0626664e-09
2.9665524e-11
5.0332359e-09
2.9430467e-11
5.0041034e-09
2.9132532e-11
4.9751978e-09
2.8905614e-11
4.9465826e-09
2.8615197e-11
4.918187e-09
2.8395593e-11
4.8900741e-09
2.8112822e-11
4.8621741e-09
2.7900034e-11
4.8345492e-09
2.7624902e-11
4.8071312e-09
2.7417997e-11
4.7799804e-09
2.7150794e-11
4.7530314e-09
2.6949004e-11
4.7263414e-09
2.6689984e-11
4.699849e-09
2.6492412e-11
4.6736068e-09
2.6242124e-11
4.6475592e-09
2.604765e-11
4.6217525e-09
2.5806723e-11
4.5961383e-09
2.561417e-11
4.5707549e-09
2.5383418e-11
4.5455635e-09
2.5191456e-11
4.5205912e-09
2.4972218e-11
4.4958121e-09
2.4779144e-11
4.4712392e-09
2.4572851e-11
4.4468624e-09
2.4376868e-11
4.4226768e-09
2.4185594e-11
4.3986924e-09
2.398441e-11
4.3748818e-09
2.3810605e-11
4.35128e-09
2.3601792e-11
4.3278312e-09
2.3448768e-11
4.304602e-09
2.322926e-11
4.2815008e-09
2.3101162e-11
4.2586334e-09
2.2867422e-11
4.2358637e-09
2.2769704e-11
4.2133463e-09
2.2517373e-11
4.1908888e-09
2.2457481e-11
4.1687075e-09
2.2181315e-11
4.1465383e-09
2.2169178e-11
4.1246757e-09
2.1862632e-11
4.102764e-09
2.1911715e-11
4.0811971e-09
2.1566905e-11
4.0595004e-09
2.1696684e-11
4.0381966e-09
2.130378e-11
4.016654e-09
2.1542567e-11
3.9955656e-09
2.108847e-11
3.974085e-09
2.1480603e-11
3.95314e-09
2.0944959e-11
3.9315848e-09
2.1555206e-11
3.9107162e-09
2.0868656e-11
2.2730836e-11
8.5866898e-08
2.6014532e-09
-8.5533073e-08
8.6005687e-08
3.8088981e-09
8.5653596e-08
4.5136145e-09
8.5019932e-08
4.7432604e-09
8.4246429e-08
4.8410851e-09
8.3351276e-08
4.9644691e-09
8.2294347e-08
5.1359324e-09
8.1052724e-08
5.310775e-09
7.9631669e-08
5.4404906e-09
7.8051958e-08
5.5002913e-09
7.6338924e-08
5.4818709e-09
7.4520007e-08
5.3808717e-09
7.2622607e-08
5.1918964e-09
7.0675845e-08
4.9172473e-09
6.8714649e-08
4.5670798e-09
6.6772608e-08
4.1553908e-09
6.4882162e-08
3.7087598e-09
6.3070393e-08
3.2600309e-09
6.1355028e-08
2.8402505e-09
5.9743227e-08
2.4708154e-09
5.8233736e-08
2.161592e-09
5.6820702e-08
1.9121139e-09
5.5496127e-08
1.7162796e-09
5.4249456e-08
1.5674838e-09
5.3073764e-08
1.4520932e-09
5.1962536e-08
1.3620764e-09
5.0908064e-08
1.2930794e-09
4.9903704e-08
1.2390524e-09
4.8944042e-08
1.1946877e-09
4.8024855e-08
1.1559612e-09
4.7142891e-08
1.1201769e-09
4.6295621e-08
1.0857265e-09
4.5481038e-08
1.0517397e-09
4.4697504e-08
1.0178446e-09
4.3943636e-08
9.8396483e-10
4.3218205e-08
9.502145e-10
4.2520068e-08
9.167889e-10
4.1848121e-08
8.839262e-10
4.1201275e-08
8.5184752e-10
4.0578431e-08
8.2075551e-10
3.997849e-08
7.9080187e-10
3.940035e-08
7.6210506e-10
3.8842916e-08
7.3473186e-10
3.8305107e-08
7.0872244e-10
3.7785865e-08
6.8407732e-10
3.7284171e-08
6.607779e-10
3.6799045e-08
6.3877898e-10
3.6329551e-08
6.1803555e-10
3.5874803e-08
5.9848381e-10
3.5433966e-08
5.800605e-10
3.5006256e-08
5.6269201e-10
3.4590945e-08
5.4631026e-10
3.4187353e-08
5.3084238e-10
3.3794851e-08
5.1622259e-10
3.3412857e-08
5.0238409e-10
3.3040833e-08
4.89267e-10
3.2678283e-08
4.7681325e-10
3.2324749e-08
4.6497041e-10
3.1979808e-08
4.536903e-10
3.1643068e-08
4.4292801e-10
3.1314167e-08
4.3264527e-10
3.0992771e-08
4.2280383e-10
3.0678565e-08
4.1337461e-10
3.0371261e-08
4.0432484e-10
3.0070585e-08
3.9563359e-10
2.9776285e-08
3.8727209e-10
2.9488118e-08
3.7922654e-10
2.9205864e-08
3.7147062e-10
2.8929305e-08
3.6399683e-10
2.8658244e-08
3.5677988e-10
2.8392486e-08
3.4981779e-10
2.8131856e-08
3.430852e-10
2.7876174e-08
3.3658512e-10
2.7625284e-08
3.3029109e-10
2.737902e-08
3.2421089e-10
2.7137242e-08
3.1831614e-10
2.6899798e-08
3.1261932e-10
2.666656e-08
3.0708935e-10
2.6437387e-08
3.0174354e-10
2.6212167e-08
2.9654757e-10
2.5990766e-08
2.9152373e-10
2.5773082e-08
2.8663385e-10
2.5558994e-08
2.8190565e-10
2.5348409e-08
2.7729664e-10
2.5141211e-08
2.7284025e-10
2.4937321e-08
2.6848911e-10
2.4736627e-08
2.6428286e-10
2.4539061e-08
2.6016867e-10
2.4344515e-08
2.5619288e-10
2.4152931e-08
2.5229663e-10
2.3964206e-08
2.4853352e-10
2.3778289e-08
2.4483804e-10
2.3595082e-08
2.4127155e-10
2.3414541e-08
2.3776125e-10
2.3236572e-08
2.3437692e-10
2.306114e-08
2.3103773e-10
2.288815e-08
2.2782252e-10
2.2717576e-08
2.2464172e-10
2.2549325e-08
2.215839e-10
2.2383379e-08
2.1854996e-10
2.2219643e-08
2.1563894e-10
2.2058108e-08
2.1274137e-10
2.189868e-08
2.0996756e-10
2.1741355e-08
2.0719683e-10
2.158604e-08
2.0455152e-10
2.1432739e-08
2.0189887e-10
2.1281355e-08
1.9937418e-10
2.1131901e-08
1.9683162e-10
2.0984279e-08
1.9442038e-10
2.0838509e-08
1.9198055e-10
2.0694489e-08
1.8967619e-10
2.0552248e-08
1.8733227e-10
2.041168e-08
1.8512876e-10
2.0272824e-08
1.8287447e-10
2.0135568e-08
1.8076635e-10
1.999996e-08
1.7859585e-10
1.9865884e-08
1.765781e-10
1.9733396e-08
1.7448599e-10
1.9602374e-08
1.7255399e-10
1.9472886e-08
1.705352e-10
1.9344801e-08
1.686847e-10
1.9218198e-08
1.6673451e-10
1.909294e-08
1.6496165e-10
1.8969114e-08
1.6307569e-10
1.8846577e-08
1.6137689e-10
1.8725427e-08
1.5955101e-10
1.8605512e-08
1.5792299e-10
1.8486942e-08
1.5615329e-10
1.8369554e-08
1.5459311e-10
1.8253471e-08
1.5287598e-10
1.8138522e-08
1.5138083e-10
1.8024841e-08
1.4971277e-10
1.7912245e-08
1.482801e-10
1.7800883e-08
1.4665787e-10
1.769056e-08
1.4528548e-10
1.758144e-08
1.4370602e-10
1.7473313e-08
1.4239164e-10
1.736636e-08
1.4085195e-10
1.7260357e-08
1.3959361e-10
1.71555e-08
1.38091e-10
1.7051551e-08
1.3688703e-10
1.6948723e-08
1.3541878e-10
1.6846762e-08
1.3426731e-10
1.67459e-08
1.3283084e-10
1.6645865e-08
1.3173051e-10
1.6546907e-08
1.3032368e-10
1.6448736e-08
1.292729e-10
1.6351625e-08
1.2789284e-10
1.6255263e-08
1.2689045e-10
1.6159942e-08
1.2553565e-10
1.6065333e-08
1.2458031e-10
1.597175e-08
1.2324798e-10
1.5878842e-08
1.2233849e-10
1.5786948e-08
1.210272e-10
1.5695691e-08
1.2016255e-10
1.5605436e-08
1.1887001e-10
1.5515783e-08
1.1804882e-10
1.5427122e-08
1.1677362e-10
1.5339027e-08
1.1599523e-10
1.5251916e-08
1.1473544e-10
1.5165336e-08
1.1399841e-10
1.5079734e-08
1.127527e-10
1.4994627e-08
1.1205607e-10
1.4910494e-08
1.1082303e-10
1.482682e-08
1.1016574e-10
1.4744118e-08
1.0894443e-10
1.4661841e-08
1.08325e-10
1.4580533e-08
1.0711454e-10
1.4499615e-08
1.0653159e-10
1.4419667e-08
1.0533152e-10
1.4340075e-08
1.0478353e-10
1.4261453e-08
1.0359434e-10
1.4183153e-08
1.0307907e-10
1.4105825e-08
1.0190148e-10
1.4028785e-08
1.0141679e-10
1.3952718e-08
1.0025278e-10
1.3876906e-08
9.9795534e-11
1.3802069e-08
9.8648043e-11
1.3727456e-08
9.8215181e-11
1.3653815e-08
9.7089071e-11
1.3580368e-08
9.6676428e-11
1.3507891e-08
9.5578514e-11
1.3435577e-08
9.5181247e-11
1.3364225e-08
9.4121579e-11
1.3293009e-08
9.3733714e-11
1.3222739e-08
9.2727396e-11
1.3152578e-08
9.2341689e-11
1.3083338e-08
9.1410075e-11
1.3014183e-08
9.1017421e-11
1.2945903e-08
9.0191374e-11
1.2877688e-08
8.9781818e-11
1.2810277e-08
8.9107835e-11
1.2742911e-08
8.8670144e-11
1.2676235e-08
8.8217791e-11
1.2609583e-08
8.7740535e-11
1.2543444e-08
8.7619637e-11
1.2477301e-08
8.7088017e-11
1.2411388e-08
8.7468546e-11
1.2345512e-08
8.6745119e-11
9.0317526e-11
8.9430445e-08
2.5351718e-09
-8.9364163e-08
8.9788469e-08
3.450874e-09
9.0031352e-08
4.270731e-09
9.010701e-08
4.6676028e-09
9.0116976e-08
4.8311192e-09
9.011374e-08
4.9677043e-09
9.0098187e-08
5.1514861e-09
9.0039584e-08
5.3693774e-09
8.9913622e-08
5.566453e-09
8.9708983e-08
5.7049305e-09
8.9421594e-08
5.7692593e-09
8.9049466e-08
5.7529996e-09
8.858844e-08
5.6529233e-09
8.8037411e-08
5.4682761e-09
8.740139e-08
5.2031002e-09
8.6687975e-08
4.8688059e-09
8.5910124e-08
4.4866107e-09
8.508496e-08
4.0851955e-09
8.4230369e-08
3.6948414e-09
8.3361122e-08
3.3400623e-09
8.2487407e-08
3.0353072e-09
8.1614959e-08
2.7845615e-09
8.0746463e-08
2.5847759e-09
7.9884602e-08
2.4293454e-09
7.9029074e-08
2.3076211e-09
7.8179555e-08
2.2115952e-09
7.733627e-08
2.1363641e-09
7.6498692e-08
2.0766305e-09
7.5666188e-08
2.0271919e-09
7.4838366e-08
1.983783e-09
7.4015184e-08
1.9433599e-09
7.3196901e-08
1.9040092e-09
7.2384007e-08
1.8646339e-09
7.1577142e-08
1.8247097e-09
7.0777041e-08
1.7840651e-09
6.9984484e-08
1.7427716e-09
6.920025e-08
1.7010237e-09
6.8425082e-08
1.6590943e-09
6.7659666e-08
1.6172635e-09
6.6904612e-08
1.5758095e-09
6.6160445e-08
1.534969e-09
6.5427602e-08
1.4949475e-09
6.4706434e-08
1.4558997e-09
6.399721e-08
1.4179472e-09
6.3300116e-08
1.3811714e-09
6.2615274e-08
1.3456198e-09
6.1942741e-08
1.3113119e-09
6.1282518e-08
1.2782583e-09
6.0634554e-08
1.246448e-09
5.9998758e-08
1.2158566e-09
5.9374998e-08
1.1864515e-09
5.8763118e-08
1.1581901e-09
5.816293e-08
1.1310307e-09
5.7574231e-08
1.1049216e-09
5.6996796e-08
1.0798196e-09
5.6430393e-08
1.0556695e-09
5.5874775e-08
1.0324311e-09
5.5329697e-08
1.010049e-09
5.4794898e-08
9.8848932e-10
5.4270128e-08
9.6769766e-10
5.3755125e-08
9.4764832e-10
5.3249641e-08
9.2828807e-10
5.2753416e-08
9.0959991e-10
5.2266209e-08
8.9153162e-10
5.1787767e-08
8.7407499e-10
5.1317862e-08
8.5717781e-10
5.0856248e-08
8.4084058e-10
5.0402708e-08
8.2500982e-10
4.995701e-08
8.0969485e-10
4.9518951e-08
7.9483953e-10
4.9088307e-08
7.804618e-10
4.866489e-08
7.6650185e-10
4.8248489e-08
7.5298631e-10
4.783893e-08
7.3985039e-10
4.7436011e-08
7.271298e-10
4.7039573e-08
7.147537e-10
4.6649425e-08
7.0276733e-10
4.6265422e-08
6.9109258e-10
4.588738e-08
6.7978495e-10
4.551517e-08
6.6875807e-10
4.5148615e-08
6.5807836e-10
4.4787599e-08
6.4765006e-10
4.4431953e-08
6.3755153e-10
4.4081573e-08
6.2767667e-10
4.3736297e-08
6.1811661e-10
4.3396032e-08
6.0875365e-10
4.3060622e-08
5.9969287e-10
4.2729987e-08
5.9080369e-10
4.2403974e-08
5.8220633e-10
4.2082514e-08
5.7375603e-10
4.1765459e-08
5.6558942e-10
4.145275e-08
5.5754614e-10
4.1144241e-08
5.4978052e-10
4.0839888e-08
5.4211509e-10
4.0539541e-08
5.3472342e-10
4.024317e-08
5.2740922e-10
3.9950625e-08
5.2036687e-10
3.9661887e-08
5.1337955e-10
3.9376807e-08
5.0666418e-10
3.9095376e-08
4.9998148e-10
3.8817442e-08
4.935727e-10
3.8543009e-08
4.8717415e-10
3.8271923e-08
4.8105339e-10
3.80042e-08
4.7492018e-10
3.7739681e-08
4.6907043e-10
3.7478395e-08
4.6318514e-10
3.7220178e-08
4.5759091e-10
3.6965072e-08
4.519375e-10
3.6712908e-08
4.4658462e-10
3.646374e-08
4.4114823e-10
3.6217393e-08
4.3602364e-10
3.5973934e-08
4.3079036e-10
3.5733181e-08
4.258821e-10
3.5495217e-08
4.2083901e-10
3.5259847e-08
4.1613617e-10
3.5027171e-08
4.112712e-10
3.4796986e-08
4.0676376e-10
3.4569406e-08
4.0206563e-10
3.4344216e-08
3.9774436e-10
3.4121548e-08
3.9320243e-10
3.3901174e-08
3.8905885e-10
3.3683246e-08
3.8466313e-10
3.3467518e-08
3.8068955e-10
3.3254163e-08
3.7643067e-10
3.304292e-08
3.7262e-10
3.2833982e-08
3.6848901e-10
3.262707e-08
3.6483478e-10
3.24224e-08
3.608232e-10
3.2219673e-08
3.5731964e-10
3.201913e-08
3.5341947e-10
3.182045e-08
3.5006117e-10
3.1623898e-08
3.4626462e-10
3.1429131e-08
3.4304669e-10
3.1236443e-08
3.3934643e-10
3.1045463e-08
3.3626477e-10
3.0856516e-08
3.3265373e-10
3.0669203e-08
3.2970415e-10
3.048388e-08
3.2617533e-10
3.0300119e-08
3.2335439e-10
3.0118308e-08
3.1990142e-10
2.9937989e-08
3.1720622e-10
2.9759586e-08
3.1382238e-10
2.9582603e-08
3.1124985e-10
2.9407505e-08
3.0792891e-10
2.9233758e-08
3.054771e-10
2.9061869e-08
3.0221314e-10
2.8891262e-08
2.9987962e-10
2.8722489e-08
2.9666581e-10
2.855493e-08
2.9444938e-10
2.8389185e-08
2.9128068e-10
2.8224586e-08
2.8917961e-10
2.8061785e-08
2.8604903e-10
2.7900061e-08
2.8406243e-10
2.7740123e-08
2.8096492e-10
2.7581194e-08
2.7909201e-10
2.7424043e-08
2.7602099e-10
2.7267831e-08
2.7426093e-10
2.7113393e-08
2.7121116e-10
2.6959824e-08
2.695643e-10
2.680803e-08
2.665294e-10
2.6657033e-08
2.6499514e-10
2.6507817e-08
2.619695e-10
2.6359324e-08
2.6054822e-10
2.6212621e-08
2.5752595e-10
2.6066569e-08
2.5621827e-10
2.5922319e-08
2.5319387e-10
2.5778645e-08
2.5199993e-10
2.5636791e-08
2.4896771e-10
2.5495435e-08
2.4788815e-10
2.5355923e-08
2.4484295e-10
2.5216828e-08
2.4387863e-10
2.5079606e-08
2.4081622e-10
2.4942718e-08
2.399672e-10
2.4807736e-08
2.3688365e-10
2.4673002e-08
2.361506e-10
2.4540212e-08
2.3304348e-10
2.4407581e-08
2.3242597e-10
2.4276935e-08
2.2929417e-10
2.4146358e-08
2.2879247e-10
2.4017809e-08
2.2563766e-10
2.3889235e-08
2.2525108e-10
2.3762735e-08
2.220778e-10
2.3636111e-08
2.2180519e-10
2.351161e-08
2.1862299e-10
2.3386881e-08
2.1846271e-10
2.3264319e-08
2.1528952e-10
2.3141421e-08
2.152391e-10
2.3020729e-08
2.1210294e-10
2.2899587e-08
2.121586e-10
2.2780674e-08
2.0910422e-10
2.2661193e-08
2.0926347e-10
2.2543938e-08
2.0636279e-10
2.2425984e-08
2.0662378e-10
2.2310211e-08
2.0399134e-10
2.2193596e-08
2.0435477e-10
2.2079029e-08
2.0218681e-10
2.1963487e-08
2.0263077e-10
2.1849628e-08
2.0132698e-10
2.1734881e-08
2.0149254e-10
2.0554716e-10
9.318688e-08
2.5361089e-09
-9.3187817e-08
9.3408457e-08
3.2292975e-09
9.3691017e-08
3.9881705e-09
9.3894147e-08
4.4644725e-09
9.4019587e-08
4.7056794e-09
9.4135558e-08
4.8517334e-09
9.4281291e-08
5.0057527e-09
9.4452181e-08
5.198488e-09
9.462882e-08
5.3898137e-09
9.4793205e-08
5.5405459e-09
9.4934152e-08
5.6283119e-09
9.5044676e-08
5.6424755e-09
9.5115437e-08
5.5821625e-09
9.5137042e-08
5.4466708e-09
9.5102167e-08
5.2379755e-09
9.5005499e-08
4.9654733e-09
9.4846469e-08
4.6456416e-09
9.4630085e-08
4.3015788e-09
9.4365812e-08
3.9591143e-09
9.4064528e-08
3.6413464e-09
9.3736032e-08
3.3638032e-09
9.3387448e-08
3.1331461e-09
9.3023778e-08
2.9484462e-09
9.2649014e-08
2.8041089e-09
9.226433e-08
2.6923055e-09
9.1870226e-08
2.6056993e-09
9.1467716e-08
2.5388742e-09
9.1057191e-08
2.4871549e-09
9.0638393e-08
2.4459898e-09
9.0210795e-08
2.4113814e-09
8.9773915e-08
2.3802403e-09
8.9327458e-08
2.3504663e-09
8.8871334e-08
2.3207576e-09
8.8405641e-08
2.2904028e-09
8.7930632e-08
2.2590743e-09
8.7446694e-08
2.2267098e-09
8.6954313e-08
2.193404e-09
8.6454057e-08
2.1593503e-09
8.5946538e-08
2.1247831e-09
8.5432401e-08
2.0899466e-09
8.4912298e-08
2.0550718e-09
8.4386886e-08
2.0203601e-09
8.3856801e-08
1.9859845e-09
8.3322671e-08
1.9520777e-09
8.2785092e-08
1.9187502e-09
8.2244645e-08
1.886067e-09
8.1701872e-08
1.8540848e-09
8.1157301e-08
1.8228288e-09
8.0611422e-08
1.7923274e-09
8.0064709e-08
1.7625699e-09
7.9517597e-08
1.7335636e-09
7.8970511e-08
1.705276e-09
7.8423836e-08
1.6777058e-09
7.787795e-08
1.6508072e-09
7.7333191e-08
1.6245785e-09
7.6789895e-08
1.598966e-09
7.6248353e-08
1.5739723e-09
7.5708863e-08
1.5495391e-09
7.5171676e-08
1.5256771e-09
7.4637049e-08
1.5023244e-09
7.4105195e-08
1.4795019e-09
7.3576339e-08
1.4571443e-09
7.3050655e-08
1.4352836e-09
7.2528337e-08
1.4138504e-09
7.2009523e-08
1.3928884e-09
7.1494378e-08
1.3723225e-09
7.098301e-08
1.3522086e-09
7.0475556e-08
1.3324641e-09
6.9972094e-08
1.3131575e-09
6.9472736e-08
1.2941968e-09
6.8977534e-08
1.2756636e-09
6.8486582e-08
1.2574548e-09
6.7999902e-08
1.2396654e-09
6.7517573e-08
1.2221797e-09
6.7039596e-08
1.2051071e-09
6.6566032e-08
1.1883173e-09
6.6096864e-08
1.1719355e-09
6.5632141e-08
1.1558151e-09
6.5171828e-08
1.1400982e-09
6.4715966e-08
1.1246206e-09
6.4264501e-08
1.1095429e-09
6.381747e-08
1.0946809e-09
6.3374806e-08
1.0802162e-09
6.2936539e-08
1.0659431e-09
6.250259e-08
1.0520654e-09
6.207299e-08
1.0383541e-09
6.1647645e-08
1.0250378e-09
6.1226587e-08
1.0118616e-09
6.0809712e-08
9.9908125e-10
6.0397054e-08
9.864139e-10
5.9988499e-08
9.74145e-10
5.9584084e-08
9.6196108e-10
5.9183684e-08
9.501799e-10
5.8787345e-08
9.3845477e-10
5.839493e-08
9.2713867e-10
5.800649e-08
9.1584865e-10
5.7621881e-08
9.0497606e-10
5.7241162e-08
8.9409849e-10
5.6864177e-08
8.8364901e-10
5.6490996e-08
8.7316231e-10
5.6121452e-08
8.6311668e-10
5.5755626e-08
8.5300018e-10
5.5393339e-08
8.4334025e-10
5.5034685e-08
8.3357435e-10
5.4679473e-08
8.2428299e-10
5.4327809e-08
8.1484888e-10
5.397949e-08
8.0591017e-10
5.3634637e-08
7.9679001e-10
5.3293033e-08
7.8818901e-10
5.2954815e-08
7.7936586e-10
5.261975e-08
7.7108854e-10
5.2287994e-08
7.6254608e-10
5.1959297e-08
7.5457933e-10
5.1633834e-08
7.4630202e-10
5.1311337e-08
7.3863376e-10
5.0992001e-08
7.3060676e-10
5.0675539e-08
7.2322575e-10
5.036217e-08
7.1543485e-10
5.0051583e-08
7.0833062e-10
4.9744024e-08
7.0076213e-10
4.9439158e-08
6.9392498e-10
4.9137255e-08
6.8656574e-10
4.8837958e-08
6.7998686e-10
4.8541564e-08
6.7282431e-10
4.8247688e-08
6.6649554e-10
4.795666e-08
6.5951738e-10
4.7668064e-08
6.5343127e-10
4.7382261e-08
6.4662565e-10
4.7098805e-08
6.4077564e-10
4.6818094e-08
6.3413111e-10
4.6539644e-08
6.2851107e-10
4.6263892e-08
6.2201624e-10
4.5990318e-08
6.1662069e-10
4.57194e-08
6.1026467e-10
4.5450575e-08
6.0508923e-10
4.5184368e-08
5.9886123e-10
4.492017e-08
5.939014e-10
4.4658555e-08
5.8779054e-10
4.4398867e-08
5.8304288e-10
4.4141729e-08
5.7703904e-10
4.3886434e-08
5.7250096e-10
4.3633664e-08
5.6659316e-10
4.3382652e-08
5.6226173e-10
4.3134141e-08
5.5643974e-10
4.2887304e-08
5.5231403e-10
4.264295e-08
5.4656756e-10
4.2400184e-08
5.4264555e-10
4.2159886e-08
5.3696311e-10
4.1921091e-08
5.3324522e-10
4.1684754e-08
5.2761738e-10
4.1449831e-08
5.2410285e-10
4.1217362e-08
5.1851733e-10
4.0986217e-08
5.1520727e-10
4.0757528e-08
5.0965425e-10
4.053007e-08
5.0654968e-10
4.0305075e-08
5.0101679e-10
4.0081216e-08
4.9811918e-10
3.9859832e-08
4.9259586e-10
3.9639488e-08
4.8990831e-10
3.9421635e-08
4.8438196e-10
3.9204724e-08
4.8190668e-10
3.8990328e-08
4.7636541e-10
3.877677e-08
4.7410611e-10
3.8565758e-08
4.685374e-10
3.8355478e-08
4.6649856e-10
3.8147782e-08
4.6088999e-10
3.7940706e-08
4.5907564e-10
3.773626e-08
4.5341405e-10
3.7532319e-08
4.5182929e-10
3.733106e-08
4.4610205e-10
3.7130185e-08
4.4475275e-10
3.6932054e-08
4.3894777e-10
3.6734182e-08
4.3783904e-10
3.6539121e-08
4.319445e-10
3.6344189e-08
4.3108283e-10
3.6152144e-08
4.2508826e-10
3.5960091e-08
4.244791e-10
3.577101e-08
4.1837565e-10
3.5581776e-08
4.1802593e-10
3.5395606e-08
4.1180817e-10
3.5209132e-08
4.1172431e-10
3.502582e-08
4.0539058e-10
3.4842046e-08
4.0557881e-10
3.4661535e-08
3.9913425e-10
3.4480396e-08
3.9960114e-10
3.4302623e-08
3.9306319e-10
3.4124047e-08
3.9381488e-10
3.3948934e-08
3.872157e-10
3.3772836e-08
3.8825678e-10
3.3600285e-08
3.8165496e-10
3.3426557e-08
3.8299201e-10
3.325643e-08
3.7648983e-10
3.3084927e-08
3.7812635e-10
3.2917017e-08
3.7190094e-10
3.2747542e-08
3.7383001e-10
3.2581512e-08
3.682175e-10
3.2413803e-08
3.7033928e-10
3.2249e-08
3.6612981e-10
3.2082711e-08
3.677818e-10
3.7090238e-10
9.710322e-08
2.5416359e-09
-9.7108747e-08
9.7231221e-08
3.1012962e-09
9.74751e-08
3.7442915e-09
9.7706088e-08
4.2334848e-09
9.7873475e-08
4.5382926e-09
9.8007775e-08
4.7174328e-09
9.815837e-08
4.8551573e-09
9.8343938e-08
5.0129204e-09
9.8554104e-08
5.1796477e-09
9.8773549e-08
5.3211012e-09
9.8989865e-08
5.4119952e-09
9.919445e-08
5.4378906e-09
9.9380745e-08
5.3958681e-09
9.9541548e-08
5.2858671e-09
9.9668953e-08
5.1105705e-09
9.9756152e-08
4.8782751e-09
9.9799262e-08
4.6025312e-09
9.9798607e-08
4.3022337e-09
9.9758909e-08
3.998812e-09
9.9687752e-08
3.7125035e-09
9.9593185e-08
3.4583709e-09
9.9481985e-08
3.2443457e-09
9.9359258e-08
3.0711736e-09
9.9228538e-08
2.9348281e-09
9.9091505e-08
2.829339e-09
9.8948948e-08
2.7482562e-09
9.8801712e-08
2.6861108e-09
9.865031e-08
2.6385565e-09
9.8494595e-08
2.601705e-09
9.8333919e-08
2.5720575e-09
9.8167428e-08
2.5467314e-09
9.7994295e-08
2.5235993e-09
9.78138e-08
2.5012526e-09
9.7625368e-08
2.4788351e-09
9.7428545e-08
2.4558966e-09
9.7223015e-08
2.4322407e-09
9.7008557e-08
2.4078619e-09
9.6785064e-08
2.3828434e-09
9.6552497e-08
2.3573503e-09
9.6310897e-08
2.3315458e-09
9.6060346e-08
2.3056235e-09
9.5800978e-08
2.2797277e-09
9.5532944e-08
2.2540188e-09
9.5256434e-08
2.2285877e-09
9.4971637e-08
2.2035472e-09
9.4678774e-08
2.1789301e-09
9.437805e-08
2.1548087e-09
9.4069705e-08
2.1311742e-09
9.3753956e-08
2.1080763e-09
9.3431054e-08
2.085472e-09
9.3101222e-08
2.0633955e-09
9.2764718e-08
2.0417795e-09
9.242177e-08
2.0206541e-09
9.2072642e-08
1.9999354e-09
9.1717563e-08
1.9796579e-09
9.1356803e-08
1.9597259e-09
9.0990591e-08
1.9401835e-09
9.0619204e-08
1.9209264e-09
9.0242869e-08
1.9020122e-09
8.9861865e-08
1.8833286e-09
8.9476417e-08
1.8649501e-09
8.9086805e-08
1.8467555e-09
8.8693251e-08
1.8288378e-09
8.8296035e-08
1.8110664e-09
8.789537e-08
1.7935533e-09
8.7491536e-08
1.7761566e-09
8.7084736e-08
1.7590086e-09
8.6675247e-08
1.7419533e-09
8.626326e-08
1.7251445e-09
8.5849048e-08
1.7084093e-09
8.5432787e-08
1.6919239e-09
8.5014746e-08
1.6754963e-09
8.4595085e-08
1.6593262e-09
8.4174065e-08
1.6431995e-09
8.3751831e-08
1.6273411e-09
8.3328636e-08
1.6115122e-09
8.2904607e-08
1.595965e-09
8.2479989e-08
1.5804328e-09
8.205489e-08
1.5651974e-09
8.1629549e-08
1.5499616e-09
8.1204052e-08
1.5350391e-09
8.0778634e-08
1.5200991e-09
8.035336e-08
1.5054906e-09
7.9928457e-08
1.490846e-09
7.950397e-08
1.4765523e-09
7.9080122e-08
1.4622019e-09
7.8656937e-08
1.4482233e-09
7.8234633e-08
1.4341654e-09
7.7813212e-08
1.4205019e-09
7.7392892e-08
1.4067341e-09
7.6973652e-08
1.3933852e-09
7.6555708e-08
1.3799047e-09
7.6139018e-08
1.3668695e-09
7.57238e-08
1.3536729e-09
7.5309989e-08
1.3409502e-09
7.4897804e-08
1.3280336e-09
7.4487158e-08
1.3156218e-09
7.4078276e-08
1.3029807e-09
7.3671047e-08
1.2908782e-09
7.3265701e-08
1.2785077e-09
7.2862106e-08
1.2667122e-09
7.2460499e-08
1.254607e-09
7.2060723e-08
1.2431163e-09
7.1663027e-08
1.2312705e-09
7.1267228e-08
1.2200817e-09
7.0873588e-08
1.2084888e-09
7.0481899e-08
1.1975994e-09
7.0092436e-08
1.1862526e-09
6.9704965e-08
1.1756597e-09
6.9319779e-08
1.1645518e-09
6.8936616e-08
1.1542521e-09
6.8555786e-08
1.1433755e-09
6.8177e-08
1.133366e-09
6.7800589e-08
1.1227125e-09
6.7426233e-08
1.11299e-09
6.7054288e-08
1.1025514e-09
6.6684401e-08
1.093113e-09
6.6316955e-08
1.0828806e-09
6.5951562e-08
1.0737233e-09
6.5588636e-08
1.063688e-09
6.5227752e-08
1.0548091e-09
6.4869356e-08
1.0449617e-09
6.4512985e-08
1.0363585e-09
6.4159119e-08
1.0266896e-09
6.3807255e-08
1.01836e-09
6.3457913e-08
1.0088597e-09
6.3110542e-08
1.0008015e-09
6.2765708e-08
9.9145997e-10
6.2422812e-08
9.836718e-10
6.2082464e-08
9.7447877e-10
6.1744016e-08
9.669593e-10
6.1408128e-08
9.5790403e-10
6.1074097e-08
9.506523e-10
6.0742637e-08
9.4172416e-10
6.0412986e-08
9.3474032e-10
6.0085919e-08
9.2592818e-10
5.9760609e-08
9.1921189e-10
5.9437895e-08
9.1050398e-10
5.9116882e-08
9.0405601e-10
5.879848e-08
8.9544111e-10
5.8481718e-08
8.8926317e-10
5.8167583e-08
8.807284e-10
5.7855023e-08
8.7482142e-10
5.7545108e-08
8.6635441e-10
5.72367e-08
8.6072213e-10
5.6930958e-08
8.5231003e-10
5.6626649e-08
8.4695415e-10
5.632503e-08
8.3858209e-10
5.6024767e-08
8.3350804e-10
5.5727221e-08
8.2516338e-10
5.543095e-08
8.2037445e-10
5.5137426e-08
8.1204041e-10
5.4845091e-08
8.0754281e-10
5.455554e-08
7.9920547e-10
5.4267084e-08
7.9500498e-10
5.3981455e-08
7.8664643e-10
5.3696824e-08
7.8274981e-10
5.3415066e-08
7.7435433e-10
5.3134204e-08
7.7077023e-10
5.2856267e-08
7.6231888e-10
5.2579118e-08
7.590552e-10
5.2304954e-08
7.5052942e-10
5.2031464e-08
7.4759598e-10
5.1761026e-08
7.3897609e-10
5.149114e-08
7.3638397e-10
5.122438e-08
7.2764981e-10
5.0958046e-08
7.2540978e-10
5.0694921e-08
7.1653971e-10
5.0432086e-08
7.1466399e-10
5.0172551e-08
7.0563676e-10
4.9913165e-08
7.0413904e-10
4.965718e-08
6.9493325e-10
4.9401192e-08
6.9382636e-10
4.9148716e-08
6.8442079e-10
4.8896079e-08
6.8371976e-10
4.8647073e-08
6.7409419e-10
4.8397739e-08
6.7381293e-10
4.8152166e-08
6.6394907e-10
4.7906088e-08
6.6410365e-10
4.7663909e-08
6.5398715e-10
4.742104e-08
6.5459342e-10
4.7182216e-08
6.4421501e-10
4.6942506e-08
6.4528843e-10
4.6706993e-08
6.3464769e-10
4.6470389e-08
6.3620425e-10
4.6238135e-08
6.2531806e-10
4.6004577e-08
6.2737269e-10
4.5775513e-08
6.1627902e-10
4.5544928e-08
6.1884241e-10
4.5318964e-08
6.0761879e-10
4.5091255e-08
6.1070057e-10
4.4868254e-08
5.9949147e-10
4.4643294e-08
6.0308591e-10
4.4423039e-08
5.921557e-10
4.4200651e-08
5.9621848e-10
4.3982777e-08
5.8609128e-10
4.3762718e-08
5.9039873e-10
4.3546531e-08
5.8231678e-10
4.3328307e-08
5.8600606e-10
5.8668611e-10
1.0115867e-07
2.5424617e-09
-1.011595e-07
1.0124423e-07
3.0157376e-09
1.0143936e-07
3.5491681e-09
1.0165907e-07
4.0137741e-09
1.0184859e-07
4.3487734e-09
1.0200234e-07
4.5636807e-09
1.0215206e-07
4.7054325e-09
1.0232549e-07
4.8394979e-09
1.0252585e-07
4.9792803e-09
1.0274204e-07
5.1049149e-09
1.0296115e-07
5.1928885e-09
1.031729e-07
5.2261327e-09
1.0337125e-07
5.1975204e-09
1.0355075e-07
5.1063718e-09
1.0370515e-07
4.9561639e-09
1.0382898e-07
4.7544482e-09
1.0391842e-07
4.5130954e-09
1.0397279e-07
4.2478584e-09
1.0399504e-07
3.9765618e-09
1.0399102e-07
3.7165242e-09
1.0396773e-07
3.4816595e-09
1.0393172e-07
3.2803628e-09
1.0388798e-07
3.1149083e-09
1.0383987e-07
2.9829373e-09
1.0378944e-07
2.8797756e-09
1.0373784e-07
2.799854e-09
1.0368593e-07
2.7380228e-09
1.0363434e-07
2.6901466e-09
1.0358321e-07
2.6528319e-09
1.0353219e-07
2.6230722e-09
1.034806e-07
2.5983234e-09
1.0342766e-07
2.5765445e-09
1.0337259e-07
2.5563215e-09
1.0331472e-07
2.5366984e-09
1.0325346e-07
2.51716e-09
1.031883e-07
2.497399e-09
1.0311881e-07
2.4773549e-09
1.0304464e-07
2.4570087e-09
1.0296551e-07
2.4364898e-09
1.0288118e-07
2.415874e-09
1.0279146e-07
2.3953423e-09
1.0269622e-07
2.3749673e-09
1.0259532e-07
2.3549178e-09
1.0248868e-07
2.3352228e-09
1.0237621e-07
2.3160189e-09
1.0225786e-07
2.297283e-09
1.0213355e-07
2.2791233e-09
1.0200325e-07
2.2614725e-09
1.018669e-07
2.2444231e-09