/*--------------------------------*- C++ -*----------------------------------*\
| =========                 |                                                 |
| \\      /  F ield         | OpenFOAM: The Open Source CFD Toolbox           |
|  \\    /   O peration     | Version:  5.x                                   |
|   \\  /    A nd           | Web:      www.OpenFOAM.org                      |
|    \\/     M anipulation  |                                                 |
\*---------------------------------------------------------------------------*/
FoamFile
{
    version     2.0;
    format      ascii;
    class       volVectorField;
    location    "0.4";
    object      U;
}
// * * * * * * * * * * * * * * * * * * * * * * * * * * * * * * * * * * * * * //

dimensions      [0 1 -1 0 0 0 0];

internalField   nonuniform List<vector> 
21600
(
(0.94289293 0.0081619297 0)
(0.89629195 0.012248314 0)
(0.85182459 0.013938419 0)
(0.80671019 0.014109759 0)
(0.7601005 0.013757093 0)
(0.71218154 0.013400203 0)
(0.6635674 0.013130424 0)
(0.61489526 0.012849637 0)
(0.56670833 0.012440392 0)
(0.51951926 0.011837019 0)
(0.47385393 0.011016277 0)
(0.43032512 0.0099827054 0)
(0.38959419 0.0087424496 0)
(0.35245185 0.0073237973 0)
(0.31949136 0.0057438922 0)
(0.2911664 0.0040855751 0)
(0.26762927 0.0025006122 0)
(0.24867121 0.0011522034 0)
(0.23377601 0.00014715526 0)
(0.2222751 -0.00049837753 0)
(0.21348318 -0.00084277368 0)
(0.20675517 -0.00097224655 0)
(0.20153491 -0.00096253829 0)
(0.19734728 -0.00086226023 0)
(0.19383277 -0.00071179478 0)
(0.19073113 -0.00054466633 0)
(0.1878505 -0.00038238154 0)
(0.18506278 -0.00023850248 0)
(0.18229501 -0.0001198229 0)
(0.17951371 -2.7412707e-05 0)
(0.17671269 4.1170491e-05 0)
(0.17390057 8.9825656e-05 0)
(0.17109423 0.00012264534 0)
(0.16831181 0.00014338535 0)
(0.16557112 0.00015522865 0)
(0.16288645 0.0001607592 0)
(0.1602696 0.00016196767 0)
(0.15772818 0.0001603501 0)
(0.15526767 0.00015697079 0)
(0.15289002 0.000152577 0)
(0.15059615 0.0001476548 0)
(0.14838437 0.00014252478 0)
(0.14625296 0.0001373726 0)
(0.14419829 0.00013231667 0)
(0.14221748 0.00012741312 0)
(0.14030614 0.0001226947 0)
(0.13846111 0.00011816402 0)
(0.13667793 0.00011383364 0)
(0.13495358 0.00010969947 0)
(0.13328383 0.00010576548 0)
(0.13166608 0.00010202171 0)
(0.13009643 9.8468373e-05 0)
(0.12857278 9.5092699e-05 0)
(0.12709162 9.1891747e-05 0)
(0.12565136 8.8850623e-05 0)
(0.12424882 8.5964563e-05 0)
(0.1228829 8.3218254e-05 0)
(0.12155071 8.0606599e-05 0)
(0.12025157 7.811518e-05 0)
(0.11898283 7.573948e-05 0)
(0.11774418 7.3466682e-05 0)
(0.11653313 7.1293228e-05 0)
(0.11534968 6.9208189e-05 0)
(0.11419147 6.7208991e-05 0)
(0.11305877 6.52866e-05 0)
(0.11194926 6.3439234e-05 0)
(0.11086347 6.1659604e-05 0)
(0.10979907 5.9946422e-05 0)
(0.10875685 5.8293933e-05 0)
(0.10773442 5.6701029e-05 0)
(0.10673279 5.5163283e-05 0)
(0.10574951 5.3679472e-05 0)
(0.10478581 5.224635e-05 0)
(0.10383914 5.0862349e-05 0)
(0.10291095 4.9525313e-05 0)
(0.10199857 4.8233146e-05 0)
(0.10110368 4.6984722e-05 0)
(0.10022346 4.5777269e-05 0)
(0.099359839 4.4610678e-05 0)
(0.098509825 4.3481398e-05 0)
(0.097675613 4.2390333e-05 0)
(0.096854006 4.1333107e-05 0)
(0.096047489 4.0311759e-05 0)
(0.09525263 3.9321037e-05 0)
(0.094472232 3.8364074e-05 0)
(0.093702594 3.7434651e-05 0)
(0.092946865 3.653706e-05 0)
(0.092201041 3.5664087e-05 0)
(0.091468647 3.4821247e-05 0)
(0.09074534 3.4000293e-05 0)
(0.090035053 3.3208e-05 0)
(0.089333062 3.2435029e-05 0)
(0.088643752 3.1689441e-05 0)
(0.087961969 3.0960767e-05 0)
(0.087292592 3.0258397e-05 0)
(0.08662999 2.9570704e-05 0)
(0.085979582 2.8908422e-05 0)
(0.085335205 2.825871e-05 0)
(0.084702875 2.7633658e-05 0)
(0.084075832 2.701919e-05 0)
(0.083460752 2.6428776e-05 0)
(0.082850214 2.5847086e-05 0)
(0.082251617 2.5288957e-05 0)
(0.081656805 2.4737788e-05 0)
(0.081073979 2.4209778e-05 0)
(0.080494163 2.3687065e-05 0)
(0.079926443 2.3187207e-05 0)
(0.079360938 2.269108e-05 0)
(0.078807705 2.2217566e-05 0)
(0.078255863 2.1746298e-05 0)
(0.077716544 2.1297452e-05 0)
(0.077177753 2.084945e-05 0)
(0.07665181 2.0423729e-05 0)
(0.076125492 1.9997541e-05 0)
(0.075612426 1.9593519e-05 0)
(0.07509803 1.9187805e-05 0)
(0.074597376 1.8804158e-05 0)
(0.07409438 1.8417686e-05 0)
(0.073605705 1.8053175e-05 0)
(0.073113608 1.7684808e-05 0)
(0.07263651 1.7338277e-05 0)
(0.072154835 1.6986968e-05 0)
(0.07168894 1.6657337e-05 0)
(0.071217228 1.6322132e-05 0)
(0.070762192 1.600839e-05 0)
(0.070300001 1.5688407e-05 0)
(0.069855505 1.5389604e-05 0)
(0.069402409 1.5084018e-05 0)
(0.068968158 1.4799274e-05 0)
(0.068523742 1.4507355e-05 0)
(0.068099469 1.4235815e-05 0)
(0.067663332 1.3956883e-05 0)
(0.067248791 1.3697727e-05 0)
(0.066820539 1.3431145e-05 0)
(0.06641551 1.3183658e-05 0)
(0.065994758 1.2928888e-05 0)
(0.065599043 1.2692296e-05 0)
(0.06518541 1.2448814e-05 0)
(0.064798836 1.2222383e-05 0)
(0.064391947 1.1989757e-05 0)
(0.064014362 1.1772872e-05 0)
(0.063613842 1.1550713e-05 0)
(0.06324512 1.1342629e-05 0)
(0.062850596 1.1130527e-05 0)
(0.062490635 1.0930638e-05 0)
(0.062101729 1.0728446e-05 0)
(0.061750451 1.0536086e-05 0)
(0.061366785 1.0343317e-05 0)
(0.061024137 1.0157855e-05 0)
(0.060645326 9.9745878e-06 0)
(0.060311282 9.7953926e-06 0)
(0.059936931 9.621246e-06 0)
(0.059611496 9.4476201e-06 0)
(0.059241202 9.2826968e-06 0)
(0.058924404 9.1140554e-06 0)
(0.058557749 8.9582202e-06 0)
(0.058249654 8.793759e-06 0)
(0.057886206 8.6471284e-06 0)
(0.057586908 8.4862935e-06 0)
(0.057226214 8.3488958e-06 0)
(0.056935844 8.1908508e-06 0)
(0.056577432 8.0629249e-06 0)
(0.056296159 7.906949e-06 0)
(0.055939528 7.788686e-06 0)
(0.055667564 7.6339923e-06 0)
(0.055312185 7.5257851e-06 0)
(0.05504978 7.3714651e-06 0)
(0.054695091 7.2737458e-06 0)
(0.054442548 7.1188715e-06 0)
(0.054087945 7.0321555e-06 0)
(0.053845617 6.8757258e-06 0)
(0.053490454 6.8008387e-06 0)
(0.053258745 6.6416519e-06 0)
(0.052902325 6.5794158e-06 0)
(0.052681702 6.4162507e-06 0)
(0.052323268 6.3678265e-06 0)
(0.052114261 6.1992031e-06 0)
(0.05175299 6.1658758e-06 0)
(0.051556195 5.9902739e-06 0)
(0.051191186 5.9737118e-06 0)
(0.051007274 5.7892875e-06 0)
(0.050637534 5.7914906e-06 0)
(0.050467251 5.5961883e-06 0)
(0.050091683 5.6196719e-06 0)
(0.049935853 5.4109931e-06 0)
(0.049553233 5.4590713e-06 0)
(0.049412761 5.234076e-06 0)
(0.049021703 5.311027e-06 0)
(0.048897575 5.066071e-06 0)
(0.048496497 5.1774543e-06 0)
(0.048389777 4.9080758e-06 0)
(0.047976825 5.0617907e-06 0)
(0.047888645 4.7622443e-06 0)
(0.047461582 4.9695664e-06 0)
(0.047393151 4.6315311e-06 0)
(0.046949107 4.9105995e-06 0)
(0.046901818 4.5185734e-06 0)
(0.046436673 4.8995424e-06 0)
(0.046413338 4.4178488e-06 0)
(0.045917131 5.2754325e-06 0)
(0.97300114 0.015505174 0)
(0.97181287 0.022703362 0)
(0.97040571 0.026284227 0)
(0.9674044 0.027304785 0)
(0.96180127 0.027316414 0)
(0.9533079 0.027255505 0)
(0.94210599 0.027362939 0)
(0.92854196 0.027518139 0)
(0.91291472 0.027533145 0)
(0.89550306 0.027287404 0)
(0.87652965 0.026718697 0)
(0.85626378 0.025802557 0)
(0.83497872 0.024518407 0)
(0.81306661 0.022862506 0)
(0.79087944 0.020843207 0)
(0.76881357 0.018524639 0)
(0.74723695 0.016038589 0)
(0.72642479 0.013553899 0)
(0.70655979 0.011234346 0)
(0.68772901 0.0091947538 0)
(0.66997903 0.0074874271 0)
(0.65329514 0.0061086581 0)
(0.63765104 0.0050268571 0)
(0.62296624 0.0041968187 0)
(0.60915598 0.0035768147 0)
(0.5961423 0.0031307112 0)
(0.58383539 0.0028204671 0)
(0.57214804 0.0026078355 0)
(0.56100793 0.0024590177 0)
(0.55035536 0.0023480859 0)
(0.54014607 0.0022573352 0)
(0.530344 0.0021758541 0)
(0.5209236 0.0020974929 0)
(0.51186252 0.0020192778 0)
(0.50314503 0.0019401398 0)
(0.49475505 0.0018601701 0)
(0.48668088 0.001780006 0)
(0.47890847 0.0017005533 0)
(0.47142723 0.0016226971 0)
(0.46422324 0.001547248 0)
(0.45728594 0.001474811 0)
(0.45060113 0.0014058391 0)
(0.44415831 0.0013405745 0)
(0.43794319 0.001279143 0)
(0.43194574 0.0012215188 0)
(0.42615204 0.0011676191 0)
(0.42055297 0.0011172627 0)
(0.41513536 0.001070263 0)
(0.40989128 0.0010263788 0)
(0.40480844 0.00098538841 0)
(0.39988029 0.00094704274 0)
(0.39509552 0.00091112988 0)
(0.39044897 0.000877425 0)
(0.38593028 0.000845744 0)
(0.38153564 0.00081589538 0)
(0.37725553 0.00078772598 0)
(0.37308738 0.00076107818 0)
(0.36902234 0.00073582795 0)
(0.36505901 0.00071184893 0)
(0.36118904 0.00068904225 0)
(0.35741203 0.0006673088 0)
(0.35372001 0.00064657001 0)
(0.35011349 0.00062674955 0)
(0.34658469 0.00060778428 0)
(0.34313498 0.00058961648 0)
(0.33975661 0.00057219392 0)
(0.33645176 0.00055547399 0)
(0.33321261 0.00053941153 0)
(0.33004207 0.00052397612 0)
(0.32693219 0.00050912659 0)
(0.32388658 0.00049484258 0)
(0.32089705 0.00048108449 0)
(0.31796794 0.00046784059 0)
(0.31509071 0.000455071 0)
(0.31227048 0.00044277176 0)
(0.30949824 0.00043090137 0)
(0.30677993 0.00041946314 0)
(0.30410604 0.00040841293 0)
(0.30148333 0.00039776118 0)
(0.29890168 0.0003874603 0)
(0.29636877 0.0003775279 0)
(0.29387379 0.00036791221 0)
(0.29142539 0.00035863822 0)
(0.28901196 0.00034964964 0)
(0.28664319 0.00034097905 0)
(0.28430661 0.000332565 0)
(0.28201302 0.000324448 0)
(0.27974895 0.00031656089 0)
(0.27752646 0.00030895238 0)
(0.27533092 0.00030154913 0)
(0.27317574 0.00029440838 0)
(0.27104505 0.00028745012 0)
(0.26895373 0.00028074046 0)
(0.26688448 0.00027419214 0)
(0.26485381 0.00026788047 0)
(0.26284287 0.0002617104 0)
(0.2608699 0.00025576682 0)
(0.25891432 0.00024994642 0)
(0.25699632 0.00024434399 0)
(0.25509338 0.00023884742 0)
(0.25322782 0.00023356172 0)
(0.25137498 0.00022836547 0)
(0.24955951 0.00022337431 0)
(0.24775438 0.00021845701 0)
(0.24598682 0.00021374021 0)
(0.24422718 0.0002090824 0)
(0.24250551 0.00020462155 0)
(0.24078925 0.00020020542 0)
(0.23911158 0.00019598372 0)
(0.23743673 0.00019179297 0)
(0.23580131 0.00018779499 0)
(0.234166 0.0001838146 0)
(0.2325712 0.00018002612 0)
(0.23097366 0.00017624232 0)
(0.22941795 0.00017265035 0)
(0.22785652 0.00016905044 0)
(0.22633849 0.00016564297 0)
(0.22481156 0.00016221526 0)
(0.22332991 0.0001589812 0)
(0.22183596 0.00015571486 0)
(0.22038945 0.00015264394 0)
(0.21892704 0.00014952898 0)
(0.21751455 0.0001466117 0)
(0.21608226 0.00014363888 0)
(0.21470275 0.00014086644 0)
(0.21329925 0.00013802718 0)
(0.21195175 0.00013539142 0)
(0.21057575 0.00013267773 0)
(0.20925936 0.00013017109 0)
(0.20790959 0.00012757562 0)
(0.20662352 0.00012519098 0)
(0.20529876 0.00012270685 0)
(0.20404227 0.00012043758 0)
(0.20274133 0.0001180584 0)
(0.20151375 0.00011589846 0)
(0.20023544 0.00011361834 0)
(0.19903618 0.00011156183 0)
(0.19777937 0.00010937521 0)
(0.19660791 0.00010741665 0)
(0.19537144 0.00010531847 0)
(0.19422732 0.00010345291 0)
(0.19301007 0.00010143842 0)
(0.19189293 9.9660823e-05 0)
(0.19069374 9.7725461e-05 0)
(0.18960327 9.6031426e-05 0)
(0.18842102 9.4171484e-05 0)
(0.18735699 9.2556555e-05 0)
(0.18619052 9.076757e-05 0)
(0.18515278 8.9227726e-05 0)
(0.18400092 8.750698e-05 0)
(0.1829894 8.6038224e-05 0)
(0.18185096 8.4381779e-05 0)
(0.18086569 8.2980228e-05 0)
(0.17973944 8.1385717e-05 0)
(0.17878051 8.004786e-05 0)
(0.17766519 7.8512256e-05 0)
(0.17673281 7.7234195e-05 0)
(0.1756271 7.5755417e-05 0)
(0.17472157 7.4534074e-05 0)
(0.17362411 7.3109734e-05 0)
(0.17274585 7.1941327e-05 0)
(0.1716552 7.0569796e-05 0)
(0.17080472 6.9451053e-05 0)
(0.16971939 6.8130672e-05 0)
(0.16889735 6.7058269e-05 0)
(0.16781572 6.5787975e-05 0)
(0.1670229 6.4758279e-05 0)
(0.16594329 6.3537203e-05 0)
(0.16518061 6.2546699e-05 0)
(0.16410121 6.1374364e-05 0)
(0.16336977 6.0419461e-05 0)
(0.16228863 5.9296331e-05 0)
(0.16158968 5.8372889e-05 0)
(0.16050471 5.7299585e-05 0)
(0.15983969 5.6403582e-05 0)
(0.15874863 5.538181e-05 0)
(0.15811917 5.450849e-05 0)
(0.15701957 5.3540595e-05 0)
(0.15642752 5.2685306e-05 0)
(0.15531671 5.1774994e-05 0)
(0.15476413 5.093222e-05 0)
(0.15363917 5.008447e-05 0)
(0.15312839 4.924826e-05 0)
(0.15198605 4.8470102e-05 0)
(0.15151962 4.763353e-05 0)
(0.15035632 4.6935077e-05 0)
(0.14993707 4.6090232e-05 0)
(0.14874878 4.5485328e-05 0)
(0.14837983 4.4622771e-05 0)
(0.14716197 4.4130578e-05 0)
(0.14684669 4.3239707e-05 0)
(0.14559399 4.2888401e-05 0)
(0.14533603 4.195679e-05 0)
(0.1440422 4.178748e-05 0)
(0.14384551 4.0800057e-05 0)
(0.14250268 4.0876499e-05 0)
(0.14237175 3.9814071e-05 0)
(0.14096907 4.0216217e-05 0)
(0.1409108 3.903959e-05 0)
(0.13943093 4.1418822e-05 0)
(0.97633026 0.015440166 0)
(0.97669069 0.020971892 0)
(0.97857034 0.024704945 0)
(0.98113726 0.026461035 0)
(0.98339252 0.027133435 0)
(0.98476662 0.027563347 0)
(0.98511069 0.028127988 0)
(0.98451671 0.028807927 0)
(0.98310314 0.029430193 0)
(0.98093596 0.029832736 0)
(0.97800371 0.029909472 0)
(0.9742606 0.029593966 0)
(0.96965085 0.028847133 0)
(0.96414397 0.027650027 0)
(0.95774665 0.0260268 0)
(0.9505101 0.024048833 0)
(0.94254119 0.021840271 0)
(0.93396371 0.019557169 0)
(0.92492566 0.017358435 0)
(0.91556133 0.015366846 0)
(0.90600994 0.013651903 0)
(0.89637613 0.012227419 0)
(0.88675461 0.011071882 0)
(0.87719198 0.010143309 0)
(0.86771969 0.0094000888 0)
(0.85835178 0.0088080246 0)
(0.84908149 0.0083340543 0)
(0.83989144 0.0079463339 0)
(0.83077013 0.007616768 0)
(0.82170583 0.0073234383 0)
(0.81269648 0.0070510821 0)
(0.80373908 0.0067902794 0)
(0.79483922 0.0065358103 0)
(0.78599951 0.0062853239 0)
(0.77723009 0.0060381457 0)
(0.7685361 0.0057946465 0)
(0.75992935 0.0055556541 0)
(0.75141504 0.0053222464 0)
(0.74300464 0.005095453 0)
(0.73470181 0.0048762361 0)
(0.72651667 0.00466533 0)
(0.71845069 0.00446331 0)
(0.71051234 0.0042705026 0)
(0.70270083 0.0040870905 0)
(0.6950231 0.0039130558 0)
(0.68747627 0.0037482904 0)
(0.68006609 0.0035925567 0)
(0.67278793 0.0034455629 0)
(0.66564667 0.0033069191 0)
(0.65863615 0.0031762146 0)
(0.65176073 0.003052989 0)
(0.64501301 0.0029367908 0)
(0.63839715 0.0028271553 0)
(0.63190471 0.0027236394 0)
(0.6255399 0.002625811 0)
(0.61929339 0.0025332604 0)
(0.61316965 0.0024456066 0)
(0.6071586 0.0023624846 0)
(0.60126515 0.0022835714 0)
(0.59547852 0.0022085492 0)
(0.58980423 0.0021371535 0)
(0.58423081 0.0020691097 0)
(0.57876451 0.002004208 0)
(0.57339321 0.0019422107 0)
(0.56812398 0.0018829567 0)
(0.56294401 0.0018262369 0)
(0.5578613 0.0017719328 0)
(0.55286231 0.0017198564 0)
(0.54795607 0.0016699254 0)
(0.54312821 0.0016219659 0)
(0.5383889 0.001575927 0)
(0.53372288 0.0015316425 0)
(0.52914153 0.0014890896 0)
(0.5246286 0.0014481045 0)
(0.52019679 0.0014086898 0)
(0.51582876 0.0013706802 0)
(0.51153862 0.0013341021 0)
(0.50730783 0.0012987854 0)
(0.50315202 0.0012647794 0)
(0.49905129 0.0012319064 0)
(0.49502296 0.0012002385 0)
(0.49104562 0.0011695882 0)
(0.48713838 0.0011400503 0)
(0.48327819 0.0011114256 0)
(0.4794861 0.0010838319 0)
(0.47573722 0.0010570563 0)
(0.47205474 0.0010312406 0)
(0.46841172 0.0010061564 0)
(0.46483369 0.00098197011 0)
(0.46129144 0.00095843585 0)
(0.45781303 0.00093574583 0)
(0.45436678 0.00091363474 0)
(0.45098351 0.00089232156 0)
(0.44762878 0.00087151981 0)
(0.44433644 0.00085147633 0)
(0.44106903 0.00083188157 0)
(0.43786372 0.00081301134 0)
(0.43467968 0.00079453116 0)
(0.43155772 0.00077674722 0)
(0.42845333 0.00075929825 0)
(0.4254113 0.00074252216 0)
(0.42238306 0.00072602884 0)
(0.41941774 0.00071018935 0)
(0.41646233 0.0006945829 0)
(0.41357073 0.0006796153 0)
(0.410685 0.00066483316 0)
(0.40786431 0.00065067864 0)
(0.4050453 0.00063666368 0)
(0.40229289 0.00062326852 0)
(0.39953778 0.00060996841 0)
(0.39685117 0.00059728349 0)
(0.39415727 0.00058465018 0)
(0.39153418 0.00057263039 0)
(0.38889891 0.00056061969 0)
(0.38633718 0.00054922373 0)
(0.3837581 0.00053779499 0)
(0.38125573 0.00052698489 0)
(0.37873049 0.00051610059 0)
(0.37628559 0.00050584134 0)
(0.37381195 0.00049546677 0)
(0.37142278 0.0004857261 0)
(0.36899855 0.00047582918 0)
(0.3666635 0.00046657733 0)
(0.36428659 0.00045712835 0)
(0.36200415 0.00044833782 0)
(0.35967253 0.0004393091 0)
(0.35744131 0.00043095441 0)
(0.35515301 0.00042232025 0)
(0.35297175 0.00041437797 0)
(0.35072483 0.00040611447 0)
(0.34859238 0.00039856261 0)
(0.34638496 0.00039064738 0)
(0.34430025 0.00038346561 0)
(0.34213049 0.00037587783 0)
(0.34009258 0.00036904761 0)
(0.33795865 0.00036176777 0)
(0.33596671 0.00035527124 0)
(0.33386679 0.00034828099 0)
(0.33192009 0.00034210187 0)
(0.32985239 0.00033538429 0)
(0.32795032 0.00032950755 0)
(0.32591303 0.00032304637 0)
(0.32405508 0.00031745745 0)
(0.3220464 0.00031123753 0)
(0.32023219 0.00030592354 0)
(0.31825028 0.00029993109 0)
(0.31647954 0.00029487923 0)
(0.31452257 0.00028909991 0)
(0.31279515 0.00028429898 0)
(0.31086121 0.00027872134 0)
(0.3091771 0.00027416014 0)
(0.30726427 0.00026877109 0)
(0.30562359 0.00026443945 0)
(0.30372987 0.00025922872 0)
(0.30213288 0.0002551171 0)
(0.30025621 0.00025007341 0)
(0.29870335 0.00024617229 0)
(0.29684158 0.00024128633 0)
(0.29533342 0.00023758775 0)
(0.29348431 0.00023284959 0)
(0.29202161 0.00022934477 0)
(0.2901828 0.00022474593 0)
(0.28876653 0.00022142731 0)
(0.28693554 0.00021695949 0)
(0.28556684 0.00021381982 0)
(0.28374104 0.00020947566 0)
(0.28242128 0.00020650735 0)
(0.28059788 0.00020227988 0)
(0.27932868 0.00019947595 0)
(0.27750469 0.00019535911 0)
(0.27628793 0.00019271282 0)
(0.27446015 0.00018870203 0)
(0.27329797 0.00018620594 0)
(0.27146297 0.00018229716 0)
(0.27035783 0.00017994447 0)
(0.26851188 0.00017613549 0)
(0.26746656 0.00017391838 0)
(0.26560565 0.00017020843 0)
(0.26462328 0.00016811979 0)
(0.26274304 0.00016451069 0)
(0.26182712 0.0001625424 0)
(0.25992276 0.00015903844 0)
(0.25907721 0.00015718209 0)
(0.25714349 0.00015379177 0)
(0.25637265 0.0001520383 0)
(0.25440376 0.00014877637 0)
(0.25371241 0.0001471159 0)
(0.2517019 0.00014400458 0)
(0.2510953 0.00014242609 0)
(0.24903591 0.00013949902 0)
(0.24851975 0.00013799224 0)
(0.2464032 0.00013530142 0)
(0.24598364 0.00013385703 0)
(0.24380027 0.00013148088 0)
(0.24348386 0.00013009498 0)
(0.24122204 0.00012815467 0)
(0.24101568 0.00012683536 0)
(0.23866085 0.00012552347 0)
(0.23857146 0.00012410188 0)
(0.23610849 0.00012694278 0)
(0.97891202 0.014901654 0)
(0.97904992 0.018984175 0)
(0.9804173 0.022344076 0)
(0.98274416 0.024442113 0)
(0.98542864 0.025552415 0)
(0.98793882 0.026232382 0)
(0.9900556 0.026881484 0)
(0.99181495 0.027610214 0)
(0.99335609 0.028330366 0)
(0.9947828 0.028892498 0)
(0.99611638 0.029169787 0)
(0.99729527 0.029077169 0)
(0.99821626 0.028569049 0)
(0.99875257 0.027633955 0)
(0.99879374 0.026302905 0)
(0.99825013 0.024647367 0)
(0.99707986 0.022774881 0)
(0.99527696 0.020816929 0)
(0.99288639 0.018906408 0)
(0.98998018 0.017153493 0)
(0.98666127 0.015626343 0)
(0.98302977 0.014349859 0)
(0.97918398 0.013312814 0)
(0.97519271 0.012485727 0)
(0.97110829 0.011830364 0)
(0.96695312 0.01130843 0)
(0.96273784 0.010887152 0)
(0.95845326 0.010538975 0)
(0.95409538 0.010240876 0)
(0.94965049 0.0099746089 0)
(0.94511619 0.0097266599 0)
(0.94048179 0.0094879423 0)
(0.93574962 0.0092528328 0)
(0.93091311 0.0090183438 0)
(0.92597952 0.0087831873 0)
(0.92094574 0.0085472544 0)
(0.91582285 0.0083110629 0)
(0.91060977 0.0080755383 0)
(0.9053199 0.0078417101 0)
(0.89995274 0.0076106482 0)
(0.89452289 0.0073833018 0)
(0.88902946 0.0071605112 0)
(0.88348758 0.0069429356 0)
(0.87789545 0.0067310936 0)
(0.87226843 0.0065253453 0)
(0.86660352 0.0063259308 0)
(0.86091625 0.0061329901 0)
(0.85520231 0.0059465595 0)
(0.84947739 0.0057666093 0)
(0.84373582 0.0055930228 0)
(0.83799355 0.0054256683 0)
(0.83224348 0.0052643417 0)
(0.82650194 0.0051088681 0)
(0.82076039 0.0049590016 0)
(0.81503562 0.0048145609 0)
(0.80931762 0.0046752841 0)
(0.80362376 0.0045410044 0)
(0.79794252 0.0044114575 0)
(0.79229193 0.0042865033 0)
(0.78665891 0.0041658812 0)
(0.78106231 0.0040494836 0)
(0.7754874 0.0039370545 0)
(0.76995395 0.0038285209 0)
(0.76444552 0.0037236292 0)
(0.75898294 0.0036223408 0)
(0.75354798 0.003524401 0)
(0.74816265 0.0034298049 0)
(0.74280683 0.0033382923 0)
(0.73750391 0.0032498905 0)
(0.73223175 0.0031643302 0)
(0.72701525 0.0030816703 0)
(0.72183019 0.003001628 0)
(0.71670314 0.0029242944 0)
(0.71160764 0.0028493696 0)
(0.70657217 0.0027769774 0)
(0.70156787 0.0027067982 0)
(0.69662532 0.0026389896 0)
(0.69171312 0.0025732091 0)
(0.68686419 0.00250965 0)
(0.68204437 0.0024479445 0)
(0.67728916 0.0023883236 0)
(0.67256148 0.0023303919 0)
(0.66789964 0.0022744204 0)
(0.66326342 0.0022199828 0)
(0.65869423 0.0021673923 0)
(0.65414842 0.0021161892 0)
(0.64967084 0.0020667313 0)
(0.64521414 0.0020185229 0)
(0.6408269 0.001971969 0)
(0.63645775 0.0019265348 0)
(0.6321594 0.0018826752 0)
(0.62787611 0.0018398126 0)
(0.62366504 0.0017984549 0)
(0.61946576 0.0017579783 0)
(0.61534032 0.0017189465 0)
(0.61122311 0.0016806861 0)
(0.60718155 0.0016438193 0)
(0.60314441 0.0016076193 0)
(0.59918495 0.0015727702 0)
(0.59522583 0.0015384881 0)
(0.5913467 0.001505522 0)
(0.58746354 0.0014730267 0)
(0.58366295 0.0014418202 0)
(0.57985365 0.0014109916 0)
(0.57612986 0.0013814312 0)
(0.57239234 0.0013521585 0)
(0.56874362 0.0013241403 0)
(0.56507579 0.0012963217 0)
(0.56150047 0.0012697501 0)
(0.55790025 0.0012432915 0)
(0.55439671 0.0012180783 0)
(0.55086205 0.0011928927 0)
(0.54742871 0.0011689568 0)
(0.54395756 0.0011449638 0)
(0.54059291 0.0011222302 0)
(0.53718326 0.0010993551 0)
(0.53388585 0.0010777547 0)
(0.53053569 0.0010559283 0)
(0.52730416 0.0010353971 0)
(0.52401149 0.0010145549 0)
(0.52084454 0.00099503354 0)
(0.51760738 0.00097511577 0)
(0.5145038 0.00095654947 0)
(0.51132019 0.00093750028 0)
(0.50827883 0.00091983826 0)
(0.50514681 0.0009016054 0)
(0.50216662 0.00088480052 0)
(0.49908424 0.00086733521 0)
(0.49616425 0.00085134397 0)
(0.49312957 0.00083460065 0)
(0.4902689 0.00081938225 0)
(0.48727995 0.00080331787 0)
(0.48447783 0.00078883455 0)
(0.48153264 0.00077340898 0)
(0.47878839 0.00075962617 0)
(0.47588499 0.00074480151 0)
(0.47319802 0.00073168608 0)
(0.47033439 0.00071742638 0)
(0.46770424 0.00070494819 0)
(0.46487835 0.00069122021 0)
(0.46230467 0.00067935134 0)
(0.45951444 0.00066612265 0)
(0.45699698 0.00065483624 0)
(0.45424031 0.00064207686 0)
(0.45177897 0.0006313493 0)
(0.44905366 0.00061903085 0)
(0.44664847 0.00060883854 0)
(0.4439523 0.00059693265 0)
(0.44160343 0.00058725548 0)
(0.43893407 0.00057573766 0)
(0.43664185 0.0005665552 0)
(0.4339969 0.00055539903 0)
(0.43176183 0.00054669347 0)
(0.42913877 0.00053587665 0)
(0.42696152 0.00052763089 0)
(0.42435773 0.00051712961 0)
(0.42223916 0.0005093275 0)
(0.4196519 0.00049912111 0)
(0.41759308 0.00049174883 0)
(0.41501943 0.00048181568 0)
(0.41302167 0.00047485876 0)
(0.41045855 0.00046517923 0)
(0.40852339 0.00045862529 0)
(0.40596755 0.00044918021 0)
(0.40409679 0.00044301786 0)
(0.40154477 0.00043378928 0)
(0.3997405 0.00042800686 0)
(0.39718859 0.00041897725 0)
(0.39545323 0.00041356453 0)
(0.39289745 0.00040471789 0)
(0.39123374 0.00039966537 0)
(0.38866983 0.00039098744 0)
(0.38708089 0.00038628508 0)
(0.38450427 0.00037776264 0)
(0.38299361 0.00037340173 0)
(0.38039932 0.00036502397 0)
(0.37897089 0.00036099482 0)
(0.37635356 0.00035275312 0)
(0.37501177 0.00034904759 0)
(0.37236558 0.0003409372 0)
(0.37111534 0.00033754645 0)
(0.36843392 0.00032956636 0)
(0.36728068 0.00032648153 0)
(0.3645571 0.00031863706 0)
(0.36350687 0.00031584957 0)
(0.36073348 0.00030815617 0)
(0.35979285 0.0003056571 0)
(0.35696122 0.00029814167 0)
(0.35613738 0.00029592153 0)
(0.35323813 0.00028863034 0)
(0.35253882 0.00028668253 0)
(0.34956142 0.00027969213 0)
(0.34899485 0.00027801227 0)
(0.34592739 0.00027144649 0)
(0.34550196 0.00027003617 0)
(0.34233082 0.00026411028 0)
(0.34205436 0.00026294273 0)
(0.33876445 0.00025816216 0)
(0.3386416 0.00025670082 0)
(0.33522144 0.00025811433 0)
(0.98097767 0.014584368 0)
(0.98105403 0.017840133 0)
(0.98205532 0.020813799 0)
(0.983898 0.023053213 0)
(0.9862442 0.024476955 0)
(0.98867033 0.02536386 0)
(0.99091457 0.026044152 0)
(0.99293007 0.026700165 0)
(0.99481617 0.027333774 0)
(0.99668612 0.027842081 0)
(0.99860645 0.028105345 0)
(1.0005618 0.02803533 0)
(1.0024878 0.027586879 0)
(1.0042794 0.026755528 0)
(1.0058348 0.025575503 0)
(1.007053 0.02411418 0)
(1.0078683 0.022464845 0)
(1.0082366 0.020737077 0)
(1.0081631 0.019041035 0)
(1.0076775 0.017470817 0)
(1.0068517 0.016089438 0)
(1.0057598 0.014924976 0)
(1.0044905 0.013974353 0)
(1.0031055 0.013215117 0)
(1.0016625 0.012614389 0)
(1.0001817 0.012137181 0)
(0.99868248 0.011753084 0)
(0.99715485 0.011437602 0)
(0.9956009 0.011170972 0)
(0.99400118 0.010937351 0)
(0.9923555 0.010724376 0)
(0.99064346 0.010523029 0)
(0.98886715 0.010327185 0)
(0.98700777 0.010133095 0)
(0.98507132 0.0099387453 0)
(0.98304123 0.0097433449 0)
(0.98092748 0.0095468906 0)
(0.97871517 0.0093498424 0)
(0.97641752 0.0091529189 0)
(0.97402036 0.0089568973 0)
(0.97153939 0.0087625722 0)
(0.96896033 0.0085706109 0)
(0.96630085 0.0083816272 0)
(0.96354604 0.0081960431 0)
(0.96071523 0.0080142452 0)
(0.95779254 0.0078364184 0)
(0.95479884 0.007662761 0)
(0.95171706 0.0074932716 0)
(0.9485696 0.0073280246 0)
(0.945338 0.0071668908 0)
(0.94204627 0.0070098756 0)
(0.93867445 0.006856771 0)
(0.93524821 0.0067075604 0)
(0.93174598 0.0065619922 0)
(0.92819519 0.0064200583 0)
(0.92457251 0.006281484 0)
(0.92090727 0.0061462879 0)
(0.91717422 0.0060141826 0)
(0.91340473 0.0058852243 0)
(0.90957148 0.0057591163 0)
(0.90570798 0.0056359581 0)
(0.9017847 0.0055154433 0)
(0.89783741 0.005397717 0)
(0.8938342 0.005282459 0)
(0.88981326 0.0051698604 0)
(0.88574009 0.0050595824 0)
(0.88165546 0.0049518612 0)
(0.87752207 0.0048463336 0)
(0.87338345 0.0047432807 0)
(0.86919928 0.0046423086 0)
(0.86501605 0.0045437432 0)
(0.86079017 0.0044471544 0)
(0.85657132 0.0043529138 0)
(0.85231239 0.0042605499 0)
(0.84806645 0.0041704818 0)
(0.84378262 0.0040821916 0)
(0.83951766 0.0039961483 0)
(0.8352166 0.0039117834 0)
(0.83094016 0.0038296186 0)
(0.82662897 0.0037490308 0)
(0.82234806 0.0036705983 0)
(0.81803332 0.0035936394 0)
(0.81375443 0.0035187933 0)
(0.80944216 0.0034453151 0)
(0.80517122 0.0033739091 0)
(0.80086691 0.0033037634 0)
(0.79660936 0.0032356519 0)
(0.79231794 0.003168691 0)
(0.7880787 0.0031037301 0)
(0.78380462 0.0030398091 0)
(0.77958814 0.0029778576 0)
(0.77533534 0.0029168346 0)
(0.77114561 0.0028577551 0)
(0.76691758 0.0027994914 0)
(0.76275817 0.0027431504 0)
(0.75855795 0.0026875119 0)
(0.75443202 0.0026337805 0)
(0.75026226 0.0025806378 0)
(0.74617262 0.0025293921 0)
(0.74203557 0.0024786204 0)
(0.73798469 0.0024297414 0)
(0.73388226 0.0023812209 0)
(0.72987231 0.002334595 0)
(0.72580609 0.0022882109 0)
(0.72183896 0.0022437293 0)
(0.71781023 0.0021993719 0)
(0.71388759 0.0021569313 0)
(0.70989737 0.0021144958 0)
(0.70602064 0.0020739981 0)
(0.70206968 0.0020333848 0)
(0.69824012 0.0019947368 0)
(0.69432897 0.0019558503 0)
(0.69054765 0.0019189637 0)
(0.68667663 0.0018817138 0)
(0.68294449 0.0018465053 0)
(0.67911375 0.0018108059 0)
(0.6754316 0.0017771966 0)
(0.67164108 0.001742966 0)
(0.66800966 0.0017108813 0)
(0.66425915 0.0016780415 0)
(0.66067908 0.0016474111 0)
(0.65696823 0.0016158884 0)
(0.65344009 0.0015866461 0)
(0.64976839 0.0015563705 0)
(0.6462927 0.0015284541 0)
(0.64265951 0.0014993588 0)
(0.63923677 0.0014727096 0)
(0.63564133 0.0014447311 0)
(0.632272 0.0014192944 0)
(0.62871342 0.0013923727 0)
(0.62539798 0.0013680966 0)
(0.62187524 0.0013421739 0)
(0.61861417 0.0013190098 0)
(0.61512616 0.0012940316 0)
(0.61191996 0.0012719347 0)
(0.60846542 0.0012478488 0)
(0.60531463 0.0012267757 0)
(0.6018922 0.0012035317 0)
(0.59879742 0.0011834429 0)
(0.59540561 0.001160994 0)
(0.5923675 0.0011418525 0)
(0.58900469 0.001120152 0)
(0.58602397 0.0011019219 0)
(0.58268844 0.0010809264 0)
(0.57976595 0.0010635767 0)
(0.5764558 0.0010432444 0)
(0.57359247 0.001026743 0)
(0.5703057 0.0010070317 0)
(0.56750257 0.0009913524 0)
(0.56423702 0.00097222498 0)
(0.56149529 0.00095733994 0)
(0.55824862 0.00093875632 0)
(0.55556963 0.00092464226 0)
(0.55233934 0.00090656775 0)
(0.54972461 0.00089320174 0)
(0.54650802 0.00087559909 0)
(0.54395927 0.00086296012 0)
(0.54075348 0.00084579637 0)
(0.53827263 0.00083386632 0)
(0.53507454 0.00081710677 0)
(0.53266375 0.00080586705 0)
(0.52947001 0.00078947945 0)
(0.52713172 0.00077891429 0)
(0.52393872 0.00076286685 0)
(0.52167564 0.00075296213 0)
(0.51847951 0.00073722441 0)
(0.51629467 0.0007279659 0)
(0.5130912 0.00071250766 0)
(0.51098799 0.00070388314 0)
(0.50777265 0.00068867625 0)
(0.50575483 0.00068067493 0)
(0.50252272 0.00066569297 0)
(0.50059446 0.00065830347 0)
(0.49734029 0.00064352158 0)
(0.49550622 0.00063673469 0)
(0.49222422 0.00062213075 0)
(0.49048948 0.00061593624 0)
(0.4871734 0.00060149118 0)
(0.48554364 0.00059588109 0)
(0.4821867 0.00058158089 0)
(0.48066813 0.00057654691 0)
(0.47726294 0.00056238289 0)
(0.47586238 0.00055791664 0)
(0.47240087 0.00054388879 0)
(0.47112578 0.00053998269 0)
(0.46759912 0.00052610597 0)
(0.4664576 0.00052275194 0)
(0.46285611 0.00050905814 0)
(0.46185687 0.0005062461 0)
(0.45816993 0.00049279737 0)
(0.45732221 0.0004905193 0)
(0.45353809 0.00047742628 0)
(0.45285148 0.00047566879 0)
(0.44895727 0.00046312549 0)
(0.44844118 0.00046185918 0)
(0.44442281 0.00045024261 0)
(0.44408526 0.00044931086 0)
(0.43992822 0.00043958049 0)
(0.43977261 0.00043808495 0)
(0.43546638 0.00043623766 0)
(0.98274311 0.014418981 0)
(0.98281755 0.017159248 0)
(0.98361737 0.019789947 0)
(0.98510935 0.021986529 0)
(0.98710438 0.023568729 0)
(0.98930063 0.02461089 0)
(0.9914537 0.025335287 0)
(0.99345183 0.025929222 0)
(0.99532879 0.026456437 0)
(0.99716268 0.026870417 0)
(0.9990291 0.027079395 0)
(1.0009355 0.027001078 0)
(1.0028525 0.026589341 0)
(1.0046993 0.025839236 0)
(1.0064005 0.024781894 0)
(1.0078657 0.023477048 0)
(1.0090408 0.022004858 0)
(1.0098755 0.020457013 0)
(1.010371 0.018925731 0)
(1.0105364 0.017491809 0)
(1.0104317 0.016213392 0)
(1.0101092 0.015120604 0)
(1.0096529 0.014216986 0)
(1.0091122 0.013486647 0)
(1.0085506 0.012902565 0)
(1.0079837 0.012434453 0)
(1.0074427 0.012054962 0)
(1.006914 0.011741909 0)
(1.0064115 0.011477763 0)