/*--------------------------------*- C++ -*----------------------------------*\
| =========                 |                                                 |
| \\      /  F ield         | OpenFOAM: The Open Source CFD Toolbox           |
|  \\    /   O peration     | Version:  5.x                                   |
|   \\  /    A nd           | Web:      www.OpenFOAM.org                      |
|    \\/     M anipulation  |                                                 |
\*---------------------------------------------------------------------------*/
FoamFile
{
    version     2.0;
    format      ascii;
    class       volScalarField;
    location    "0.3";
    object      p;
}
// * * * * * * * * * * * * * * * * * * * * * * * * * * * * * * * * * * * * * //

dimensions      [0 2 -2 0 0 0 0];

internalField   nonuniform List<scalar> 
21600
(
0.018093301
0.015635904
0.012281738
0.0095004984
0.0073054355
0.0053713697
0.0035478639
0.0019056793
0.0006165244
-0.00019746303
-0.0005495312
-0.00055876171
-0.00037375315
-0.00011528881
0.00013992146
0.00035285756
0.00051152691
0.00062006135
0.00068952301
0.00073182735
0.0007569374
0.00077212596
0.00078218695
0.00078997665
0.00079699546
0.00080388509
0.00081079996
0.00081765603
0.00082428448
0.00083051529
0.00083621405
0.00084129235
0.00084570514
0.00084944271
0.00085252132
0.00085497437
0.00085684507
0.00085818083
0.0008590293
0.0008594357
0.00085944138
0.00085908304
0.00085839265
0.00085739766
0.00085612145
0.00085458387
0.00085280187
0.00085078995
0.00084856073
0.00084612522
0.00084349325
0.0008406736
0.00083767427
0.00083450256
0.0008311652
0.0008276684
0.0008240179
0.00082021894
0.00081627633
0.00081219443
0.00080797724
0.00080362838
0.0007991512
0.00079454879
0.0007898241
0.00078497983
0.0007800186
0.00077494274
0.0007697544
0.00076445539
0.00075904723
0.00075353109
0.00074790797
0.00074217857
0.00073634366
0.00073040388
0.00072436
0.00071821266
0.00071196254
0.00070561
0.0006991553
0.00069259824
0.00068593863
0.00067917596
0.00067231
0.00066534042
0.00065826726
0.0006510904
0.00064380983
0.00063642503
0.00062893539
0.00062133965
0.00061363664
0.00060582484
0.00059790333
0.0005898712
0.00058172829
0.00057347435
0.00056510964
0.00055663388
0.00054804706
0.00053934847
0.00053053785
0.00052161449
0.00051257864
0.00050343031
0.00049417069
0.00048480059
0.00047532185
0.00046573553
0.00045604359
0.000446247
0.0004363479
0.00042634759
0.00041624912
0.00040605496
0.0003957698
0.0003853978
0.00037494542
0.00036441827
0.00035382421
0.0003431698
0.00033246404
0.00032171453
0.00031093192
0.00030012557
0.00028930873
0.00027849348
0.00026769646
0.00025693295
0.00024622304
0.00023558486
0.00022504156
0.0002146137
0.00020432702
0.0001942038
0.00018427124
0.00017455211
0.00016507391
0.00015585984
0.00014693911
0.00013833911
0.00013009495
0.00012224183
0.00011481999
0.0001078674
0.00010141882
9.5503044e-05
9.0137194e-05
8.5334629e-05
8.1093145e-05
7.7415553e-05
7.4285994e-05
7.1702404e-05
6.9635806e-05
6.8075466e-05
6.6971239e-05
6.629408e-05
6.5965334e-05
6.5932063e-05
6.6088453e-05
6.6360536e-05
6.6627677e-05
6.6807881e-05
6.6791953e-05
6.6517075e-05
6.5925727e-05
6.5007072e-05
6.3786889e-05
6.2313931e-05
6.0683315e-05
5.8960577e-05
5.7244792e-05
5.5556495e-05
5.3937409e-05
5.23459e-05
5.0759975e-05
4.9122661e-05
4.7395894e-05
4.5567525e-05
4.3621506e-05
4.1581008e-05
3.9445673e-05
3.7221719e-05
3.4931378e-05
3.2549908e-05
3.0140163e-05
2.7657604e-05
2.5184707e-05
2.2662183e-05
2.0174643e-05
1.764127e-05
1.519287e-05
1.2689975e-05
1.0370885e-05
7.9957681e-06
5.9204057e-06
3.8121499e-06
2.1483683e-06
4.6797931e-07
0.015569488
0.014246402
0.011791806
0.0093119362
0.0071904105
0.0053420328
0.0036403813
0.0021126829
0.00089250011
8.4934781e-05
-0.00030132019
-0.00035643009
-0.0002147253
6.2238109e-06
0.00023147522
0.00042178741
0.00056453531
0.00066247397
0.00072500679
0.00076269101
0.00078456096
0.00079730592
0.00080537826
0.00081145088
0.0008169357
0.00082243661
0.00082809126
0.00083380513
0.00083940068
0.00084469842
0.00084955363
0.00085386751
0.00085758522
0.00086068828
0.00086318526
0.000865103
0.00086647917
0.00086735654
0.00086777884
0.00086778803
0.00086742265
0.000866717
0.00086570098
0.00086440019
0.00086283642
0.00086102807
0.00085899078
0.00085673791
0.000854281
0.00085163011
0.00084879417
0.00084578117
0.00084259838
0.00083925241
0.0008357494
0.00083209498
0.00082829437
0.00082435233
0.00082027325
0.00081606108
0.00081171943
0.00080725157
0.00080266055
0.00079794915
0.00079312003
0.00078817565
0.00078311839
0.00077795036
0.00077267352
0.00076728946
0.00076179955
0.00075620478
0.00075050598
0.00074470372
0.00073879861
0.00073279115
0.000726682
0.00072047169
0.00071416078
0.00070774955
0.00070123815
0.0006946263
0.0006879137
0.00068109978
0.00067418421
0.00066716659
0.0006600469
0.00065282492
0.00064550063
0.00063807343
0.00063054268
0.00062290703
0.00061516528
0.00060731585
0.00059935776
0.00059129004
0.00058311251
0.00057482485
0.00056642731
0.00055791958
0.00054930161
0.00054057264
0.0005317324
0.00052278014
0.00051371605
0.00050454012
0.00049525351
0.00048585701
0.00047635242
0.0004667408
0.00045702407
0.00044720319
0.00043728025
0.00042725656
0.00041713511
0.00040691837
0.00039661099
0.00038621712
0.0003757432
0.00036519482
0.00035457983
0.00034390476
0.00033317862
0.00032240898
0.00031160646
0.00030078043
0.00028994408
0.0002791095
0.00026829332
0.00025751079
0.00024678201
0.0002361251
0.00022556319
0.00021511687
0.00020481184
0.00019467041
0.00018471978
0.00017498274
0.00016548677
0.00015625511
0.00014731691
0.00013869959
0.00013043821
0.00012256798
0.00011512914
0.00010815978
0.00010169464
9.5762699e-05
9.0381045e-05
8.5563183e-05
8.1306843e-05
7.7614945e-05
7.4471559e-05
7.1874728e-05
6.9795458e-05
6.8223114e-05
6.7107608e-05
6.6419941e-05
6.6081584e-05
6.6039537e-05
6.6188181e-05
6.6453343e-05
6.6714637e-05
6.6889673e-05
6.686951e-05
6.659072e-05
6.599602e-05
6.5073844e-05
6.3850264e-05
6.2373423e-05
6.0738865e-05
5.9011848e-05
5.7291875e-05
5.5599536e-05
5.3976706e-05
5.2382013e-05
5.0793149e-05
4.915346e-05
4.7424315e-05
4.5593875e-05
4.3645805e-05
4.1603348e-05
3.9466365e-05
3.7240623e-05
3.4948944e-05
3.2565871e-05
3.015489e-05
2.7671021e-05
2.5197025e-05
2.2673544e-05
2.0185213e-05
1.7651046e-05
1.5202228e-05
1.2698616e-05
1.0379394e-05
8.0038914e-06
5.9286019e-06
3.8203807e-06
2.1571228e-06
4.7638716e-07
0.01390024
0.013119547
0.011340034
0.0091961877
0.0071798728
0.005411722
0.0038434916
0.002464151
0.001337619
0.00053856605
9.1562634e-05
-5.2429366e-05
6.6927495e-06
0.0001634238
0.00033979933
0.00049608083
0.00061769425
0.00070383693
0.00076022338
0.00079466699
0.00081456284
0.00082575923
0.00083233406
0.00083683304
0.00084066259
0.00084447343
0.00084846297
0.00085258705
0.00085670283
0.00086064834
0.00086428267
0.0008675021
0.00087024217
0.0008724727
0.00087419011
0.00087540955
0.00087615802
0.00087646877
0.00087637735
0.00087591868
0.00087512541
0.00087402688
0.00087264884
0.00087101339
0.00086913935
0.00086704262
0.00086473668
0.00086223302
0.00085954155
0.00085667091
0.00085362875
0.00085042192
0.00084705668
0.00084353872
0.00083987338
0.00083606553
0.00083211974
0.00082804016
0.00082383062
0.00081949458
0.0008150352
0.00081045531
0.0008057576
0.00080094448
0.00079601832
0.00079098126
0.00078583543
0.00078058269
0.00077522477
0.00076976307
0.00076419875
0.00075853262
0.00075276533
0.0007468973
0.00074092898
0.00073486075
0.00072869312
0.0007224265
0.00071606138
0.0007095979
0.00070303614
0.00069637572
0.00068961624
0.00068275706
0.00067579775
0.00066873784
0.00066157724
0.00065431569
0.0006469531
0.00063948884
0.00063192219
0.00062425177
0.00061647629
0.00060859414
0.00060060429
0.00059250569
0.00058429814
0.0005759813
0.00056755539
0.00055902004
0.00055037521
0.00054162008
0.00053275434
0.00052377721
0.00051468886
0.00050548923
0.00049617947
0.00048676032
0.00047723361
0.00046760034
0.00045786242
0.00044802078
0.0004380775
0.00042803384
0.00041789278
0.00040765675
0.00039733039
0.00038691783
0.00037642551
0.000365859
0.00035522614
0.00034453344
0.00033378991
0.00032300307
0.00031218355
0.00030134066
0.00029048761
0.00027963645
0.00026880383
0.00025800494
0.00024725993
0.00023658687
0.00022600895
0.00021554668
0.00020522584
0.0001950687
0.00018510249
0.00017534999
0.00016583869
0.0001565918
0.00014763846
0.00013900606
0.00013072965
0.00012284451
0.00011539087
0.00010840698
0.00010192759
9.5981872e-05
9.0586799e-05
8.5756096e-05
8.1487259e-05
7.7783469e-05
7.4628523e-05
7.2020809e-05
6.9931075e-05
6.8349084e-05
6.7224502e-05
6.6528685e-05
6.6182877e-05
6.6134307e-05
6.6277182e-05
6.6537366e-05
6.679439e-05
6.6965622e-05
6.6942152e-05
6.6660005e-05
6.6062133e-05
6.5136241e-05
6.3908958e-05
6.2427746e-05
6.0789027e-05
5.9057565e-05
5.7333701e-05
5.5637736e-05
5.4011875e-05
5.2414738e-05
5.0823587e-05
4.9182124e-05
4.7450829e-05
4.561861e-05
4.3668466e-05
4.1624216e-05
3.9485622e-05
3.7258167e-05
3.4965242e-05
3.2580489e-05
3.0168326e-05
2.768305e-05
2.5207967e-05
2.268348e-05
2.0194333e-05
1.7659175e-05
1.5209946e-05
1.2705088e-05
1.0385844e-05
8.0091246e-06
5.9339848e-06
3.8247632e-06
2.16193e-06
4.8005424e-07
0.012733541
0.012162384
0.010827317
0.0090223154
0.0071755052
0.0055119132
0.0040637986
0.0028156755
0.0017846829
0.0010141077
0.00053012759
0.0003104119
0.00028626034
0.00037151034
0.00049437934
0.00061262182
0.00070798788
0.00077645904
0.00082106518
0.00084752665
0.00086175674
0.00086863652
0.00087165174
0.00087301253
0.00087395769
0.00087506828
0.0008765289
0.00087831436
0.00088029826
0.0008823225
0.00088423818
0.0008859258
0.00088730148
0.00088831491
0.00088894334
0.00088918452
0.00088905022
0.00088856062
0.00088774025
0.00088661489
0.0008852096
0.00088354747
0.00088164904
0.00087953204
0.00087721161
0.00087470044
0.00087200923
0.00086914696
0.00086612137
0.00086293908
0.00085960594
0.00085612713
0.00085250739
0.00084875102
0.00084486207
0.00084084426
0.00083670108
0.00083243571
0.00082805111
0.0008235499
0.00081893455
0.0008142072
0.00080936993
0.00080442459
0.00079937303
0.00079421695
0.00078895803
0.00078359774
0.00077813747
0.00077257826
0.000766921
0.0007611662
0.00075531426
0.00074936534
0.00074331968
0.00073717743
0.00073093893
0.0007246044
0.00071817417
0.00071164823
0.00070502651
0.0006983085
0.00069149369
0.00068458127
0.00067757075
0.00067046152
0.00066325341
0.00065594607
0.00064853933
0.00064103248
0.00063342474
0.00062571464
0.00061790084
0.00060998163
0.00060195592
0.0005938226
0.00058558142
0.00057723198
0.00056877447
0.00056020847
0.00055153391
0.00054274992
0.00053385616
0.00052485177
0.00051573691
0.00050651146
0.00049717657
0.00048773293
0.00047818235
0.00046852578
0.00045876514
0.00044890129
0.00043893631
0.00042887138
0.00041870949
0.00040845301
0.0003981066
0.00038767431
0.00037716263
0.00036657706
0.00035592548
0.00034521433
0.00033445263
0.00032364785
0.00031281063
0.00030195019
0.00029107978
0.00028021137
0.00026936162
0.00025854571
0.00024778381
0.00023709393
0.00022649932
0.00021602045
0.00020568314
0.00019550959
0.0001855271
0.0001757584
0.000166231
0.00015696808
0.00014799873
0.00013935036
0.00013105796
0.00012315693
0.00011568748
0.00010868807
0.00010219339
9.6232894e-05
9.0823346e-05
8.5978786e-05
8.1696353e-05
7.7979624e-05
7.4811978e-05
7.2192322e-05
7.0090994e-05
6.8498343e-05
6.7363625e-05
6.6658733e-05
6.6304517e-05
6.6248579e-05
6.6384818e-05
6.6639209e-05
6.6891129e-05
6.7057701e-05
6.7030061e-05
6.6743603e-05
6.6141645e-05
6.5210997e-05
6.3979104e-05
6.2492522e-05
6.0848878e-05
5.9112194e-05
5.7383909e-05
5.5683838e-05
5.4054585e-05
5.2454747e-05
5.086093e-05
4.9217448e-05
4.7483448e-05
4.5649106e-05
4.3696286e-05
4.1649895e-05
3.9509243e-05
3.7279719e-05
3.4985176e-05
3.259832e-05
3.0184559e-05
2.7697512e-05
2.5220884e-05
2.2695159e-05
2.0204712e-05
1.7668285e-05
1.5218173e-05
1.2711584e-05
1.0391877e-05
8.013288e-06
5.9377599e-06
3.82679e-06
2.1636777e-06
4.8035321e-07
0.011800214
0.011312255
0.010257612
0.0087648688
0.0071322532
0.0056018985
0.0042646718
0.0031244297
0.0021786001
0.0014456069
0.00094561707
0.00067109503
0.00057712224
0.00059744927
0.00066955808
0.00075077588
0.000819505
0.0008688177
0.00089967283
0.00091623378
0.00092319077
0.00092449454
0.0009229714
0.00092040413
0.00091778574
0.00091558086
0.00091393664
0.00091282672
0.00091213443
0.00091170716
0.00091139272
0.00091106062
0.00091061126
0.00090997643
0.00090911522
0.00090800796
0.0009066502
0.00090504755
0.00090321158
0.00090115672
0.00089889826
0.00089645087
0.00089382789
0.00089104088
0.00088809961
0.00088501216
0.00088178517
0.00087842404
0.00087493329
0.00087131671
0.00086757768
0.00086371912
0.00085974372
0.00085565391
0.00085145202
0.00084714022
0.00084272059
0.00083819502
0.00083356528
0.00082883295
0.00082399947
0.00081906611
0.00081403411
0.00080890457
0.00080367864
0.00079835736
0.00079294181
0.00078743291
0.00078183153
0.00077613824
0.00077035351
0.00076447743
0.00075851005
0.00075245116
0.00074630071
0.00074005851
0.00073372463
0.00072729902
0.00072078176
0.0007141726
0.00070747128
0.00070067707
0.0006937893
0.00068680699
0.00067972946
0.00067255597
0.0006652862
0.00065791965
0.00065045603
0.00064289451
0.00063523422
0.00062747356
0.00061961112
0.00061164506
0.00060357424
0.00059539742
0.0005871143
0.00057872437
0.00057022777
0.00056162401
0.00055291297
0.0005440937
0.00053516583
0.00052612843
0.00051698163
0.00050772523
0.00049836036
0.00048888763
0.00047930883
0.00046962484
0.00045983757
0.0004499478
0.00043995759
0.00042986805
0.00041968217
0.00040940225
0.00039903294
0.00038857826
0.00037804468
0.00036743766
0.00035676508
0.00034603333
0.00033525143
0.00032442676
0.00031356997
0.0003026902
0.00029180069
0.00028091334
0.00027004484
0.00025921029
0.00024842991
0.00023772165
0.0002271088
0.00021661177
0.00020625642
0.00019606488
0.00018606448
0.00017627789
0.00016673262
0.00015745183
0.00014846457
0.00013979826
0.00013148783
0.00012356878
0.00011608125
0.00010906395
0.0001025514
9.6573435e-05
9.1146515e-05
8.6285094e-05
8.1985885e-05
7.8252973e-05
7.5069231e-05
7.243421e-05
7.0317723e-05
6.8710849e-05
6.756232e-05
6.6844713e-05
6.6478395e-05
6.641148e-05
6.65375e-05
6.6782666e-05
6.70262e-05
6.7185063e-05
6.7150508e-05
6.6857299e-05
6.6249237e-05
6.5312104e-05
6.4074271e-05
6.2581118e-05
6.0931582e-05
5.9188639e-05
5.7454939e-05
5.5749638e-05
5.4115819e-05
5.2512108e-05
5.0914364e-05
4.9267765e-05
4.7529816e-05
4.5692378e-05
4.3735787e-05
4.1686444e-05
3.9542854e-05
3.7310517e-05
3.5013563e-05
3.2623835e-05
3.0207658e-05
2.7718149e-05
2.5239141e-05
2.2711635e-05
2.0219035e-05
1.7680806e-05
1.5228942e-05
1.2719948e-05
1.0398893e-05
8.0175944e-06
5.9406928e-06
3.8269645e-06
2.1624241e-06
4.7710818e-07
0.011004752
0.010558331
0.0096887976
0.0084565564
0.0070495735
0.0056723905
0.0044429267
0.0033916781
0.0025174027
0.0018245731
0.0013235893
0.0010121814
0.00086250303
0.00082604361
0.00085082347
0.00089636875
0.00093907577
0.00096940869
0.00098633996
0.00099262577
0.00099189478
0.00098726832
0.00098094665
0.00097427516
0.00096797268
0.00096235725
0.00095751328
0.00095339623
0.00094989168
0.00094685306
0.00094412959
0.00094158559
0.00093911095
0.00093662387
0.00093406862
0.00093141064
0.00092863124
0.00092572275
0.00092268464
0.00091952051
0.00091623611
0.00091283774
0.00090933148
0.00090572258
0.00090201533
0.00089821297
0.00089431792
0.00089033183
0.00088625583
0.00088209071
0.00087783709
0.00087349539
0.00086906602
0.0008645493
0.00085994563
0.00085525538
0.00085047899
0.00084561685
0.00084066934
0.00083563676
0.0008305194
0.00082531745
0.00082003115
0.00081466069
0.00080920636
0.00080366842
0.0007980472
0.00079234294
0.00078655588
0.00078068598
0.00077473319
0.00076869712
0.00076257737
0.00075637332
0.0007500845
0.00074371036
0.00073725061
0.00073070483
0.0007240728
0.00071735397
0.00071054779
0.00070365331
0.00069666963
0.00068959555
0.0006824302
0.00067517262
0.00066782231
0.00066037856
0.00065284094
0.00064520841
0.00063747998
0.00062965394
0.00062172875
0.00061370245
0.00060557379
0.0005973414
0.00058900487
0.00058056355
0.00057201751
0.00056336612
0.00055460923
0.00054574578
0.00053677539
0.00052769703
0.00051851079
0.00050921638
0.00049981487
0.00049030679
0.00048069386
0.00047097687
0.0004611577
0.00045123703
0.00044121689
0.00043109834
0.00042088433
0.00041057708
0.00040018128
0.00038970082
0.00037914221
0.00036851082
0.00035781454
0.00034705966
0.00033625522
0.00032540848
0.00031453008
0.00030362905
0.00029271865
0.00028181065
0.00027092178
0.00026006702
0.00024926664
0.00023853852
0.00022790598
0.00021738934
0.00020701446
0.0001968034
0.00018678347
0.00017697726
0.00016741229
0.00015811165
0.00014910441
0.00014041796
0.00013208716
0.00012414756
0.00011663917
0.00010960086
0.00010306696
9.7067639e-05
9.1619049e-05
8.6736127e-05
8.2415149e-05
7.8660806e-05
7.5455416e-05
7.2799266e-05
7.0661562e-05
6.9034211e-05
6.7865353e-05
6.7128385e-05
6.6743158e-05
6.6658473e-05
6.6767515e-05
6.699693e-05
6.7225867e-05
6.7371327e-05
6.7324818e-05
6.7020599e-05
6.640305e-05
6.5456838e-05
6.4211209e-05
6.2710035e-05
6.1053427e-05
5.9302915e-05
5.7562323e-05
5.5849949e-05
5.4209496e-05
5.2599679e-05
5.0995734e-05
4.9343892e-05
4.7599934e-05
4.5757651e-05
4.3795596e-05
4.1741906e-05
3.9593976e-05
3.735759e-05
3.5056922e-05
3.2663102e-05
3.0243213e-05
2.7750109e-05
2.5267441e-05
2.273718e-05
2.0241133e-05
1.7700193e-05
1.5245231e-05
1.2732839e-05
1.040903e-05
8.0238284e-06
5.9440296e-06
3.826071e-06
2.1582936e-06
4.6992063e-07
0.010309915
0.0098941985
0.0091571492
0.0081326529
0.006935147
0.0057173051
0.0045965242
0.0036242896
0.002810544
0.0021559356
0.0016629934
0.0013292867
0.0011371891
0.0010525166
0.0010339769
0.0010454116
0.0010628532
0.0010747018
0.0010779516
0.0010739292
0.0010652779
0.0010544066
0.0010429829
0.0010319638
0.0010218045
0.0010126636
0.0010045422
0.00099735965
0.00099099173
0.00098529176
0.00098010845
0.00097530082
0.00097074854
0.00096635633
0.00096205352
0.0009577905
0.00095353425
0.00094926375
0.00094496637
0.00094063488
0.00093626547
0.00093185613
0.00092740573
0.00092291329
0.00091837774
0.00091379768
0.00090917148
0.0009044972
0.00089977286
0.00089499638
0.00089016582
0.00088527927
0.00088033498
0.00087533132
0.00087026688
0.00086514033
0.00085995057
0.00085469654
0.00084937731
0.00084399192
0.00083853954
0.0008330193
0.00082743047
0.00082177231
0.00081604427
0.00081024576
0.00080437639
0.00079843566
0.00079242315
0.00078633823
0.00078018027
0.00077394837
0.00076764166
0.00076125907
0.00075479973
0.00074826265
0.00074164715
0.00073495243
0.00072817791
0.00072132266
0.0007143859
0.00070736635
0.0007002629
0.00069307409
0.00068579887
0.00067843602
0.00067098484
0.00066344436
0.00065581396
0.0006480924
0.00064027856
0.00063237054
0.00062436671
0.00061626499
0.00060806399
0.00059976219
0.00059135904
0.00058285371
0.00057424615
0.00056553562
0.00055672186
0.00054780375
0.00053878087
0.00052965211
0.00052041751
0.00051107669
0.00050163063
0.00049207974
0.00048242566
0.00047266905
0.00046281173
0.00045285427
0.00044279868
0.00043264593
0.00042239895
0.0004120599
0.00040163343
0.00039112338
0.00038053624
0.00036987727
0.00035915436
0.00034837369
0.00033754428
0.00032667327
0.00031577128
0.00030484719
0.00029391425
0.00028298409
0.00027207345
0.0002611972
0.00025037562
0.00023962648
0.00022897314
0.00021843576
0.00020804021
0.00019780838
0.00018776757
0.00017794021
0.00016835384
0.00015903148
0.00015000218
0.00014129333
0.00013293966
0.00012497671
0.00011744422
0.00011038114
0.00010382149
9.7795718e-05
9.2319682e-05
8.7408849e-05
8.3059106e-05
7.9275824e-05
7.6040778e-05
7.3355027e-05
7.118714e-05
6.9529898e-05
6.8330836e-05
6.756429e-05
6.7149646e-05
6.7036596e-05
6.7118097e-05
6.7321504e-05
6.7526093e-05
6.7649221e-05
6.7582877e-05
6.7261055e-05
6.6628812e-05
6.566964e-05
6.4413484e-05
6.2902269e-05
6.1236935e-05
5.9477015e-05
5.7727358e-05
5.6005112e-05
5.4354835e-05
5.2735358e-05
5.1121675e-05
4.9461169e-05
4.770808e-05
4.5858173e-05
4.3888145e-05
4.182791e-05
3.9673531e-05
3.7431166e-05
3.5124809e-05
3.2725048e-05
3.0299521e-05
2.7801088e-05
2.5312892e-05
2.2778328e-05
2.0276965e-05
1.7731898e-05
1.5271889e-05
1.2754667e-05
1.0426051e-05
8.0352993e-06
5.9503916e-06
3.8261811e-06
2.1524137e-06
4.5920544e-07
0.0096974408
0.0093101654
0.0086742279
0.007813072
0.0067966217
0.0057322313
0.0047211008
0.0038245149
0.0030648365
0.0024455605
0.0019654886
0.0016203751
0.0013977365
0.0012736927
0.0012167282
0.0011962232
0.0011893823
0.0011833428
0.0011732832
0.0011590643
0.0011423578
0.001124951
0.0011080872
0.0010924127
0.0010781551
0.0010653156
0.0010537972
0.0010434658
0.0010341726
0.0010257615
0.0010180757
0.001010967
0.0010043037
0.00099797634
0.00099189859
0.00098600518
0.0009802482
0.00097459299
0.00096901454
0.00096349465
0.00095801976
0.00095257939
0.00094716501
0.00094176928
0.0009363856
0.00093100779
0.00092563007
0.00092024689
0.00091485301
0.00090944351
0.00090401383
0.0008985597
0.00089307729
0.00088756299
0.00088201362
0.00087642622
0.00087079818
0.00086512703
0.00085941059
0.00085364672
0.00084783352
0.00084196909
0.00083605179
0.00083008001
0.00082405239
0.00081796758
0.00081182448
0.00080562188
0.00079935876
0.0007930339
0.00078664616
0.00078019413
0.00077367652
0.00076709183
0.00076043879
0.00075371602
0.00074692249
0.00074005698
0.00073311856
0.000726106
0.00071901818
0.00071185358
0.00070461087
0.00069728835
0.00068988477
0.00068239866
0.00067482912
0.00066717493
0.00065943526
0.00065160867
0.00064369388
0.00063568887
0.00062759192
0.0006194008
0.00061111402
0.00060272989
0.0005942477
0.00058566644
0.0005769859
0.00056820516
0.00055932394
0.000550341
0.00054125589
0.00053206745
0.00052277571
0.00051338015
0.00050388171
0.0004942806
0.00048457841
0.00047477563
0.00046487399
0.00045487394
0.00044477748
0.00043458545
0.00042430079
0.00041392557
0.00040346446
0.00039292117
0.00038230222
0.00037161272
0.00036086057
0.00035005181
0.00033919543
0.00032829841
0.00031737134
0.00030642291
0.00029546636
0.00028451314
0.00027357999
0.00026268159
0.00025183827
0.00024106763
0.00023039306
0.00021983452
0.00020941785
0.00019916468
0.00018910225
0.00017925282
0.00016964387
0.00016029835
0.00015124532
0.00014251209
0.00013413326
0.0001261442
0.00011858428
0.00011149232
0.00010490195
9.8843775e-05
9.3333381e-05
8.838678e-05
8.3999568e-05
8.017784e-05
7.6902891e-05
7.4176547e-05
7.1966754e-05
7.0267168e-05
6.9024765e-05
6.821491e-05
6.7756672e-05
6.7600841e-05
6.7640396e-05
6.7803722e-05
6.7970557e-05
6.8059009e-05
6.7961901e-05
6.7613257e-05
6.6958982e-05
6.5981306e-05
6.4710655e-05
6.3186428e-05
6.1509937e-05
5.9737971e-05
5.7976202e-05
5.6240169e-05
5.4575658e-05
5.2941523e-05
5.1313191e-05
4.9639142e-05
4.7872585e-05
4.6011057e-05
4.4029565e-05
4.1959591e-05
3.979579e-05
3.7544654e-05
3.5229827e-05
3.2821492e-05
3.0387652e-05
2.7881418e-05
2.5385128e-05
2.2844014e-05
2.0334795e-05
1.778356e-05
1.531587e-05
1.279184e-05
1.0455642e-05
8.057142e-06
5.9641329e-06
3.8310279e-06
2.147367e-06
4.4659655e-07
0.0091549206
0.008795247
0.008240221
0.0075073268
0.0066416619
0.0057170491
0.0048138194
0.0039926527
0.0032845354
0.0026985875
0.0022338007
0.0018848503
0.0016415781
0.001486777
0.0013970001
0.0013474474
0.0013176424
0.0012943854
0.0012714232
0.0012472079
0.0012224334
0.0011983091
0.0011757375
0.0011551342
0.0011365478
0.0011198376
0.001104802
0.0010912384
0.0010789589
0.0010677872
0.0010575551
0.0010481042
0.0010392911
0.001030992
0.0010231047
0.0010155483
0.0010082598
0.0010011909
0.00099430424
0.00098757064
0.00098096687
0.00097447389
0.00096807574
0.00096175854
0.00095551003
0.00094931908
0.0009431756
0.00093707022
0.00093099437
0.00092494007
0.00091890005
0.00091286759
0.00090683662
0.00090080151
0.00089475722
0.00088869908
0.00088262294
0.00087652487
0.00087040138
0.00086424911
0.00085806507
0.00085184633
0.00084559032
0.00083929454
0.00083295682
0.00082657504
0.00082014735
0.00081367191
0.00080714705
0.00080057099
0.00079394206
0.00078725839
0.00078051825
0.00077371974
0.00076686122
0.00075994094
0.0007529575
0.00074590932
0.00073879515
0.00073161339
0.00072436271
0.00071704131
0.00070964765
0.00070217983
0.00069463639
0.00068701566
0.00067931651
0.00067153752
0.00066367764
0.00065573523
0.00064770891
0.0006395965
0.00063139626
0.00062310582
0.00061472362
0.0006062478
0.00059767751
0.00058901153
0.00058024951
0.00057139036
0.0005624337
0.00055337823
0.0005442235
0.00053496828
0.0005256126
0.00051615584
0.00050659889
0.00049694182
0.0004871861
0.00047733206
0.00046738137
0.00045733435
0.00044719294
0.00043695787
0.00042663211
0.0004162176
0.00040571904
0.00039514003
0.00038448709
0.00037376521
0.00036298229
0.00035214422
0.00034125999
0.00033033636
0.00031938389
0.00030841105
0.00029743103
0.00028645506
0.00027549984
0.00026457985
0.00025371544
0.00024292403
0.00023222899
0.00022165004
0.00021121295
0.00020093906
0.00019085546
0.00018098414
0.00017135255
0.00016198348
0.00015290601
0.00014414732
0.0001357418
0.00012772453
0.00012013436
0.00011300978
0.00010638386
0.00010028727
9.4735311e-05
8.9744511e-05
8.5310311e-05
8.1439522e-05
7.8113086e-05
7.5333528e-05
7.3068256e-05
7.1311722e-05
7.0010482e-05
6.9140952e-05
6.8622142e-05
6.8406112e-05
6.8386256e-05
6.8492295e-05
6.8604937e-05
6.8643425e-05
6.8501946e-05
6.8114827e-05
6.7429122e-05
6.6425635e-05
6.5135121e-05
6.3593718e-05
6.1902662e-05
6.0115034e-05
5.8337166e-05
5.658232e-05
5.4898029e-05
5.3242892e-05
5.1593723e-05
4.9899852e-05
4.8114288e-05
4.6235903e-05
4.4238427e-05
4.2154473e-05
3.997736e-05
3.7713732e-05
3.5386789e-05
3.2966393e-05
3.0520762e-05
2.800345e-05
2.5495766e-05
2.2945094e-05
2.0424785e-05
1.7864649e-05
1.5385947e-05
1.285251e-05
1.0505236e-05
8.0961801e-06
5.9912916e-06
3.8460017e-06
2.1472959e-06
4.3511925e-07
0.0086721257
0.0083388881
0.0078502284
0.0072194358
0.0064776327
0.005675844
0.0048751552
0.0041293153
0.0034725777
0.0029193657
0.0024712836
0.0021235304
0.0018673317
0.0016895962
0.0015728927
0.0014977798
0.0014467219
0.0014070397
0.0013715987
0.0013376377
0.0013048959
0.0012740109
0.001245586
0.0012198667
0.001196773
0.0011760488
0.0011573922
0.0011405239
0.0011252045
0.0011112273
0.0010984064
0.0010865709
0.001075565
0.0010652513
0.0010555125
0.0010462523
0.001037393
0.0010288728
0.0010206422
0.0010126612
0.001004897
0.00099732199
0.00098991281
0.00098264899
0.00097551247
0.00096848706
0.00096155819
0.00095471258
0.00094793813
0.0009412237
0.00093455921
0.00092793534
0.00092134372
0.00091477659
0.00090822698
0.00090168842
0.00089515513
0.00088862168
0.0008820832
0.00087553507
0.00086897312
0.00086239337
0.00085579225
0.00084916635
0.00084251264
0.00083582819
0.00082911041
0.00082235672
0.00081556485
0.00080873239
0.00080185715
0.00079493673
0.000787969
0.00078095159
0.00077388253
0.00076675964
0.00075958119
0.00075234521
0.00074505013
0.00073769403
0.00073027529
0.00072279186
0.00071524202
0.00070762364
0.00069993508
0.00069217444
0.00068434041
0.0006764313
0.00066844592
0.0006603824
0.00065223926
0.00064401421
0.00063570546
0.00062731056
0.0006188279
0.00061025545
0.00060159225
0.00059283687
0.00058398883
0.00057504687
0.00056601054
0.00055687843
0.00054765011
0.00053832428
0.00052890101
0.00051937957
0.00050976083
0.00050004469
0.00049023258
0.00048032465
0.00047032255
0.00046022644
0.00045003826
0.0004397586
0.00042939044
0.00041893561
0.00040839882
0.00039778355
0.00038709632
0.000376342
0.00036552851
0.0003546616
0.00034375025
0.00033280106
0.0003218245
0.00031082884
0.00029982717
0.00028883046
0.00027785533
0.00026691601
0.00025603282
0.00024522296
0.00023450978
0.00022391275
0.0002134575
0.00020316502
0.00019306226
0.00018317084
0.00017351811
0.00016412666
0.00015502555
0.00014624175
0.00013780938
0.00012976304
0.00012214096
0.00011498104
0.00010831571
0.00010217547
9.6575395e-05
9.1532441e-05
8.7042051e-05
8.3111683e-05
7.9722096e-05
7.687638e-05
7.4541562e-05
7.2712734e-05
7.1336264e-05
7.0389547e-05
6.9791923e-05
6.9496788e-05
6.9398509e-05
6.9428341e-05
6.9468662e-05
6.9440116e-05
6.9238998e-05
6.8800075e-05
6.8072067e-05
6.7034032e-05
6.5717087e-05
6.4153188e-05
6.2443208e-05
6.0635341e-05
5.8836555e-05
5.7056954e-05
5.5346481e-05
5.3663004e-05
5.1985864e-05
5.0264825e-05
4.8453736e-05
4.6552222e-05
4.4533339e-05
4.243025e-05
4.0235124e-05
3.7954463e-05
3.5610987e-05
3.317425e-05
3.0712605e-05
2.8180165e-05
2.5657104e-05
2.3093137e-05
2.055788e-05
1.7985444e-05
1.5491787e-05
1.2945729e-05
1.0583266e-05
8.160248e-06
6.0390093e-06
3.8776691e-06
2.1575844e-06
4.2907638e-07
0.0082402873
0.0079319227
0.0074986401
0.0069507236
0.0063107141
0.0056147034
0.004908328
0.0042360902
0.0036311137
0.0031111227
0.0026810467
0.0023379656
0.0020746054
0.0018805758
0.0017426518
0.0016458259
0.0015756218
0.0015205166
0.0014730889
0.0014296805
0.0013891651
0.0013516086
0.0013173189
0.0012864026
0.0012586932
0.001233852
0.0012114925
0.0011912593
0.0011728549
0.0011560336
0.001140586
0.0011263259
0.0011130851
0.001100713
0.0010890787
0.0010780713
0.0010675991
0.0010575868
0.0010479732
0.0010387075
0.0010297473
0.0010210569
0.0010126052
0.0010043653
0.00099631319
0.00098842752
0.00098068917
0.00097308078
0.00096558666
0.00095819241
0.00095088501
0.00094365251
0.00093648411
0.00092936989
0.00092230086
0.0009152687
0.00090826594
0.00090128559
0.00089432136
0.0008873673
0.00088041806
0.0008734685
0.00086651407
0.00085955036
0.00085257348
0.00084557963
0.00083856547
0.00083152765
0.00082446325
0.0008173692
0.00081024279
0.00080308106
0.00079588141
0.00078864103
0.00078135754
0.00077402836
0.00076665139
0.00075922427
0.00075174509
0.00074421157
0.00073662184
0.00072897357
0.00072126484
0.00071349326
0.00070565703
0.00069775399
0.00068978266
0.00068174109
0.0006736279
0.00066544103
0.00065717888
0.00064883903
0.00064041967
0.00063191825
0.00062333311
0.0006146621
0.00060590415
0.00059705763
0.00058812196
0.00057909567
0.00056997828
0.00056076825
0.00055146518
0.00054206769
0.00053257586
0.00052298887
0.00051330756
0.0005035317
0.00049366267
0.00048370049
0.00047364679
0.0004635016
0.00045326689
0.00044294313
0.00043253331
0.00042203913