/*--------------------------------*- C++ -*----------------------------------*\
| =========                 |                                                 |
| \\      /  F ield         | OpenFOAM: The Open Source CFD Toolbox           |
|  \\    /   O peration     | Version:  5.x                                   |
|   \\  /    A nd           | Web:      www.OpenFOAM.org                      |
|    \\/     M anipulation  |                                                 |
\*---------------------------------------------------------------------------*/
FoamFile
{
    version     2.0;
    format      ascii;
    class       surfaceScalarField;
    location    "0.3";
    object      phi;
}
// * * * * * * * * * * * * * * * * * * * * * * * * * * * * * * * * * * * * * //

dimensions      [0 3 -1 0 0 0 0];

internalField   nonuniform List<scalar> 
42870
(
3.6473322e-08
3.007466e-09
-3.9480788e-08
3.2665953e-08
3.8073693e-09
2.8875444e-08
3.7905085e-09
2.5279327e-08
3.5961173e-09
2.1874211e-08
3.4051159e-09
1.8727652e-08
3.1465586e-09
1.5965277e-08
2.7623757e-09
1.368023e-08
2.2850467e-09
1.1891379e-08
1.788851e-09
1.0565481e-08
1.3258977e-09
9.6167032e-09
9.4877811e-10
8.9460117e-09
6.7069148e-10
8.466278e-09
4.7973372e-10
8.1105391e-09
3.557389e-10
7.8312781e-09
2.79261e-10
7.5954433e-09
2.3583481e-10
7.3826895e-09
2.1275383e-10
7.1825437e-09
2.0014581e-10
6.9907634e-09
1.9178025e-10
6.8063649e-09
1.8439854e-10
6.6297144e-09
1.7665045e-10
6.4614749e-09
1.6823954e-10
6.3021185e-09
1.5935644e-10
6.1517737e-09
1.5034475e-10
6.0102425e-09
1.4153121e-10
5.8770869e-09
1.3315559e-10
5.7517268e-09
1.2536013e-10
5.6335184e-09
1.1820838e-10
5.5218154e-09
1.1170294e-10
5.4160079e-09
1.0580758e-10
5.3155411e-09
1.004668e-10
5.2199223e-09
9.5618792e-11
5.1287193e-09
9.1202973e-11
5.0415555e-09
8.7163795e-11
4.9581031e-09
8.3452344e-11
4.8780765e-09
8.0026683e-11
4.8012251e-09
7.6851408e-11
4.7273281e-09
7.3896964e-11
4.6561894e-09
7.1138733e-11
4.5876331e-09
6.855625e-11
4.5215008e-09
6.6132356e-11
4.4576482e-09
6.3852598e-11
4.3959436e-09
6.1704603e-11
4.3362659e-09
5.9677699e-11
4.2785034e-09
5.7762483e-11
4.2225527e-09
5.5950643e-11
4.1683181e-09
5.4234654e-11
4.1157103e-09
5.2607738e-11
4.0646467e-09
5.1063638e-11
4.01505e-09
4.9596675e-11
3.9668484e-09
4.8201585e-11
3.9199749e-09
4.6873568e-11
3.8743667e-09
4.5608128e-11
3.8299656e-09
4.4401176e-11
3.7867167e-09
4.3248882e-11
3.7445689e-09
4.2147784e-11
3.7034743e-09
4.1094615e-11
3.6633878e-09
4.0086459e-11
3.6242673e-09
3.9120539e-11
3.5860729e-09
3.8194387e-11
3.5487673e-09
3.730563e-11
3.5123151e-09
3.6452161e-11
3.4766832e-09
3.5631919e-11
3.4418401e-09
3.4843091e-11
3.4077562e-09
3.4083867e-11
3.3744035e-09
3.3352685e-11
3.3417556e-09
3.2647955e-11
3.3097872e-09
3.1968346e-11
3.2784748e-09
3.1312484e-11
3.2477955e-09
3.0679247e-11
3.2177281e-09
3.0067438e-11
3.188252e-09
2.9476114e-11
3.1593478e-09
2.8904193e-11
3.1309969e-09
2.8350837e-11
3.1031819e-09
2.7815025e-11
3.0758859e-09
2.7295998e-11
3.0490931e-09
2.6792803e-11
3.0227883e-09
2.6304783e-11
2.9969572e-09
2.5831089e-11
2.971586e-09
2.5371209e-11
2.9466616e-09
2.4924405e-11
2.9221713e-09
2.4490275e-11
2.8981032e-09
2.4068121e-11
2.8744457e-09
2.3657571e-11
2.8511878e-09
2.3257901e-11
2.828319e-09
2.2868748e-11
2.8058296e-09
2.2489385e-11
2.7837101e-09
2.2119528e-11
2.7619516e-09
2.1758533e-11
2.7405453e-09
2.140626e-11
2.7194831e-09
2.1062156e-11
2.698757e-09
2.072617e-11
2.6783592e-09
2.0397728e-11
2.6582825e-09
2.0076754e-11
2.6385199e-09
1.9762565e-11
2.6190649e-09
1.9455047e-11
2.5999114e-09
1.9153468e-11
2.5810536e-09
1.8857786e-11
2.5624863e-09
1.8567331e-11
2.5442041e-09
1.8282214e-11
2.5262022e-09
1.8001831e-11
2.5084758e-09
1.7726387e-11
2.4910206e-09
1.7455231e-11
2.4738321e-09
1.7188551e-11
2.4569065e-09
1.6925568e-11
2.44024e-09
1.6666448e-11
2.4238297e-09
1.6410326e-11
2.4076723e-09
1.6157435e-11
2.3917654e-09
1.5906918e-11
2.3761062e-09
1.5659149e-11
2.3606929e-09
1.541329e-11
2.3455231e-09
1.5169838e-11
2.3305952e-09
1.4927901e-11
2.3159072e-09
1.4688023e-11
2.301458e-09
1.4449183e-11
2.287246e-09
1.4211942e-11
2.2732709e-09
1.3975136e-11
2.2595315e-09
1.373939e-11
2.2460281e-09
1.3503447e-11
2.23276e-09
1.3268075e-11
2.219728e-09
1.3031968e-11
2.206932e-09
1.2796069e-11
2.194373e-09
1.255898e-11
2.1820512e-09
1.2321786e-11
2.1699683e-09
1.208293e-11
2.1581246e-09
1.1843621e-11
2.1465225e-09
1.1602099e-11
2.1351628e-09
1.1359707e-11
2.1240484e-09
1.1114487e-11
2.1131804e-09
1.0867993e-11
2.1025622e-09
1.0618116e-11
2.0921956e-09
1.0366669e-11
2.0820842e-09
1.0111358e-11
2.07223e-09
9.8542177e-12
2.0626372e-09
9.5927731e-12
2.0533079e-09
9.3293663e-12
2.0442463e-09
9.0615353e-12
2.0354543e-09
8.7920535e-12
2.0269356e-09
8.518625e-12
2.0186914e-09
8.2442215e-12
2.010725e-09
7.9664253e-12
2.0030374e-09
7.6876197e-12
1.9956324e-09
7.4050092e-12
1.9885123e-09
7.1200864e-12
1.9816816e-09
6.830643e-12
1.9751437e-09
6.5378954e-12
1.9689019e-09
6.2418176e-12
1.9629584e-09
5.9435317e-12
1.9573125e-09
5.6458606e-12
1.9519642e-09
5.3483428e-12
1.9469081e-09
5.0561359e-12
1.9421428e-09
4.7652845e-12
1.9376594e-09
4.4833803e-12
1.9334571e-09
4.202335e-12
1.9295236e-09
3.9334575e-12
1.9258585e-09
3.6650593e-12
1.9224453e-09
3.4132636e-12
1.9192821e-09
3.163191e-12
1.9163467e-09
2.9354263e-12
1.9136345e-09
2.7121895e-12
1.9111175e-09
2.5169847e-12
1.9087874e-09
2.33006e-12
1.906612e-09
2.1753784e-12
1.9045794e-09
2.032678e-12
1.9026571e-09
1.9222945e-12
1.9008325e-09
1.8245966e-12
1.8990814e-09
1.7510626e-12
1.8973965e-09
1.6848908e-12
1.8957708e-09
1.6257413e-12
1.8942057e-09
1.565078e-12
1.8927125e-09
1.4931811e-12
1.8912959e-09
1.4166235e-12
1.8899743e-09
1.3216127e-12
1.8887447e-09
1.2295931e-12
1.8876186e-09
1.1260677e-12
1.8865821e-09
1.0365442e-12
1.8856336e-09
9.4851662e-13
1.8847575e-09
8.7604233e-13
1.8839444e-09
8.1316558e-13
1.8831896e-09
7.5479287e-13
1.8824818e-09
7.0773477e-13
1.8818264e-09
6.5546196e-13
1.8812124e-09
6.1393121e-13
1.8806428e-09
5.6966901e-13
1.880113e-09
5.2977634e-13
1.8796158e-09
4.9713727e-13
1.8791589e-09
4.5692082e-13
1.8787253e-09
4.3362229e-13
1.8783299e-09
3.9536926e-13
1.8779502e-09
3.797317e-13
1.8776027e-09
3.4751543e-13
1.8772588e-09
3.4385515e-13
1.8769453e-09
3.1353234e-13
1.8766148e-09
3.3046996e-13
1.8763211e-09
2.9369665e-13
1.8759827e-09
3.3846109e-13
1.8756853e-09
2.973282e-13
1.8753144e-09
3.7095296e-13
1.8749837e-09
3.3065071e-13
4.2231604e-13
4.2100218e-08
2.7422562e-09
-4.1835009e-08
4.1938118e-08
3.9694699e-09
4.1252741e-08
4.4758852e-09
4.0290572e-08
4.558286e-09
3.9150631e-08
4.5450578e-09
3.7828416e-08
4.4687729e-09
3.6341423e-08
4.2493695e-09
3.4750429e-08
3.8760398e-09
3.3141394e-08
3.3978862e-09
3.1583767e-08
2.8835248e-09
3.012434e-08
2.4082053e-09
2.8781421e-08
2.0136103e-09
2.7555079e-08
1.7060759e-09
2.6438769e-08
1.4720487e-09
2.5429008e-08
1.2890222e-09
2.4515073e-08
1.1497695e-09
2.3685151e-08
1.0426753e-09
2.2928085e-08
9.5721247e-10
2.2234066e-08
8.8579944e-10
2.1594787e-08
8.2367697e-10
2.1003353e-08
7.6808477e-10
2.0454085e-08
7.175077e-10
1.9942281e-08
6.7116012e-10
1.9463982e-08
6.286435e-10
1.9015785e-08
5.8972826e-10
1.8594721e-08
5.5421993e-10
1.8198171e-08
5.2190976e-10
1.7823808e-08
4.9257202e-10
1.746956e-08
4.6595083e-10
1.7133591e-08
4.4177601e-10
1.6814277e-08
4.1978067e-10
1.6510183e-08
3.9971343e-10
1.622004e-08
3.813453e-10
1.5942732e-08
3.6447271e-10
1.5677266e-08
3.4891774e-10
1.5422766e-08
3.3452688e-10
1.5178449e-08
3.2116871e-10
1.4943614e-08
3.0873123e-10
1.4717634e-08
2.9711904e-10
1.4499939e-08
2.8625081e-10
1.4290015e-08
2.7605674e-10
1.4087391e-08
2.6647668e-10
1.3891637e-08
2.574582e-10
1.370236e-08
2.4895538e-10
1.3519195e-08
2.4092745e-10
1.3341807e-08
2.3333809e-10
1.3169887e-08
2.2615451e-10
1.3003148e-08
2.1934714e-10
1.2841323e-08
2.1288892e-10
1.2684164e-08
2.067553e-10
1.2531442e-08
2.0092375e-10
1.2382942e-08
1.953737e-10
1.2238464e-08
1.9008615e-10
1.2097821e-08
1.8504374e-10
1.196084e-08
1.8023042e-10
1.1827356e-08
1.7563157e-10
1.1697217e-08
1.7123356e-10
1.1570279e-08
1.6702407e-10
1.1446408e-08
1.6299152e-10
1.1325477e-08
1.5912547e-10
1.1207367e-08
1.5541602e-10
1.1091965e-08
1.5185422e-10
1.0979165e-08
1.4843153e-10
1.0868868e-08
1.4514024e-10
1.0760979e-08
1.4197291e-10
1.0655409e-08
1.389229e-10
1.0552073e-08
1.3598373e-10
1.0450892e-08
1.3314971e-10
1.0351789e-08
1.3041524e-10
1.0254693e-08
1.2777544e-10
1.0159535e-08
1.2522539e-10
1.006625e-08
1.2276092e-10
9.9747766e-09
1.2037759e-10
9.8850558e-09
1.1807168e-10
9.7970317e-09
1.1583912e-10
9.7106511e-09
1.1367658e-10
9.6258635e-09
1.1158035e-10
9.5426208e-09
1.0954754e-10
9.460877e-09
1.0757487e-10
9.3805882e-09
1.0565995e-10
9.3017127e-09
1.037999e-10
9.2242104e-09
1.0199265e-10
9.148043e-09
1.002355e-10
9.073174e-09
9.8526545e-11
8.9995688e-09
9.6863102e-11
8.9271942e-09
9.5243396e-11
8.8560187e-09
9.3664874e-11
8.7860121e-09
9.2126071e-11
8.7171459e-09
9.0624744e-11
8.6493923e-09
8.9159845e-11
8.5827251e-09
8.7729376e-11
8.5171188e-09
8.6332499e-11
8.4525494e-09
8.496715e-11
8.3889937e-09
8.3632431e-11
8.3264302e-09
8.2326054e-11
8.2648381e-09
8.10471e-11
8.2041983e-09
7.9793261e-11
8.1444922e-09
7.8563894e-11
8.0857026e-09
7.7356927e-11
8.0278127e-09
7.617212e-11
7.970807e-09
7.5007564e-11
7.9146702e-09
7.3863205e-11
7.8593884e-09
7.273698e-11
7.8049482e-09
7.1628755e-11
7.7513376e-09
7.053615e-11
7.6985451e-09
6.9458995e-11
7.6465607e-09
6.8394773e-11
7.5953746e-09
6.734353e-11
7.5449786e-09
6.6302836e-11
7.4953647e-09
6.5273114e-11
7.446526e-09
6.4252001e-11
7.3984556e-09
6.3240195e-11
7.3511483e-09
6.2235178e-11
7.3045986e-09
6.1237722e-11
7.2588029e-09
6.0244975e-11
7.2137571e-09
5.9257728e-11
7.1694594e-09
5.8272794e-11
7.1259077e-09
5.7291118e-11
7.0831018e-09
5.6309334e-11
7.0410411e-09
5.5328738e-11
6.9997272e-09
5.4345859e-11
6.9591609e-09
5.3362388e-11
6.9193453e-09
5.2374635e-11
6.8802825e-09
5.1384599e-11
6.8419772e-09
5.0388218e-11
6.804433e-09
4.9387777e-11
6.7676563e-09
4.8378774e-11
6.7316522e-09
4.7363849e-11
6.6964286e-09
4.6338109e-11
6.6619918e-09
4.5304749e-11
6.6283514e-09
4.4258589e-11
6.5955146e-09
4.3203459e-11
6.5634921e-09
4.2133801e-11
6.5322923e-09
4.1054044e-11
6.5019267e-09
3.9958374e-11
6.4724039e-09
3.885216e-11
6.4437356e-09
3.7729855e-11
6.4159296e-09
3.6598014e-11
6.3889968e-09
3.5451497e-11
6.3629438e-09
3.4297178e-11
6.3377809e-09
3.3129357e-11
6.3135151e-09
3.1953369e-11
6.2901574e-09
3.0762753e-11
6.2677161e-09
2.9561359e-11
6.2462017e-09
2.8345072e-11
6.2256213e-09
2.7118311e-11
6.2059799e-09
2.5883198e-11
6.1872788e-09
2.4644663e-11
6.1695129e-09
2.3411764e-11
6.1526758e-09
2.2185403e-11
6.1367521e-09
2.0979797e-11
6.1217303e-09
1.9787094e-11
6.1075863e-09
1.8627428e-11
6.0943054e-09
1.7483203e-11
6.0818545e-09
1.6384371e-11
6.0702146e-09
1.5304963e-11
6.0593403e-09
1.4287515e-11
6.0492056e-09
1.32979e-11
6.039751e-09
1.2390021e-11
6.0309421e-09
1.1521151e-11
6.0227067e-09
1.0752337e-11
6.0150036e-09
1.0033163e-11
6.007754e-09
9.425007e-12
6.0009151e-09
8.8715481e-12
5.9944139e-09
8.4235283e-12
5.9882179e-09
8.0205844e-12
5.9822781e-09
7.6908341e-12
5.9765855e-09
7.3775326e-12
5.9711284e-09
7.0828693e-12
5.9659211e-09
6.7723174e-12
5.9609822e-09
6.4321039e-12
5.9563288e-09
6.0700157e-12
5.9519826e-09
5.667781e-12
5.9479393e-09
5.2729393e-12
5.9442011e-09
4.8642962e-12
5.9407392e-09
4.4984558e-12
5.937535e-09
4.1526266e-12
5.9345578e-09
3.8532799e-12
5.9317814e-09
3.5895418e-12
5.9291958e-09
3.3404681e-12
5.926774e-09
3.1294362e-12
5.9245251e-09
2.9043715e-12
5.9224198e-09
2.7192239e-12
5.9204691e-09
2.5203984e-12
5.9186479e-09
2.3509718e-12
5.9169579e-09
2.1871246e-12
5.915387e-09
2.0278111e-12
5.9139248e-09
1.8958592e-12
5.9125675e-09
1.7526795e-12
5.9112971e-09
1.6501527e-12
5.9101102e-09
1.5343711e-12
5.9089844e-09
1.4696763e-12
5.9079248e-09
1.3731436e-12
5.9068895e-09
1.3658025e-12
5.9059133e-09
1.2698679e-12
5.904911e-09
1.3407739e-12
5.9039559e-09
1.2523544e-12
5.902923e-09
1.4039275e-12
5.9019034e-09
1.3502017e-12
1.5322359e-12
4.4020887e-08
2.5876138e-09
-4.3866245e-08
4.4402944e-08
3.5874134e-09
4.4603784e-08
4.2750445e-09
4.4654051e-08
4.5080192e-09
4.4620701e-08
4.5784079e-09
4.4500288e-08
4.5891861e-09
4.423854e-08
4.5111171e-09
4.3814584e-08
4.2999955e-09
4.3248707e-08
3.9637637e-09
4.2576278e-08
3.555954e-09
4.1838971e-08
3.1455119e-09
4.1069059e-08
2.7835227e-09
4.028602e-08
2.4891144e-09
3.9502001e-08
2.2560676e-09
3.8722415e-08
2.0686084e-09
3.7954292e-08
1.9178922e-09
3.7201685e-08
1.7952827e-09
3.6466522e-08
1.6923755e-09
3.5749777e-08
1.6025446e-09
3.5052084e-08
1.52137e-09
3.4373946e-08
1.4462226e-09
3.3715783e-08
1.3756713e-09
3.3077922e-08
1.3090204e-09
3.2460577e-08
1.2459887e-09
3.1863809e-08
1.1864961e-09
3.1287523e-08
1.1305064e-09
3.0731468e-08
1.0779645e-09
3.0195242e-08
1.0287978e-09
2.9678322e-08
9.8287131e-10
2.9180089e-08
9.4000921e-10
2.8699857e-08
9.0001269e-10
2.8236896e-08
8.6267438e-10
2.7790452e-08
8.277887e-10
2.7359766e-08
7.9515866e-10
2.6944084e-08
7.6459955e-10
2.654267e-08
7.3594102e-10
2.6154812e-08
7.0902743e-10
2.5779825e-08
6.837177e-10
2.541706e-08
6.5988422e-10
2.5065899e-08
6.3741195e-10
2.4725759e-08
6.1619688e-10
2.439609e-08
5.9614511e-10
2.4076377e-08
5.771714e-10
2.3766134e-08
5.5919841e-10
2.3464906e-08
5.421555e-10
2.3172266e-08
5.2597828e-10
2.2887813e-08
5.1060758e-10
2.2611171e-08
4.9598923e-10
2.2341986e-08
4.8207316e-10
2.2079928e-08
4.6881351e-10
2.1824684e-08
4.561679e-10
2.157596e-08
4.4409734e-10
2.1333481e-08
4.3256568e-10
2.1096985e-08
4.2153964e-10
2.0866227e-08
4.1098835e-10
2.0640975e-08
4.0088342e-10
2.042101e-08
3.9119833e-10
2.0206126e-08
3.8190886e-10
1.9996125e-08
3.729922e-10
1.9790823e-08
3.6442755e-10
1.9590044e-08
3.5619519e-10
1.9393621e-08
3.4827707e-10
1.9201396e-08
3.40656e-10
1.901322e-08
3.3331627e-10
1.882895e-08
3.2624278e-10
1.8648451e-08
3.1942189e-10
1.8471595e-08
3.1284033e-10
1.8298258e-08
3.0648628e-10
1.8128325e-08
3.0034819e-10
1.7961685e-08
2.9441579e-10
1.7798231e-08
2.8867889e-10
1.7637864e-08
2.8312853e-10
1.7480486e-08
2.7775554e-10
1.7326006e-08
2.7255186e-10
1.7174336e-08
2.6750909e-10
1.7025392e-08
2.6262001e-10
1.6879096e-08
2.5787698e-10
1.673537e-08
2.5327368e-10
1.6594141e-08
2.4880334e-10
1.645534e-08
2.4446058e-10
1.6318901e-08
2.402394e-10
1.6184759e-08
2.3613506e-10
1.6052852e-08
2.3214193e-10
1.5923123e-08
2.2825559e-10
1.5795516e-08
2.2447055e-10
1.5669976e-08
2.2078273e-10
1.5546454e-08
2.1718697e-10
1.54249e-08
2.136798e-10
1.5305268e-08
2.1025667e-10
1.5187513e-08
2.0691486e-10
1.5071593e-08
2.0365027e-10
1.4957465e-08
2.0046053e-10
1.484509e-08
1.9734143e-10
1.4734432e-08
1.9429051e-10
1.4625455e-08
1.9130326e-10
1.4518125e-08
1.8837725e-10
1.441241e-08
1.8550806e-10
1.430828e-08
1.8269377e-10
1.4205707e-08
1.7993042e-10
1.4104662e-08
1.772168e-10
1.400512e-08
1.7454919e-10
1.3907057e-08
1.7192662e-10
1.3810449e-08
1.693451e-10
1.3715274e-08
1.6680348e-10
1.3621513e-08
1.6429726e-10
1.3529147e-08
1.6182524e-10
1.3438159e-08
1.5938278e-10
1.3348533e-08
1.5696908e-10
1.3260256e-08
1.5457974e-10
1.3173315e-08
1.5221458e-10
1.3087697e-08
1.4986936e-10
1.3003393e-08
1.4754428e-10
1.2920394e-08
1.4523484e-10
1.283869e-08
1.4294129e-10
1.2758277e-08
1.4065857e-10
1.2679147e-08
1.3838689e-10
1.26013e-08
1.3612067e-10
1.252473e-08
1.3386033e-10
1.244944e-08
1.3160004e-10
1.2375428e-08
1.2934078e-10
1.2302697e-08
1.270766e-10
1.223125e-08
1.2480903e-10
1.2161093e-08
1.2253181e-10
1.2092231e-08
1.2024691e-10
1.2024671e-08
1.1794753e-10
1.1958423e-08
1.1563607e-10
1.1893497e-08
1.1330511e-10
1.1829903e-08
1.109576e-10
1.1767655e-08
1.0858565e-10
1.1706767e-08
1.0619311e-10
1.1647254e-08
1.0377177e-10
1.1589131e-08
1.0132648e-10
1.1532416e-08
9.8848625e-11
1.1477126e-08
9.634409e-11
1.142328e-08
9.3804181e-11
1.1370896e-08
9.1236473e-11
1.1319993e-08
8.8633072e-11
1.1270587e-08
8.6003533e-11
1.1222698e-08
8.3340743e-11
1.1176341e-08
8.0654556e-11
1.1131533e-08
7.793694e-11
1.1088291e-08
7.5195278e-11
1.1046633e-08
7.2420924e-11
1.1006574e-08
6.9619811e-11
1.0968131e-08
6.6788537e-11
1.0931314e-08
6.3935415e-11
1.0896129e-08
6.1068449e-11
1.0862576e-08
5.8197561e-11
1.0830645e-08
5.5342196e-11
1.0800325e-08
5.2505602e-11
1.077159e-08
4.971523e-11
1.0744417e-08
4.6960071e-11
1.0718767e-08
4.4277356e-11
1.0694609e-08
4.1640927e-11
1.0671889e-08
3.9104751e-11
1.0650564e-08
3.6629782e-11
1.063056e-08
3.4290989e-11
1.0611822e-08
3.2035778e-11
1.0594255e-08
2.9957317e-11
1.0577789e-08
2.7987175e-11
1.0562313e-08
2.6228886e-11
1.0547748e-08
2.4597645e-11
1.0533978e-08
2.319506e-11
1.0520929e-08
2.1920529e-11
1.0508497e-08
2.0855238e-11
1.0496633e-08
1.9885046e-11
1.048527e-08
1.9053656e-11
1.0474399e-08
1.8249142e-11
1.0464003e-08
1.7478727e-11
1.0454106e-08
1.6668879e-11
1.0444726e-08
1.5812134e-11
1.0435888e-08
1.4908253e-11
1.0427603e-08
1.3952107e-11
1.0419868e-08
1.3008037e-11
1.0412664e-08
1.2068287e-11
1.0405957e-08
1.1205797e-11
1.0399703e-08
1.0407038e-11
1.0393867e-08
9.688858e-12
1.03884e-08
9.0565042e-12
1.0383295e-08
8.4453896e-12
1.0378502e-08
7.9225551e-12
1.0374039e-08
7.3670137e-12
1.0369852e-08
6.9068676e-12
1.0365965e-08
6.4068376e-12
1.0362324e-08
5.9927332e-12
1.0358949e-08
5.5617022e-12
1.0355792e-08
5.1850183e-12
1.0352868e-08
4.81949e-12
1.035013e-08
4.4908012e-12
1.0347593e-08
4.1876048e-12
1.0345201e-08
3.9260776e-12
1.0342974e-08
3.696882e-12
1.0340856e-08
3.4911073e-12
1.0338855e-08
3.3660459e-12
1.0336937e-08
3.188268e-12
1.0335075e-08
3.2032128e-12
1.0333259e-08
3.068453e-12
1.0331436e-08
3.2261116e-12
1.0329593e-08
3.1938355e-12
3.4126329e-12
4.5946539e-08
2.5148759e-09
-4.5873801e-08
4.625938e-08
3.2745732e-09
4.6593843e-08
3.9405811e-09
4.6844863e-08
4.2569992e-09
4.7059968e-08
4.3633024e-09
4.7264659e-08
4.3844957e-09
4.7425645e-08
4.3501312e-09
4.7502125e-08
4.2235151e-09
4.7474841e-08
3.9910475e-09
4.7347169e-08
3.6836259e-09
4.7138962e-08
3.3537196e-09
4.6873405e-08
3.0490795e-09
4.6568419e-08
2.7941002e-09
4.6234102e-08
2.5903852e-09
4.5874838e-08
2.4278718e-09
4.5496175e-08
2.2965555e-09
4.5102682e-08
2.1887762e-09
4.46971e-08
2.0979574e-09
4.4281003e-08
2.0186414e-09
4.3855553e-08
1.9468198e-09
4.342188e-08
1.8798959e-09
4.298119e-08
1.8163606e-09
4.2534777e-08
1.7554341e-09
4.2083984e-08
1.6967813e-09
4.163017e-08
1.6403105e-09
4.1174651e-08
1.5860252e-09
4.0718665e-08
1.5339506e-09
4.0263356e-08
1.4841064e-09
3.9809758e-08
1.4364692e-09
3.935879e-08
1.3909779e-09
3.8911257e-08
1.3475451e-09
3.8467862e-08
1.3060697e-09
3.8029206e-08
1.266445e-09
3.7595799e-08
1.2285656e-09
3.7168068e-08
1.1923303e-09
3.6746364e-08
1.1576448e-09
3.6330969e-08
1.124422e-09
3.5922105e-08
1.0925823e-09
3.5519936e-08
1.0620528e-09
3.5124581e-08
1.0327673e-09
3.4736113e-08
1.0046647e-09
3.435457e-08
9.7768866e-10
3.3979954e-08
9.5178651e-10
3.3612244e-08
9.2690908e-10
3.325139e-08
9.0300966e-10
3.2897324e-08
8.8004412e-10
3.2549961e-08
8.5797012e-10
3.2209203e-08
8.3674738e-10
3.1874939e-08
8.1633689e-10
3.1547051e-08
7.9670164e-10
3.1225413e-08
7.7780598e-10
3.0909895e-08
7.5961593e-10
3.0600361e-08
7.4209872e-10
3.0296678e-08
7.2522323e-10
2.9998707e-08
7.089596e-10
2.9706311e-08
6.9327957e-10
2.9419353e-08
6.7815591e-10
2.9137699e-08
6.6356322e-10
2.8861214e-08
6.4947685e-10
2.8589768e-08
6.3587388e-10
2.8323231e-08
6.2273208e-10
2.8061477e-08
6.100307e-10
2.7804384e-08
5.9774955e-10
2.755183e-08
5.8586994e-10
2.7303699e-08
5.7437353e-10
2.7059877e-08
5.6324355e-10
2.6820254e-08
5.5246339e-10
2.6584723e-08
5.4201812e-10
2.6353178e-08
5.3189295e-10
2.6125519e-08
5.2207452e-10
2.5901648e-08
5.1254949e-10
2.5681471e-08
5.0330598e-10
2.5464895e-08
4.9433167e-10
2.5251831e-08
4.8561566e-10
2.5042194e-08
4.7714648e-10
2.48359e-08
4.6891415e-10
2.4632868e-08
4.6090807e-10
2.4433023e-08
4.5311933e-10
2.4236288e-08
4.4553841e-10
2.4042591e-08
4.3815756e-10
2.3851862e-08
4.3096822e-10
2.3664034e-08
4.2396343e-10
2.347904e-08
4.1713506e-10
2.3296819e-08
4.1047654e-10
2.311731e-08
4.0397987e-10
2.2940454e-08
3.9763886e-10
2.2766195e-08
3.9144594e-10
2.2594479e-08
3.8539572e-10
2.2425254e-08
3.7948142e-10
2.2258471e-08
3.7369866e-10
2.209408e-08
3.6804126e-10
2.1932035e-08
3.6250527e-10
2.1772292e-08
3.5708437e-10
2.1614808e-08
3.5177444e-10
2.1459542e-08
3.4656875e-10
2.1306457e-08
3.4146321e-10
2.1155513e-08
3.3645121e-10
2.1006678e-08
3.3152938e-10
2.0859916e-08
3.2669177e-10
2.0715197e-08
3.2193591e-10
2.057249e-08
3.1725619e-10
2.0431767e-08
3.126504e-10
2.0292999e-08
3.081125e-10
2.0156163e-08
3.0363991e-10
2.0021234e-08
2.9922585e-10
1.9888192e-08
2.9486764e-10
1.9757016e-08
2.9055836e-10
1.9627689e-08
2.8629585e-10
1.9500195e-08
2.8207361e-10
1.937452e-08
2.7789034e-10
1.9250649e-08
2.7373977e-10
1.9128573e-08
2.6962109e-10
1.900828e-08
2.6552764e-10
1.8889762e-08
2.6145857e-10
1.8773015e-08
2.574064e-10
1.8658031e-08
2.5337008e-10
1.8544811e-08
2.4934142e-10
1.8433351e-08
2.4531953e-10
1.8323656e-08
2.4129595e-10
1.8215726e-08
2.3727044e-10
1.8109568e-08
2.3323444e-10
1.8005189e-08
2.2918842e-10
1.7902597e-08
2.2512341e-10
1.7801804e-08
2.2104041e-10
1.7702821e-08
2.1692981e-10
1.7605664e-08
2.1279307e-10
1.751035e-08
2.0861987e-10
1.7416895e-08
2.0441234e-10
1.7325321e-08
2.0015967e-10
1.7235649e-08
1.9586518e-10
1.7147903e-08
1.9151783e-10
1.7062107e-08
1.8712227e-10
1.6978288e-08
1.8266721e-10
1.6896474e-08
1.7815879e-10
1.6816692e-08
1.7358605e-10
1.6738971e-08
1.6895759e-10
1.666334e-08
1.6426398e-10
1.6589827e-08
1.5951655e-10
1.651846e-08
1.5470729e-10
1.6449267e-08
1.4984776e-10
1.6382275e-08
1.4492899e-10
1.6317511e-08
1.3995928e-10
1.6255002e-08
1.3492981e-10
1.6194774e-08
1.2984786e-10
1.6136849e-08
1.2471362e-10
1.6081245e-08
1.1953916e-10
1.6027971e-08
1.1434213e-10
1.5977031e-08
1.0913772e-10
1.5928413e-08
1.0396014e-10
1.5882104e-08
9.8815316e-11
1.583807e-08
9.3748739e-11
1.5796284e-08
8.8746513e-11
1.5756693e-08
8.3868306e-11
1.5719254e-08
7.9079748e-11
1.5683894e-08
7.4464873e-11
1.5650552e-08
6.9971908e-11
1.5619128e-08
6.5714878e-11
1.5589541e-08
6.1622461e-11
1.5561665e-08
5.7833742e-11
1.5535399e-08
5.4252635e-11
1.5510597e-08
5.1031099e-11
1.548715e-08
4.8044946e-11
1.5464904e-08
4.5440613e-11
1.5443761e-08
4.3063959e-11
1.5423586e-08
4.103002e-11
1.5404314e-08
3.9157164e-11
1.5385859e-08
3.7508758e-11
1.5368207e-08
3.5901061e-11
1.5351331e-08
3.4354658e-11
1.533526e-08
3.2739759e-11
1.5320001e-08
3.1070994e-11
1.5305587e-08
2.9322688e-11
1.5292012e-08
2.7526349e-11
1.5279278e-08
2.5742811e-11
1.5267339e-08
2.4006584e-11
1.5256165e-08
2.2379959e-11
1.5245681e-08
2.0891164e-11
1.5235858e-08
1.9511883e-11
1.5226614e-08
1.8300966e-11
1.5217953e-08
1.7106156e-11
1.5209791e-08
1.6084044e-11
1.5202167e-08
1.4991608e-11
1.5194985e-08
1.4088707e-11
1.5188298e-08
1.3093454e-11
1.5182005e-08
1.2286311e-11
1.5176161e-08
1.1405374e-11
1.5170663e-08
1.0682679e-11
1.5165571e-08
9.9116571e-12
1.5160773e-08
9.2887853e-12
1.5156337e-08
8.6233621e-12
1.5152136e-08
8.1276153e-12
1.5148251e-08
7.5819302e-12
1.5144543e-08
7.199056e-12
1.5141096e-08
6.8132861e-12
1.5137777e-08
6.5070768e-12
1.5134648e-08
6.3325595e-12
1.5131588e-08
6.1275956e-12
1.5128645e-08
6.1696431e-12
1.5125682e-08
6.1567825e-12
6.33257e-12
4.7963949e-08
2.4571894e-09
-4.7906262e-08
4.8190929e-08
3.0475929e-09
4.8508133e-08
3.6233774e-09
4.8790143e-08
3.9749891e-09
4.9034063e-08
4.1193826e-09
4.9271387e-08
4.1471709e-09
4.9501384e-08
4.1201347e-09
4.9696483e-08
4.0284161e-09
4.9831107e-08
3.8564237e-09
4.9895733e-08
3.6189993e-09
4.9898311e-08
3.3511417e-09
4.9855436e-08
3.091955e-09
4.9781363e-08
2.8681731e-09
4.9684434e-08
2.6873138e-09
4.9568335e-08
2.543971e-09
4.9435946e-08
2.4289441e-09
4.9289915e-08
2.3348077e-09
4.9131864e-08
2.2560085e-09
4.8962382e-08
2.188123e-09
4.8781499e-08
2.1277024e-09
4.8589111e-08
2.0722838e-09
4.8385194e-08
2.0202785e-09
4.8169876e-08
1.9707517e-09
4.7943454e-08
1.9232037e-09
4.7706368e-08
1.8773965e-09
4.7459164e-08
1.8332292e-09
4.7202456e-08
1.7906584e-09
4.6936906e-08
1.7496558e-09
4.6663196e-08
1.7101793e-09
4.6382009e-08
1.6721651e-09
4.6094021e-08
1.6355329e-09
4.5799897e-08
1.6001941e-09
4.5500283e-08
1.566059e-09
4.5195807e-08
1.5330417e-09
4.4887074e-08
1.5010628e-09
4.4574668e-08
1.4700512e-09
4.4259146e-08
1.4399441e-09
4.3941041e-08
1.4106873e-09
4.3620859e-08
1.3822344e-09
4.3299081e-08
1.3545459e-09
4.2976157e-08
1.3275879e-09
4.2652514e-08
1.3013317e-09
4.2328549e-08
1.2757523e-09
4.200463e-08
1.250828e-09
4.16811e-08
1.2265391e-09
4.1358276e-08
1.202868e-09
4.1036448e-08
1.1797982e-09
4.0715881e-08
1.1573142e-09
4.0396817e-08
1.1354011e-09
4.0079474e-08
1.1140447e-09
3.9764049e-08
1.0932311e-09
3.9450718e-08
1.0729467e-09
3.9139639e-08
1.0531782e-09
3.8830949e-08
1.0339125e-09
3.8524772e-08
1.0151366e-09
3.8221214e-08
9.9683779e-10
3.7920367e-08
9.7900328e-10
3.7622309e-08
9.6162101e-10
3.7327107e-08
9.4467846e-10
3.7034817e-08
9.281639e-10
3.6745484e-08
9.1206525e-10
3.6459144e-08
8.9637099e-10
3.6175824e-08
8.810693e-10
3.5895545e-08
8.661491e-10
3.561832e-08
8.5159879e-10
3.5344155e-08
8.3740784e-10
3.5073054e-08
8.2356502e-10
3.4805012e-08
8.100604e-10
3.4540021e-08
7.9688351e-10
3.4278071e-08
7.8402489e-10
3.4019146e-08
7.7147456e-10
3.3763228e-08
7.5922372e-10
3.3510297e-08
7.4726256e-10
3.326033e-08
7.3558252e-10
3.3013303e-08
7.2417389e-10
3.2769188e-08
7.1302843e-10
3.252796e-08
7.0213675e-10
3.2289588e-08
6.9149112e-10
3.2054043e-08
6.8108283e-10
3.1821296e-08
6.7090502e-10
3.1591315e-08
6.6094959e-10
3.1364068e-08
6.5121012e-10
3.1139524e-08
6.4167871e-10
3.0917652e-08
6.3234902e-10
3.0698419e-08
6.232129e-10
3.0481793e-08
6.1426414e-10
3.0267745e-08
6.0549476e-10
3.0056241e-08
5.9689911e-10
2.9847253e-08
5.884699e-10
2.9640749e-08
5.8020237e-10
2.9436701e-08
5.7208971e-10
2.9235078e-08
5.6412751e-10
2.9035854e-08
5.5630861e-10
2.8839e-08
5.4862823e-10
2.8644491e-08
5.4107856e-10
2.8452299e-08
5.3365469e-10
2.8262401e-08
5.2634881e-10
2.8074774e-08
5.1915675e-10
2.7889394e-08
5.1207141e-10
2.7706241e-08
5.0508956e-10
2.7525293e-08
4.9820445e-10
2.734653e-08
4.91413e-10
2.7169935e-08
4.8470781e-10
2.6995489e-08
4.7808514e-10
2.6823179e-08
4.7153652e-10
2.6652988e-08
4.6505787e-10
2.6484906e-08
4.586404e-10
2.6318922e-08
4.5228057e-10
2.6155025e-08
4.459701e-10
2.5993209e-08
4.3970642e-10
2.5833467e-08
4.3348162e-10
2.5675795e-08
4.2729362e-10
2.5520188e-08
4.2113402e-10
2.5366646e-08
4.1500055e-10
2.5215169e-08
4.0888372e-10
2.5065758e-08
4.0278078e-10
2.4918419e-08
3.9668124e-10
2.4773156e-08
3.9058231e-10
2.4629979e-08
3.8447309e-10
2.4488898e-08
3.7835144e-10
2.4349926e-08
3.7220637e-10
2.4213078e-08
3.6603643e-10
2.4078371e-08
3.598303e-10
2.3945824e-08
3.5358699e-10
2.381546e-08
3.4729452e-10
2.36873e-08
3.4095234e-10
2.3561372e-08
3.3454767e-10
2.3437704e-08
3.2808063e-10
2.3316326e-08
3.2153797e-10
2.319727e-08
3.1492109e-10
2.3080571e-08
3.0821672e-10
2.2966266e-08
3.0142783e-10
2.2854392e-08
2.9454119e-10
2.2744989e-08
2.8756165e-10
2.2638098e-08
2.8047696e-10
2.253376e-08
2.7329504e-10
2.2432018e-08
2.6600611e-10
2.2332913e-08
2.5862146e-10
2.2236487e-08
2.5113361e-10
2.2142781e-08
2.4355411e-10
2.2051835e-08
2.35875e-10
2.196369e-08
2.2810387e-10
2.1878386e-08
2.2023419e-10
2.1795961e-08
2.1227301e-10
2.1716447e-08
2.0422709e-10
2.1639876e-08
1.9611066e-10
2.1566263e-08
1.8795473e-10
2.1495622e-08
1.7977846e-10
2.1427947e-08
1.7163545e-10
2.1363229e-08
1.635334e-10
2.1301436e-08
1.5554127e-10
2.1242541e-08
1.4764148e-10
2.1186487e-08
1.3992216e-10
2.1133227e-08
1.3233972e-10
2.1082677e-08
1.250149e-10
2.1034767e-08
1.1788188e-10
2.0989381e-08
1.1110114e-10
2.0946423e-08
1.0458058e-10
2.0905744e-08
9.8513301e-11
2.0867224e-08
9.2771827e-11
2.083069e-08
8.7565073e-11
2.0796013e-08
8.2722746e-11
2.0763008e-08
7.8445106e-11
2.0731558e-08
7.4513648e-11
2.0701501e-08
7.1087534e-11
2.0672756e-08
6.7901965e-11
2.0645212e-08
6.5053075e-11
2.0618849e-08
6.2264261e-11
2.0593616e-08
5.9587416e-11
2.0569546e-08
5.6809798e-11
2.0546623e-08
5.3993371e-11
2.0524891e-08
5.1054717e-11
2.0504321e-08
4.8096751e-11
2.0484925e-08
4.5138319e-11
2.0466631e-08
4.2301229e-11
2.044942e-08
3.9590467e-11
2.0433181e-08
3.713054e-11
2.0417902e-08
3.4790395e-11
2.0403457e-08
3.2746335e-11
2.0389875e-08
3.0688086e-11
2.0377022e-08
2.8937427e-11
2.0364969e-08
2.7044814e-11
2.0353564e-08
2.5493222e-11
2.0342905e-08
2.3752657e-11
2.0332822e-08
2.2368965e-11
2.0323428e-08
2.0799034e-11
2.0314542e-08
1.9568787e-11
2.0306291e-08
1.8162936e-11
2.0298474e-08
1.7106173e-11
2.0291239e-08
1.5858369e-11
2.0284355e-08
1.5010847e-11
2.0278001e-08
1.3936793e-11
2.0271918e-08
1.3281927e-11
2.02663e-08
1.2430656e-11
2.0260883e-08
1.1924291e-11
2.0255853e-08
1.136274e-11
2.0250941e-08
1.1039267e-11
2.0246331e-08
1.0780321e-11
2.024173e-08
1.0757094e-11
1.0743088e-11
5.004833e-08
2.3966664e-09
-4.9987807e-08
5.0222987e-08
2.8729353e-09
5.0495558e-08
3.3508072e-09
5.0771104e-08
3.6994426e-09
5.1015486e-08
3.875001e-09
5.1240654e-08
3.9220021e-09
5.1460019e-08
3.90077e-09
5.1661571e-08
3.8268643e-09
5.1824703e-08
3.6932917e-09
5.1937488e-08
3.5062146e-09
5.2001633e-08
3.2869963e-09
5.2028719e-08
3.0648695e-09
5.203178e-08
2.8651121e-09
5.2019314e-08
2.6997792e-09
5.199568e-08
2.5676049e-09
5.1963095e-08
2.4615291e-09
5.1923279e-08
2.3746236e-09
5.1877456e-08
2.3018318e-09
5.1826108e-08
2.2394707e-09
5.1769103e-08
2.1847073e-09
5.1705992e-08
2.135395e-09
5.1636254e-08
2.0900171e-09
5.1559425e-08
2.0475803e-09
5.1475153e-08
2.0074755e-09
5.1383203e-08
1.9693471e-09
5.1283439e-08
1.9329926e-09
5.1175811e-08
1.8982866e-09
5.1060331e-08
1.8651353e-09
5.0937062e-08
1.833449e-09
5.0806097e-08
1.80313e-09
5.0667558e-08
1.7740714e-09
5.0521591e-08
1.7461619e-09
5.0368358e-08
1.7192917e-09
5.0208043e-08
1.6933569e-09
5.0040844e-08
1.6682616e-09
4.9866976e-08
1.6439196e-09
4.9686665e-08
1.6202543e-09
4.9500153e-08
1.5971995e-09
4.930769e-08
1.5746975e-09
4.9109536e-08
1.5526997e-09
4.8905959e-08
1.5311646e-09
4.8697234e-08
1.5100576e-09
4.8483637e-08
1.4893492e-09
4.826545e-08
1.4690151e-09
4.8042954e-08
1.4490345e-09
4.7816432e-08
1.4293902e-09
4.7586163e-08
1.4100673e-09
4.7352424e-08
1.3910534e-09