/*--------------------------------*- C++ -*----------------------------------*\
| =========                 |                                                 |
| \\      /  F ield         | OpenFOAM: The Open Source CFD Toolbox           |
|  \\    /   O peration     | Version:  5.x                                   |
|   \\  /    A nd           | Web:      www.OpenFOAM.org                      |
|    \\/     M anipulation  |                                                 |
\*---------------------------------------------------------------------------*/
FoamFile
{
    version     2.0;
    format      ascii;
    class       volVectorField;
    location    "0.3";
    object      U;
}
// * * * * * * * * * * * * * * * * * * * * * * * * * * * * * * * * * * * * * //

dimensions      [0 1 -1 0 0 0 0];

internalField   nonuniform List<vector> 
21600
(
(0.44555845 0.0096597968 0)
(0.40254839 0.013137354 0)
(0.36162663 0.013389476 0)
(0.32006522 0.012308054 0)
(0.27846938 0.01102834 0)
(0.23872826 0.009627173 0)
(0.20298181 0.0078987745 0)
(0.17302099 0.0058415306 0)
(0.14933005 0.0036668787 0)
(0.13153288 0.0018297869 0)
(0.11857032 0.00060878471 0)
(0.1092609 -4.4744137e-05 0)
(0.10258802 -0.00031923179 0)
(0.097709722 -0.00036956526 0)
(0.093994487 -0.00030751852 0)
(0.0909752 -0.00019921137 0)
(0.088342492 -8.6909021e-05 0)
(0.085917893 5.9331295e-06 0)
(0.083614528 7.1895834e-05 0)
(0.081401429 0.00011292359 0)
(0.079275614 0.00013456779 0)
(0.077243937 0.0001428215 0)
(0.075313621 0.00014274291 0)
(0.073488496 0.00013804559 0)
(0.07176829 0.00013117795 0)
(0.070149302 0.00012359185 0)
(0.068625558 0.00011606398 0)
(0.067189839 0.00010897217 0)
(0.06583453 0.00010245607 0)
(0.064552223 9.6529734e-05 0)
(0.063336056 9.1152503e-05 0)
(0.06217986 8.6265231e-05 0)
(0.061078194 8.1806666e-05 0)
(0.060026302 7.7720479e-05 0)
(0.059020043 7.3957613e-05 0)
(0.058055813 7.047665e-05 0)
(0.05713046 6.7243034e-05 0)
(0.056241216 6.4228225e-05 0)
(0.05538563 6.1408616e-05 0)
(0.054561515 5.8764752e-05 0)
(0.053766905 5.6280393e-05 0)
(0.053000019 5.3941963e-05 0)
(0.052259234 5.1737838e-05 0)
(0.051543061 4.9658015e-05 0)
(0.05085013 4.769359e-05 0)
(0.050179174 4.5836644e-05 0)
(0.04952902 4.4079882e-05 0)
(0.048898578 4.2416655e-05 0)
(0.048286836 4.0840696e-05 0)
(0.04769285 3.9346329e-05 0)
(0.047115744 3.7928183e-05 0)
(0.046554696 3.6581331e-05 0)
(0.046008946 3.5301056e-05 0)
(0.045477777 3.4083088e-05 0)
(0.044960524 3.2923347e-05 0)
(0.044456562 3.1818193e-05 0)
(0.043965308 3.0764135e-05 0)
(0.043486212 2.9758095e-05 0)
(0.043018763 2.8797095e-05 0)
(0.042562473 2.7878539e-05 0)
(0.042116892 2.6999869e-05 0)
(0.041681587 2.6158872e-05 0)
(0.041256158 2.5353311e-05 0)
(0.04084022 2.4581275e-05 0)
(0.040433417 2.3840781e-05 0)
(0.040035406 2.3130175e-05 0)
(0.039645868 2.2447708e-05 0)
(0.039264496 2.1791979e-05 0)
(0.038891006 2.1161478e-05 0)
(0.03852512 2.0555049e-05 0)
(0.038166582 1.9971394e-05 0)
(0.037815141 1.9409556e-05 0)
(0.037470565 1.8868357e-05 0)
(0.037132628 1.8346943e-05 0)
(0.036801119 1.7844188e-05 0)
(0.036475833 1.7359308e-05 0)
(0.036156581 1.6891235e-05 0)
(0.035843175 1.6439299e-05 0)
(0.035535448 1.6002553e-05 0)
(0.035233226 1.5580498e-05 0)
(0.034936358 1.5172329e-05 0)
(0.034644685 1.4777684e-05 0)
(0.034358069 1.4395807e-05 0)
(0.034076363 1.4026362e-05 0)
(0.033799442 1.3668549e-05 0)
(0.033527172 1.3322024e-05 0)
(0.033259442 1.2985975e-05 0)
(0.032996128 1.2660139e-05 0)
(0.032737133 1.2343806e-05 0)
(0.032482342 1.2036889e-05 0)
(0.032231666 1.1738804e-05 0)
(0.031984998 1.1449581e-05 0)
(0.031742257 1.1168627e-05 0)
(0.031503342 1.0895941e-05 0)
(0.031268182 1.0630806e-05 0)
(0.031036685 1.0373163e-05 0)
(0.030808789 1.0122235e-05 0)
(0.03058441 9.8780317e-06 0)
(0.030363499 9.639849e-06 0)
(0.030145977 9.407868e-06 0)
(0.0299318 9.1814822e-06 0)
(0.029720895 8.9609869e-06 0)
(0.029513225 8.7457508e-06 0)
(0.02930872 8.5360587e-06 0)
(0.02910735 8.3311606e-06 0)
(0.028909051 8.1313101e-06 0)
(0.028713805 7.9356761e-06 0)
(0.028521549 7.7445699e-06 0)
(0.028332279 7.5571724e-06 0)
(0.028145935 7.3739339e-06 0)
(0.02796252 7.1940745e-06 0)
(0.027781976 7.0181655e-06 0)
(0.027604314 6.8453963e-06 0)
(0.027429478 6.6763878e-06 0)
(0.027257486 6.5102272e-06 0)
(0.027088284 6.3475516e-06 0)
(0.0269219 6.1873314e-06 0)
(0.026758284 6.0302552e-06 0)
(0.026597474 5.8752266e-06 0)
(0.026439422 5.7230616e-06 0)
(0.026284178 5.5726406e-06 0)
(0.026131693 5.4249351e-06 0)
(0.025982028 5.2787691e-06 0)
(0.025835132 5.1352327e-06 0)
(0.025691077 4.9930294e-06 0)
(0.025549811 4.8533377e-06 0)
(0.025411419 4.7147003e-06 0)
(0.025275844 4.5783828e-06 0)
(0.025143188 4.4427689e-06 0)
(0.025013392 4.3092732e-06 0)
(0.024886571 4.1761737e-06 0)
(0.024762661 4.0450743e-06 0)
(0.024641793 3.9141218e-06 0)
(0.024523897 3.785052e-06 0)
(0.024409118 3.6558593e-06 0)
(0.024297379 3.5284456e-06 0)
(0.024188839 3.4008025e-06 0)
(0.024083405 3.2751054e-06 0)
(0.023981248 3.1495168e-06 0)
(0.023882249 3.0263588e-06 0)
(0.023786589 2.9037858e-06 0)
(0.023694131 2.7836418e-06 0)
(0.023605076 2.6637851e-06 0)
(0.023519279 2.545216e-06 0)
(0.023436972 2.4260702e-06 0)
(0.023358003 2.3068856e-06 0)
(0.023282621 2.1872202e-06 0)
(0.02321064 2.0674003e-06 0)
(0.023142297 1.9489894e-06 0)
(0.023077352 1.831223e-06 0)
(0.023016014 1.7173127e-06 0)
(0.022957994 1.6041343e-06 0)
(0.022903489 1.4964481e-06 0)
(0.022852176 1.3883338e-06 0)
(0.02280425 1.2867675e-06 0)
(0.022759362 1.1834941e-06 0)
(0.02271769 1.0883211e-06 0)
(0.022678844 9.9115122e-07 0)
(0.022642966 9.0433926e-07 0)
(0.022609611 8.1639622e-07 0)
(0.022578874 7.4123108e-07 0)
(0.022550248 6.6684679e-07 0)
(0.022523784 6.0729328e-07 0)
(0.022498921 5.5132059e-07 0)
(0.022475697 5.1083612e-07 0)
(0.02245353 4.7616961e-07 0)
(0.022432525 4.5392247e-07 0)
(0.022412153 4.3684927e-07 0)
(0.0223927 4.2404675e-07 0)
(0.022373739 4.1287707e-07 0)
(0.022355789 3.9598945e-07 0)
(0.022338468 3.7854691e-07 0)
(0.022322451 3.5025863e-07 0)
(0.022307236 3.2394361e-07 0)
(0.022293534 2.893938e-07 0)
(0.022280589 2.6145861e-07 0)
(0.022269123 2.3226341e-07 0)
(0.022258126 2.1033822e-07 0)
(0.022248445 1.9213648e-07 0)
(0.022238902 1.7579739e-07 0)
(0.022230609 1.6424725e-07 0)
(0.022222207 1.501249e-07 0)
(0.022215125 1.3994249e-07 0)
(0.022207699 1.2933132e-07 0)
(0.022201716 1.1859622e-07 0)
(0.022195105 1.1315138e-07 0)
(0.022190107 1.0096317e-07 0)
(0.02218416 9.8914223e-08 0)
(0.022180059 8.6369478e-08 0)
(0.022174619 8.6484325e-08 0)
(0.022171316 7.5400688e-08 0)
(0.022166149 7.9894454e-08 0)
(0.022163509 6.7947839e-08 0)
(0.022158339 8.0831864e-08 0)
(0.022156217 6.382815e-08 0)
(0.022150761 8.7600331e-08 0)
(0.022148977 6.6344415e-08 0)
(0.022142841 1.0096011e-07 0)
(0.022141257 7.5768069e-08 0)
(0.022133713 1.2032545e-07 0)
(0.47647156 0.016890814 0)
(0.47436178 0.023593892 0)
(0.4705704 0.025572342 0)
(0.46341285 0.025280691 0)
(0.45228873 0.024404138 0)
(0.4377992 0.023238565 0)
(0.42103195 0.021512841 0)
(0.40322036 0.019073121 0)
(0.38514135 0.01604261 0)
(0.3674455 0.012842881 0)
(0.35052562 0.0099250971 0)
(0.33460439 0.0075357287 0)
(0.31988078 0.0057107186 0)
(0.30642193 0.0043728742 0)
(0.2942518 0.0034397684 0)
(0.28328456 0.0028188292 0)
(0.27338024 0.0024148178 0)
(0.26439134 0.0021460223 0)
(0.25618441 0.0019543517 0)
(0.24864716 0.0018040971 0)
(0.24168868 0.0016756301 0)
(0.23523619 0.0015593332 0)
(0.22923103 0.0014512574 0)
(0.22362482 0.0013503104 0)
(0.21837669 0.0012565634 0)
(0.21345121 0.001170312 0)
(0.20881729 0.0010916455 0)
(0.20444728 0.0010203639 0)
(0.20031649 0.00095600244 0)
(0.19640294 0.00089792976 0)
(0.19268713 0.00084545156 0)
(0.18915176 0.00079788508 0)
(0.18578158 0.00075460079 0)
(0.18256308 0.00071504163 0)
(0.17948436 0.00067872744 0)
(0.17653484 0.00064525181 0)
(0.17370514 0.000614274 0)
(0.17098687 0.0005855099 0)
(0.16837251 0.00055872214 0)
(0.1658553 0.00053371166 0)
(0.16342909 0.00051030988 0)
(0.16108831 0.00048837278 0)
(0.15882787 0.00046777551 0)
(0.15664309 0.00044840896 0)
(0.15452969 0.00043017624 0)
(0.15248371 0.00041299089 0)
(0.1505015 0.00039677468 0)
(0.14857968 0.00038145684 0)
(0.1467151 0.00036697239 0)
(0.14490486 0.00035326229 0)
(0.14314625 0.00034027217 0)
(0.14143674 0.00032795247 0)
(0.139774 0.00031625727 0)
(0.13815583 0.00030514475 0)
(0.13658019 0.00029457605 0)
(0.13504515 0.0002845159 0)
(0.13354893 0.00027493142 0)
(0.13208985 0.00026579283 0)
(0.13066633 0.00025707224 0)
(0.12927688 0.00024874445 0)
(0.12792011 0.00024078565 0)
(0.12659472 0.00023317433 0)
(0.12529946 0.00022588997 0)
(0.12403315 0.0002189141 0)
(0.12279472 0.00021222888 0)
(0.1215831 0.00020581842 0)
(0.12039733 0.00019966722 0)
(0.11923645 0.00019376166 0)
(0.11809959 0.00018808832 0)
(0.11698591 0.00018263553 0)
(0.11589463 0.00017739161 0)
(0.11482496 0.00017234648 0)
(0.11377621 0.00016748976 0)
(0.11274768 0.00016281254 0)
(0.11173873 0.00015830537 0)
(0.11074873 0.00015396033 0)
(0.1097771 0.00014976887 0)
(0.10882327 0.00014572409 0)
(0.10788672 0.00014181847 0)
(0.10696693 0.00013804622 0)
(0.10606343 0.00013440072 0)
(0.10517573 0.00013087705 0)
(0.10430341 0.00012746911 0)
(0.10344603 0.00012417242 0)
(0.10260319 0.0001209811 0)
(0.1017745 0.00011789104 0)
(0.10095962 0.00011489671 0)
(0.10015816 0.00011199466 0)
(0.099369822 0.00010918002 0)
(0.098594256 0.00010645018 0)
(0.097831187 0.00010380085 0)
(0.097080287 0.00010122992 0)
(0.096341312 9.873321e-05 0)
(0.095613957 9.6308617e-05 0)
(0.094898006 9.3951724e-05 0)
(0.094193179 9.166049e-05 0)
(0.093499293 8.9430558e-05 0)
(0.092816088 8.7260384e-05 0)
(0.092143409 8.5146077e-05 0)
(0.091481013 8.3086815e-05 0)
(0.09082877 8.1079103e-05 0)
(0.090186447 7.9122525e-05 0)
(0.08955394 7.7213507e-05 0)
(0.08893103 7.5351627e-05 0)
(0.08831764 7.3532979e-05 0)
(0.087713565 7.1757153e-05 0)
(0.087118758 7.0020129e-05 0)
(0.086533028 6.8321867e-05 0)
(0.085956358 6.6658546e-05 0)
(0.085388567 6.5030716e-05 0)
(0.084829661 6.3434761e-05 0)
(0.084279468 6.1871677e-05 0)
(0.083738019 6.0337759e-05 0)
(0.083205146 5.8834173e-05 0)
(0.08268091 5.7356885e-05 0)
(0.082165149 5.590715e-05 0)
(0.081657956 5.44806e-05 0)
(0.081159174 5.3078744e-05 0)
(0.080668933 5.1697077e-05 0)
(0.080187077 5.0337618e-05 0)
(0.079713772 4.8995837e-05 0)
(0.079248862 4.7674309e-05 0)
(0.078792548 4.6368338e-05 0)
(0.078344671 4.508092e-05 0)
(0.07790547 4.3806993e-05 0)
(0.07747478 4.254991e-05 0)
(0.077052882 4.1304147e-05 0)
(0.076639604 4.007346e-05 0)
(0.07623527 3.8851909e-05 0)
(0.075839698 3.7643877e-05 0)
(0.075453256 3.6443157e-05 0)
(0.075075745 3.5254843e-05 0)
(0.07470758 3.4072357e-05 0)
(0.074348539 3.2901386e-05 0)
(0.073999084 3.1735048e-05 0)
(0.073658961 3.0579888e-05 0)
(0.073328677 2.9429269e-05 0)
(0.073007928 2.8290851e-05 0)
(0.072697258 2.715851e-05 0)
(0.072396303 2.6040185e-05 0)
(0.072105648 2.4929337e-05 0)
(0.071824875 2.3832121e-05 0)
(0.071554631 2.2741135e-05 0)
(0.071294456 2.1660408e-05 0)
(0.071045061 2.0584535e-05 0)
(0.070805918 1.9517271e-05 0)
(0.070577757 1.8459095e-05 0)
(0.070359927 1.7413626e-05 0)
(0.07015312 1.6388156e-05 0)
(0.069956529 1.5382023e-05 0)
(0.069770797 1.4407581e-05 0)
(0.069594977 1.3455406e-05 0)
(0.069429683 1.2543247e-05 0)
(0.069273862 1.1652008e-05 0)
(0.069128095 1.0808024e-05 0)
(0.068991224 9.9841585e-06 0)
(0.068863756 9.2175804e-06 0)
(0.068744406 8.4739989e-06 0)
(0.068633572 7.8000631e-06 0)
(0.068529829 7.1548172e-06 0)
(0.06843346 6.5904807e-06 0)
(0.068342918 6.0613374e-06 0)
(0.068258419 5.6194034e-06 0)
(0.068178347 5.2171051e-06 0)
(0.06810297 4.8972637e-06 0)
(0.068030716 4.6128943e-06 0)
(0.067962126 4.3873442e-06 0)
(0.067895807 4.1798753e-06 0)
(0.067832791 3.9903042e-06 0)
(0.067771871 3.7970176e-06 0)
(0.067714611 3.5832341e-06 0)
(0.067659718 3.3605612e-06 0)
(0.067609106 3.1058351e-06 0)
(0.067560989 2.861243e-06 0)
(0.067517462 2.6014954e-06 0)
(0.067476 2.3756543e-06 0)
(0.067438956 2.159855e-06 0)
(0.067403118 1.9797522e-06 0)
(0.067371392 1.8226678e-06 0)
(0.067340011 1.6779493e-06 0)
(0.067312688 1.5580113e-06 0)
(0.067285017 1.4306882e-06 0)
(0.067261631 1.3274307e-06 0)
(0.06723718 1.2197178e-06 0)
(0.067217408 1.125248e-06 0)
(0.067195695 1.0427063e-06 0)
(0.067179233 9.5266329e-07 0)
(0.067159777 8.9097422e-07 0)
(0.067146338 8.0907801e-07 0)
(0.067128613 7.6493815e-07 0)
(0.067117867 6.9811097e-07 0)
(0.067101219 6.7726206e-07 0)
(0.067092817 6.1841447e-07 0)
(0.067076505 6.3352657e-07 0)
(0.067070112 5.6880996e-07 0)
(0.067053329 6.3102042e-07 0)
(0.067048531 5.6386911e-07 0)
(0.067030219 6.7296359e-07 0)
(0.067026725 6.1419315e-07 0)
(0.067005049 7.4289294e-07 0)
(0.47973181 0.015742833 0)
(0.48105166 0.021481341 0)
(0.48385537 0.024571978 0)
(0.48653108 0.025582554 0)
(0.48779672 0.02569813 0)
(0.48721773 0.025397115 0)
(0.48483823 0.024563369 0)
(0.48087073 0.022995379 0)
(0.47550115 0.020771079 0)
(0.46893141 0.018203489 0)
(0.46141774 0.015681346 0)
(0.45321308 0.013472261 0)
(0.44461877 0.011669101 0)
(0.4358701 0.010230387 0)
(0.42717467 0.0090931349 0)
(0.41863269 0.0081897429 0)
(0.41028444 0.0074573607 0)
(0.40214352 0.0068444723 0)
(0.39421359 0.0063141852 0)
(0.3864955 0.0058428707 0)
(0.37899044 0.0054164412 0)
(0.37170076 0.0050267895 0)
(0.36462959 0.0046692963 0)
(0.35777985 0.0043412329 0)
(0.35115344 0.0040407686 0)
(0.34475057 0.0037663666 0)
(0.33856973 0.0035164921 0)
(0.33260756 0.0032894274 0)
(0.32685914 0.0030832808 0)
(0.32131828 0.0028960808 0)
(0.31597787 0.0027258787 0)
(0.31083013 0.0025708274 0)
(0.30586694 0.0024292278 0)
(0.30108 0.00229955 0)
(0.29646099 0.0021804377 0)
(0.29200177 0.0020707021 0)
(0.28769439 0.001969309 0)
(0.28353123 0.0018753632 0)
(0.27950498 0.0017880914 0)
(0.27560872 0.0017068255 0)
(0.27183589 0.0016309866 0)
(0.26818031 0.0015600713 0)
(0.26463617 0.001493639 0)
(0.26119799 0.0014313028 0)
(0.25786066 0.0013727196 0)
(0.25461935 0.0013175846 0)
(0.25146956 0.0012656245 0)
(0.24840705 0.0012165943 0)
(0.24542784 0.0011702719 0)
(0.24252819 0.001126457 0)
(0.2397046 0.0010849671 0)
(0.23695376 0.0010456369 0)
(0.23427257 0.0010083148 0)
(0.23165809 0.00097286324 0)
(0.22910758 0.00093915581 0)
(0.22661841 0.00090707745 0)
(0.22418814 0.000876522 0)
(0.22181444 0.00084739284 0)
(0.21949511 0.00081960029 0)
(0.21722807 0.00079306269 0)
(0.21501136 0.0007677037 0)
(0.21284309 0.00074345378 0)
(0.21072152 0.0007202474 0)
(0.20864494 0.00069802492 0)
(0.20661178 0.00067672979 0)
(0.20462051 0.00065631071 0)
(0.2026697 0.00063671879 0)
(0.20075798 0.00061790996 0)
(0.19888405 0.0005998419 0)
(0.19704666 0.00058247663 0)
(0.19524464 0.0005657772 0)
(0.19347684 0.00054971057 0)
(0.19174221 0.00053424405 0)
(0.19003971 0.00051934845 0)
(0.18836837 0.00050499444 0)
(0.18672723 0.0004911562 0)
(0.18511544 0.00047780754 0)
(0.18353211 0.00046492596 0)
(0.18197646 0.00045248839 0)
(0.18044768 0.00044047548 0)
(0.17894505 0.00042886683 0)
(0.17746783 0.00041764549 0)
(0.17601537 0.00040679279 0)
(0.17458698 0.00039629334 0)
(0.17318208 0.00038612965 0)
(0.17180002 0.00037628781 0)
(0.17044029 0.00036675179 0)
(0.16910228 0.00035750965 0)
(0.16778554 0.00034854725 0)
(0.16648951 0.00033985473 0)
(0.16521376 0.0003314194 0)
(0.16395778 0.00032323262 0)
(0.16272119 0.00031528211 0)
(0.1615035 0.00030755956 0)
(0.1603044 0.00030005269 0)
(0.15912342 0.00029275373 0)
(0.15796029 0.00028565106 0)
(0.15681459 0.00027873832 0)
(0.15568608 0.0002720052 0)
(0.15457437 0.00026544696 0)
(0.15347925 0.00025905417 0)
(0.15240036 0.00025282291 0)
(0.15133753 0.00024674366 0)
(0.15029042 0.00024081254 0)
(0.1492589 0.0002350196 0)
(0.14824265 0.00022936123 0)
(0.14724161 0.0002238276 0)
(0.14625546 0.00021841609 0)
(0.14528418 0.00021311758 0)
(0.14432747 0.00020793076 0)
(0.14338537 0.00020284706 0)
(0.14245757 0.00019786605 0)
(0.14154416 0.00019297904 0)
(0.14064484 0.00018818595 0)
(0.13975974 0.00018347753 0)
(0.13888859 0.0001788539 0)
(0.13803156 0.00017430533 0)
(0.13718838 0.00016983254 0)
(0.13635929 0.00016542575 0)
(0.13554401 0.00016108672 0)
(0.13474286 0.00015680579 0)
(0.13395556 0.00015258579 0)
(0.13318247 0.00014841683 0)
(0.13242332 0.00014430257 0)
(0.13167853 0.00014023261 0)
(0.13094781 0.00013621132 0)
(0.13023168 0.00013222769 0)
(0.12952981 0.00012828699 0)
(0.12884281 0.00012437773 0)
(0.12817032 0.00012050653 0)
(0.12751303 0.00011666163 0)
(0.12687056 0.00011285108 0)
(0.12624365 0.00010906269 0)
(0.12563191 0.00010530584 0)
(0.12503615 0.00010156829 0)
(0.12445592 9.7861476e-05 0)
(0.12389212 9.4174134e-05 0)
(0.1233442 9.0520037e-05 0)
(0.12281315 8.6888883e-05 0)
(0.12229831 8.3294583e-05 0)
(0.12180075 7.972567e-05 0)
(0.12131973 7.6192637e-05 0)
(0.1208564 7.2683037e-05 0)
(0.12040994 6.9204889e-05 0)
(0.1199816 6.575154e-05 0)
(0.11957039 6.2332788e-05 0)
(0.1191776 5.8954749e-05 0)
(0.11880202 5.5627936e-05 0)
(0.11844488 5.2371061e-05 0)
(0.11810473 4.918581e-05 0)
(0.11778274 4.6099352e-05 0)
(0.11747723 4.3096165e-05 0)
(0.11718932 4.0213578e-05 0)
(0.11691714 3.7418234e-05 0)
(0.11666175 3.4764872e-05 0)
(0.11642106 3.2205352e-05 0)
(0.11619602 2.9815921e-05 0)
(0.11598434 2.7533802e-05 0)
(0.11578677 2.5453264e-05 0)
(0.11560082 2.3495784e-05 0)
(0.11542709 2.176523e-05 0)
(0.11526293 2.0168625e-05 0)
(0.11510889 1.8807055e-05 0)
(0.11496227 1.7575933e-05 0)
(0.11482375 1.6555432e-05 0)
(0.11469077 1.5633503e-05 0)
(0.11456449 1.4852551e-05 0)
(0.11444259 1.4108816e-05 0)
(0.114327 1.3406685e-05 0)
(0.11421555 1.2683674e-05 0)
(0.11411095 1.1925244e-05 0)
(0.1140107 1.1140482e-05 0)
(0.11391812 1.0311621e-05 0)
(0.11382974 9.5091322e-06 0)
(0.11374938 8.7093223e-06 0)
(0.1136723 7.9918973e-06 0)
(0.11360302 7.3270505e-06 0)
(0.11353557 6.7453317e-06 0)
(0.11347564 6.2337206e-06 0)
(0.11341611 5.7523463e-06 0)
(0.11336418 5.3410134e-06 0)
(0.11331142 4.914517e-06 0)
(0.11326675 4.5604025e-06 0)
(0.11321992 4.1883172e-06 0)
(0.11318197 3.8747361e-06 0)
(0.11314024 3.5665983e-06 0)
(0.1131085 3.2838844e-06 0)
(0.11307101 3.0336434e-06 0)
(0.11304501 2.7885123e-06 0)
(0.11301083 2.5907669e-06 0)
(0.11299003 2.3965879e-06 0)
(0.11295809 2.2588328e-06 0)
(0.11294197 2.1034359e-06 0)
(0.1129111 2.04719e-06 0)
(0.11289919 1.9057566e-06 0)
(0.11286808 1.9548239e-06 0)
(0.11285984 1.8357374e-06 0)
(0.11282684 1.9881241e-06 0)
(0.11282187 1.9289854e-06 0)
(0.1127844 2.1126699e-06 0)
(0.48219399 0.014724559 0)
(0.48322666 0.019047702 0)
(0.48582614 0.022161943 0)
(0.48932895 0.02368669 0)
(0.49274815 0.024187642 0)
(0.49551595 0.024150659 0)
(0.49747572 0.02366365 0)
(0.49860049 0.022630214 0)
(0.49885448 0.02106602 0)
(0.49818256 0.019160393 0)
(0.4965975 0.017188814 0)
(0.4941918 0.015388112 0)
(0.49114291 0.013874946 0)
(0.48764193 0.012657433 0)
(0.48385399 0.011679488 0)
(0.47988104 0.01087964 0)
(0.47577376 0.010208656 0)
(0.47155427 0.009629538 0)
(0.46723225 0.0091151899 0)
(0.46281373 0.00864666 0)
(0.45830556 0.008211512 0)
(0.45371704 0.0078021635 0)
(0.44906011 0.007414406 0)
(0.4443485 0.0070461796 0)
(0.43959679 0.0066966404 0)
(0.43481944 0.0063654763 0)
(0.43003034 0.0060525042 0)
(0.42524229 0.0057573891 0)
(0.42046689 0.005479571 0)
(0.41571448 0.0052182997 0)
(0.41099419 0.0049727045 0)
(0.40631396 0.00474186 0)
(0.40168063 0.0045248348 0)
(0.39710002 0.0043207216 0)
(0.39257704 0.0041286545 0)
(0.38811573 0.0039478181 0)
(0.3837194 0.0037774501 0)
(0.37939067 0.0036168425 0)
(0.37513154 0.0034653385 0)
(0.37094347 0.0033223303 0)
(0.36682747 0.0031872544 0)
(0.36278408 0.0030595888 0)
(0.35881352 0.002938848 0)
(0.35491567 0.0028245816 0)
(0.35109013 0.0027163694 0)
(0.34733629 0.002613821 0)
(0.34365333 0.0025165718 0)
(0.34004029 0.0024242829 0)
(0.33649605 0.0023366381 0)
(0.33301941 0.0022533438 0)
(0.32960908 0.002174126 0)
(0.32626372 0.0020987304 0)
(0.32298193 0.0020269196 0)
(0.31976228 0.0019584739 0)
(0.31660335 0.0018931885 0)
(0.31350368 0.001830874 0)
(0.31046185 0.0017713539 0)
(0.30747641 0.0017144649 0)
(0.30454596 0.0016600546 0)
(0.30166911 0.0016079821 0)
(0.29884449 0.0015581152 0)
(0.29607075 0.0015103319 0)
(0.29334659 0.0014645167 0)
(0.29067073 0.0014205636 0)
(0.28804193 0.0013783717 0)
(0.28545897 0.0013378485 0)
(0.28292068 0.0012989059 0)
(0.2804259 0.0012614635 0)
(0.27797354 0.0012254444 0)
(0.2755625 0.0011907785 0)
(0.27319176 0.0011573981 0)
(0.27086029 0.0011252417 0)
(0.26856712 0.0010942489 0)
(0.26631129 0.0010643649 0)
(0.2640919 0.0010355356 0)
(0.26190803 0.0010077121 0)
(0.25975886 0.00098084587 0)
(0.25764352 0.00095489404 0)
(0.25556127 0.00092981358 0)
(0.25351126 0.00090556718 0)
(0.25149282 0.00088211655 0)
(0.24950515 0.00085942861 0)
(0.24754763 0.0008374683 0)
(0.24561951 0.00081620545 0)
(0.24372022 0.00079560737 0)
(0.24184906 0.00077564668 0)
(0.24000549 0.00075629349 0)
(0.23818888 0.00073752398 0)
(0.23639873 0.00071931166 0)
(0.23463444 0.00070163627 0)
(0.23289557 0.00068447394 0)
(0.23118152 0.00066780653 0)
(0.22949194 0.00065161109 0)
(0.22782624 0.00063587023 0)
(0.2261841 0.00062056135 0)
(0.224565 0.00060566828 0)
(0.22296865 0.00059116984 0)
(0.22139454 0.00057705235 0)
(0.21984247 0.00056329698 0)
(0.21831192 0.00054989267 0)
(0.21680275 0.00053682215 0)
(0.21531446 0.00052407565 0)
(0.21384695 0.00051163585 0)
(0.21239975 0.00049949311 0)
(0.2109728 0.00048762968 0)
(0.20956567 0.0004760365 0)
(0.20817834 0.00046469634 0)
(0.20681041 0.00045360191 0)
(0.20546193 0.00044273739 0)
(0.20413249 0.00043209762 0)
(0.20282221 0.00042166785 0)
(0.20153068 0.00041144425 0)
(0.20025809 0.00040141202 0)
(0.19900402 0.00039156777 0)
(0.19776872 0.00038189599 0)
(0.19655181 0.00037239358 0)
(0.1953536 0.00036304447 0)
(0.19417369 0.00035384647 0)
(0.19301249 0.00034478369 0)
(0.19186961 0.00033585559 0)
(0.19074553 0.00032704664 0)
(0.18963984 0.00031835789 0)
(0.18855313 0.00030977373 0)
(0.18748498 0.00030129642 0)
(0.18643607 0.00029290985 0)
(0.18540594 0.00028461741 0)
(0.18439538 0.00027640236 0)
(0.18340393 0.0002682695 0)
(0.18243247 0.00026020182 0)
(0.18148049 0.00025220619 0)
(0.18054902 0.00024426563 0)
(0.17963747 0.00023638919 0)
(0.17874699 0.00022855974 0)
(0.17787694 0.00022078857 0)
(0.17702859 0.00021305913 0)
(0.1762012 0.00020538611 0)
(0.17539618 0.00019775513 0)
(0.17461266 0.00019018444 0)
(0.17385216 0.00018266139 0)
(0.17311369 0.00017520412 0)
(0.17239888 0.00016779846 0)
(0.1717066 0.00016045772 0)
(0.17103864 0.00015316752 0)
(0.1703937 0.00014593918 0)
(0.1697737 0.00013876939 0)
(0.16917711 0.00013167432 0)
(0.1686059 0.00012467157 0)
(0.16805823 0.00011777929 0)
(0.16753604 0.0001110339 0)
(0.16703714 0.00010443989 0)
(0.16656342 9.804555e-05 0)
(0.16611236 9.1829409e-05 0)
(0.16568579 8.5854991e-05 0)
(0.16528092 8.0074949e-05 0)
(0.16489947 7.457962e-05 0)
(0.16453837 6.9300161e-05 0)
(0.16419918 6.4359249e-05 0)
(0.16387852 5.9665063e-05 0)
(0.16357773 5.5366028e-05 0)
(0.16329317 5.1343245e-05 0)
(0.16302599 4.7756846e-05 0)
(0.16277236 4.4459919e-05 0)
(0.16253339 4.1604387e-05 0)
(0.1623052 3.9016789e-05 0)
(0.16208914 3.6813779e-05 0)
(0.16188147 3.480153e-05 0)
(0.16168421 3.3040873e-05 0)
(0.16149382 3.1346538e-05 0)
(0.1613134 2.9732411e-05 0)
(0.16113937 2.807872e-05 0)
(0.16097595 2.6387684e-05 0)
(0.16081888 2.4651752e-05 0)
(0.16067341 2.2881575e-05 0)
(0.16053374 2.1159343e-05 0)
(0.16040615 1.9490001e-05 0)
(0.16028287 1.795972e-05 0)
(0.1601716 1.6561412e-05 0)
(0.16006252 1.5297559e-05 0)
(0.15996537 1.4186958e-05 0)
(0.15986827 1.312047e-05 0)
(0.15978351 1.2204561e-05 0)
(0.15969683 1.1254405e-05 0)
(0.15962341 1.0462668e-05 0)
(0.15954593 9.6217778e-06 0)
(0.1594831 8.9275932e-06 0)
(0.15941357 8.2077846e-06 0)
(0.15936063 7.5959528e-06 0)
(0.15929778 6.9881747e-06 0)
(0.15925409 6.4678535e-06 0)
(0.15919656 5.9633198e-06 0)
(0.15916143 5.5534867e-06 0)
(0.15910774 5.1600535e-06 0)
(0.15908051 4.8427606e-06 0)
(0.15902903 4.5897474e-06 0)
(0.15900912 4.3290179e-06 0)
(0.15895806 4.2524561e-06 0)
(0.15894487 4.0632118e-06 0)
(0.15889205 4.1584421e-06 0)
(0.15888509 4.1085042e-06 0)
(0.15882746 4.2830157e-06 0)
(0.48416951 0.014147091 0)
(0.48506405 0.01753071 0)
(0.48711927 0.020374251 0)
(0.49009104 0.022079369 0)
(0.49335357 0.022759987 0)
(0.49638375 0.022789609 0)
(0.4989733 0.022376429 0)
(0.50108877 0.021552385 0)
(0.50271465 0.020333309 0)
(0.5037945 0.018827692 0)
(0.5042794 0.017221433 0)
(0.50418047 0.015705113 0)
(0.50358728 0.014398049 0)
(0.50263087 0.013332727 0)
(0.50143517 0.012476359 0)
(0.50008479 0.011778219 0)
(0.49862232 0.011194853 0)
(0.49706138 0.010694178 0)
(0.49540071 0.01025278 0)
(0.49363376 0.0098535048 0)
(0.49175413 0.0094841423 0)
(0.48975788 0.0091365044 0)
(0.48764424 0.0088055249 0)
(0.48541515 0.0084883745 0)
(0.48307467 0.0081836636 0)
(0.48062819 0.0078907974 0)
(0.47808199 0.0076095019 0)
(0.47544279 0.0073395685 0)
(0.47271752 0.0070807221 0)
(0.46991317 0.0068325905 0)
(0.46703671 0.0065947257 0)
(0.46409495 0.0063666416 0)
(0.46109456 0.0061478464 0)
(0.45804198 0.0059378648 0)
(0.45494345 0.0057362488 0)
(0.45180497 0.005542584 0)
(0.4486323 0.0053564891 0)
(0.44543094 0.0051776161 0)
(0.44220615 0.0050056461 0)
(0.43896288 0.0048402868 0)
(0.43570585 0.0046812676 0)
(0.43243949 0.0045283374 0)
(0.42916794 0.0043812588 0)
(0.42589508 0.0042398078 0)
(0.42262449 0.0041037693 0)
(0.41935951 0.0039729369 0)
(0.41610319 0.0038471103 0)
(0.41285833 0.0037260963 0)
(0.40962749 0.0036097061 0)
(0.406413 0.0034977575 0)
(0.40321694 0.003390072 0)
(0.4000412 0.0032864773 0)
(0.39688746 0.0031868049 0)
(0.3937572 0.0030908927 0)
(0.39065175 0.0029985828 0)
(0.38757224 0.0029097242 0)
(0.3845197 0.0028241698 0)
(0.38149496 0.0027417797 0)
(0.37849877 0.0026624182 0)
(0.37553173 0.0025859562 0)
(0.37259436 0.0025122684 0)
(0.36968705 0.0024412365 0)
(0.36681015 0.002372745 0)
(0.36396386 0.0023066853 0)
(0.36114838 0.0022429513 0)
(0.35836378 0.0021814442 0)
(0.35561014 0.0021220672 0)
(0.3528874 0.0020647307 0)
(0.35019556 0.0020093471 0)
(0.34753447 0.0019558356 0)
(0.34490405 0.0019041165 0)
(0.34230407 0.0018541167 0)
(0.3397344 0.0018057631 0)
(0.33719476 0.0017589885 0)
(0.33468496 0.0017137255 0)
(0.33220469 0.0016699126 0)
(0.32975375 0.0016274882 0)
(0.32733177 0.0015863969 0)
(0.32493854 0.0015465829 0)
(0.32257367 0.001507997 0)
(0.32023694 0.0014705889 0)
(0.31792795 0.001434314 0)
(0.31564646 0.0013991256 0)
(0.31339207 0.0013649823 0)
(0.31116454 0.0013318399 0)
(0.30896347 0.0012996603 0)
(0.30678862 0.0012684023 0)
(0.30463959 0.0012380321 0)
(0.30251617 0.0012085128 0)
(0.30041793 0.0011798149 0)
(0.29834471 0.0011519049 0)
(0.29629606 0.0011247562 0)
(0.29427185 0.0010983363 0)
(0.29227164 0.0010726196 0)
(0.29029532 0.001047574 0)
(0.28834246 0.0010231752 0)
(0.28641297 0.00099939309 0)
(0.28450644 0.00097620667 0)
(0.28262283 0.00095358888 0)
(0.28076169 0.00093152212 0)
(0.27892305 0.00090998146 0)
(0.27710645 0.00088895084 0)
(0.27531197 0.0008684053 0)
(0.27353915 0.00084832877 0)
(0.27178811 0.00082869566 0)
(0.2700584 0.00080949059 0)
(0.2683502 0.00079068881 0)
(0.26666307 0.00077227731 0)
(0.26499725 0.00075423347 0)
(0.26335229 0.00073654723 0)
(0.2617285 0.00071919757 0)
(0.26012543 0.00070217616 0)
(0.25854346 0.00068546204 0)
(0.25698212 0.00066904727 0)
(0.25544186 0.00065290998 0)
(0.25392221 0.00063704241 0)
(0.25242372 0.00062142202 0)
(0.25094589 0.00060604209 0)
(0.24948937 0.0005908805 0)
(0.24805366 0.00057593266 0)
(0.2466395 0.00056117724 0)
(0.24524637 0.00054661167 0)
(0.24387515 0.00053221481 0)
(0.24252524 0.00051798564 0)
(0.24119768 0.00050390265 0)
(0.23989183 0.00048996624 0)
(0.23860885 0.00047615441 0)
(0.23734805 0.00046246935 0)
(0.23611075 0.00044888908 0)
(0.23489618 0.00043541853 0)
(0.23370582 0.00042203632 0)
(0.23253884 0.00040875027 0)
(0.23139686 0.00039553948 0)
(0.23027896 0.00038241492 0)
(0.22918695 0.00036935736 0)
(0.22811976 0.00035638243 0)
(0.22707938 0.00034347456 0)
(0.22606456 0.00033065412 0)
(0.2250775 0.00031790852 0)
(0.22411675 0.00030525793 0)
(0.22318468 0.00029268846 0)
(0.22227965 0.00028021419 0)
(0.22140423 0.00026782262 0)
(0.22055654 0.00025552662 0)
(0.21973933 0.0002433309 0)
(0.21895043 0.00023125679 0)
(0.21819269 0.00021933918 0)
(0.21746354 0.00020760319 0)
(0.21676585 0.0001961097 0)
(0.21609659 0.00018486552 0)
(0.21545862 0.00017394734 0)
(0.21484849 0.00016332714 0)
(0.214269 0.00015310225 0)
(0.21371634 0.00014321054 0)
(0.2131932 0.00013378603 0)
(0.2126954 0.0001247381 0)
(0.21222545 0.00011624434 0)
(0.21177878 0.00010818187 0)
(0.21135769 0.00010076158 0)
(0.21095724 9.3819961e-05 0)
(0.21057954 8.7580862e-05 0)
(0.21021941 8.1835498e-05 0)
(0.20987894 7.6792984e-05 0)
(0.20955281 7.2198196e-05 0)
(0.2092435 6.8210315e-05 0)
(0.20894567 6.4535756e-05 0)
(0.20866271 6.1261691e-05 0)
(0.20838927 5.8098959e-05 0)
(0.20813013 5.5084245e-05 0)
(0.20787957 5.2015153e-05 0)
(0.20764404 4.8932858e-05 0)
(0.20741656 4.5785249e-05 0)
(0.2072053 4.2643726e-05 0)
(0.20700099 3.9569501e-05 0)
(0.20681376 3.6637087e-05 0)
(0.20663131 3.389812e-05 0)
(0.20646629 3.1415918e-05 0)
(0.20630311 2.9113263e-05 0)
(0.20615777 2.7095583e-05 0)
(0.20601122 2.5121898e-05 0)
(0.20588349 2.3430176e-05 0)
(0.20575155 2.1662159e-05 0)
(0.2056401 2.0193959e-05 0)
(0.20552111 1.861328e-05 0)
(0.20542495 1.7330053e-05 0)
(0.20531723 1.5947954e-05 0)
(0.20523553 1.4827781e-05 0)
(0.20513736 1.3630201e-05 0)
(0.20506934 1.2683538e-05 0)
(0.20497894 1.1656804e-05 0)
(0.20492378 1.0907169e-05 0)
(0.20483924 1.0057942e-05 0)
(0.2047962 9.4806735e-06 0)
(0.20471542 8.8445404e-06 0)
(0.2046839 8.3917811e-06 0)
(0.20460457 8.0163202e-06 0)
(0.20458395 7.7090924e-06 0)
(0.20450338 7.5899783e-06 0)
(0.20449311 7.520253e-06 0)
(0.20440788 7.5767138e-06 0)
(0.48582732 0.013712849 0)
(0.48665987 0.016476628 0)
(0.48835159 0.018948288 0)
(0.49079625 0.02064378 0)
(0.49361539 0.021442518 0)
(0.49638444 0.021554045 0)
(0.49885763 0.021205527 0)
(0.50096827 0.02050942 0)
(0.50271404 0.019510042 0)
(0.50407808 0.018274361 0)
(0.50503079 0.016924377 0)
(0.50556891 0.015607352 0)
(0.50574267 0.014436087 0)
(0.50564499 0.013458225 0)