/*--------------------------------*- C++ -*----------------------------------*\
| =========                 |                                                 |
| \\      /  F ield         | OpenFOAM: The Open Source CFD Toolbox           |
|  \\    /   O peration     | Version:  5.x                                   |
|   \\  /    A nd           | Web:      www.OpenFOAM.org                      |
|    \\/     M anipulation  |                                                 |
\*---------------------------------------------------------------------------*/
FoamFile
{
    version     2.0;
    format      ascii;
    class       volScalarField;
    location    "1";
    object      p;
}
// * * * * * * * * * * * * * * * * * * * * * * * * * * * * * * * * * * * * * //

dimensions      [0 2 -2 0 0 0 0];

internalField   nonuniform List<scalar> 
10800
(
0.0448106
0.0397979
0.0330156
0.027122
0.0219635
0.0169072
0.0118024
0.00723352
0.00418026
0.0030689
0.00346486
0.00454369
0.00568238
0.00657918
0.0071583
0.00746598
0.00758963
0.00760842
0.00757631
0.0075237
0.00746567
0.0074081
0.0073513
0.00729347
0.00723407
0.0071742
0.00711513
0.00705632
0.00699538
0.00692987
0.00685923
0.00678425
0.00670553
0.00662333
0.00653859
0.00645306
0.00636821
0.00628424
0.00620028
0.00611571
0.00603056
0.00594543
0.00586043
0.00577559
0.00569127
0.00560737
0.00552281
0.0054371
0.00535003
0.00526159
0.00517203
0.00508216
0.00499203
0.00490154
0.00481031
0.0047187
0.00462713
0.00453637
0.00444608
0.00435594
0.00426495
0.00417318
0.00408043
0.00398696
0.00389233
0.0037967
0.00369935
0.00360112
0.00350248
0.00340406
0.00330495
0.00320522
0.00310453
0.00300356
0.00290134
0.00279751
0.00269178
0.00258527
0.00247771
0.00236911
0.00225959
0.00214967
0.00203893
0.00192675
0.00181351
0.00169865
0.00158302
0.00146563
0.00134857
0.00122972
0.00111194
0.000991485
0.000873121
0.000750825
0.000632931
0.000510007
0.000395215
0.000273168
0.000165225
4.41318e-05
0.0413549
0.0383751
0.0325583
0.0268394
0.0217558
0.0168678
0.0119797
0.00758934
0.00456762
0.00337174
0.00367176
0.00468836
0.00578577
0.00665278
0.00721179
0.00750732
0.00762386
0.00763828
0.00760316
0.00754816
0.00748805
0.00742862
0.00737012
0.0073107
0.00724984
0.00718866
0.00712846
0.00706871
0.00700694
0.00694068
0.00686935
0.00679375
0.00671447
0.00663174
0.0065465
0.00646051
0.00637525
0.0062909
0.00620661
0.00612171
0.00603626
0.00595083
0.00586557
0.00578047
0.00569592
0.00561181
0.00552704
0.00544114
0.00535389
0.00526529
0.00517556
0.00508553
0.00499526
0.00490463
0.00481327
0.00472153
0.00462984
0.00453896
0.00444858
0.00435833
0.00426725
0.00417539
0.00408256
0.003989
0.0038943
0.00379859
0.00370118
0.00360286
0.00350416
0.00340567
0.00330652
0.00320672
0.00310598
0.00300496
0.00290269
0.00279881
0.00269304
0.00258647
0.00247889
0.00237023
0.00226068
0.00215071
0.00203995
0.00192773
0.00181446
0.00169956
0.00158392
0.00146648
0.00134941
0.00123052
0.00111273
0.00099223
0.000873861
0.000751524
0.00063363
0.000510665
0.000395877
0.000273791
0.000165857
4.4741e-05
0.0387723
0.0370692
0.0321937
0.0266873
0.0216419
0.0169178
0.0123321
0.00822849
0.00528601
0.00394793
0.00403866
0.00490449
0.00591444
0.00672997
0.00726146
0.00754438
0.00765601
0.0076686
0.00763235
0.00757602
0.00751422
0.00745286
0.00739236
0.00733099
0.00726826
0.00720532
0.00714349
0.00708231
0.00701931
0.00695198
0.00687972
0.00680331
0.00672332
0.00663996
0.00655415
0.00646763
0.0063819
0.00629714
0.00621247
0.00612723
0.00604147
0.00595575
0.00587023
0.00578488
0.0057001
0.00561578
0.00553082
0.00544473
0.00535731
0.00526854
0.00517866
0.00508849
0.00499808
0.00490732
0.00481585
0.00472399
0.00463219
0.00454121
0.00445073
0.0043604
0.00426924
0.00417729
0.00408439
0.00399075
0.00389599
0.00380021
0.00370273
0.00360436
0.0035056
0.00340705
0.00330785
0.00320799
0.00310722
0.00300614
0.00290384
0.00279991
0.00269411
0.0025875
0.00247988
0.00237118
0.0022616
0.0021516
0.00204081
0.00192855
0.00181527
0.00170033
0.00158467
0.00146719
0.00135011
0.00123118
0.00111338
0.000992853
0.00087448
0.000752106
0.000634211
0.000511208
0.000396424
0.000274302
0.000166365
4.52117e-05
0.0367756
0.0357542
0.0317127
0.0265317
0.0215749
0.0170165
0.0127343
0.00892905
0.00610123
0.00465134
0.00452036
0.00519628
0.00609185
0.00684687
0.00734593
0.00761083
0.00771208
0.00771823
0.00767738
0.00761717
0.00755174
0.00748691
0.00742321
0.00735896
0.00729364
0.00722827
0.00716413
0.0071008
0.00703594
0.00696708
0.00689353
0.00681601
0.00673503
0.0066508
0.00656422
0.00647697
0.00639055
0.00630513
0.00621988
0.00613412
0.00604791
0.00596181
0.00587592
0.00579024
0.00570514
0.00562054
0.00553532
0.00544898
0.00536133
0.00527235
0.00518226
0.0050919
0.00500131
0.00491038
0.00481876
0.00472676
0.00463483
0.00454372
0.00445314
0.00436269
0.00427143
0.00417939
0.0040864
0.00399267
0.00389783
0.00380197
0.00370442
0.00360597
0.00350714
0.00340853
0.00330927
0.00320936
0.00310853
0.0030074
0.00290507
0.00280109
0.00269523
0.00258857
0.00248092
0.00237217
0.00226256
0.00215252
0.00204171
0.00192941
0.00181611
0.00170113
0.00158545
0.00146793
0.00135083
0.00123187
0.00111406
0.000993492
0.000875111
0.0007527
0.000634796
0.000511758
0.000396966
0.000274816
0.00016684
4.56561e-05
0.0350828
0.0344107
0.0310718
0.0263193
0.0215329
0.0171465
0.0131329
0.00959583
0.00689054
0.00536424
0.00503506
0.00551869
0.00629107
0.00698239
0.00744932
0.00769608
0.00778563
0.00778354
0.00773643
0.00767104
0.00760096
0.00753178
0.00746407
0.00739626
0.00732778
0.0072594
0.00719227
0.00712605
0.00705863
0.00698764
0.00691233
0.00683326
0.00675092
0.00666553
0.00657794
0.00648975
0.00640237
0.00631602
0.0062299
0.0061434
0.00605655
0.00596988
0.00588347
0.00579731
0.00571177
0.00562677
0.00554117
0.00545449
0.00536654
0.00527727
0.00518692
0.00509629
0.00500544
0.00491427
0.00482243
0.00473023
0.00463813
0.00454686
0.00445611
0.00436552
0.00427413
0.00418196
0.00408886
0.00399502
0.00390006
0.0038041
0.00370645
0.0036079
0.00350899
0.00341029
0.00331096
0.00321097
0.00311008
0.00300889
0.00290649
0.00280245
0.00269654
0.00258982
0.00248213
0.00237332
0.00226367
0.00215358
0.00204273
0.00193039
0.00181705
0.00170203
0.00158632
0.00146876
0.00135164
0.00123264
0.00111481
0.000994202
0.000875804
0.000753353
0.00063543
0.000512357
0.000397538
0.000275369
0.000167301
4.61066e-05
0.0335849
0.0330866
0.030319
0.026055
0.0215163
0.0173095
0.0135214
0.0102118
0.00762668
0.00605406
0.00555749
0.00585816
0.00650283
0.00712597
0.0075603
0.00779011
0.00786851
0.00785775
0.00780362
0.00773239
0.00765723
0.00758342
0.00751154
0.00744004
0.00736825
0.00729664
0.00722622
0.00715674
0.00708639
0.00701295
0.00693559
0.00685471
0.00677078
0.00668405
0.00659532
0.00650605
0.00641756
0.00633005
0.00624284
0.00615539
0.00606772
0.00598032
0.00589323
0.00580644
0.0057203
0.00563474
0.00554864
0.00546152
0.00537318
0.00528357
0.0051929
0.00510195
0.00501076
0.00491926
0.00482713
0.00473468
0.00464234
0.00455083
0.00445987
0.00436908
0.00427752
0.00418519
0.00409193
0.00399794
0.00390284
0.00380674
0.00370895
0.00361028
0.00351125
0.00341245
0.00331302
0.00321294
0.00311196
0.00301068
0.00290821
0.00280409
0.00269811
0.00259132
0.00248356
0.00237469
0.00226498
0.00215483
0.00204394
0.00193154
0.00181816
0.00170309
0.00158734
0.00146973
0.00135257
0.00123352
0.00111566
0.00099501
0.000876581
0.000754088
0.000636129
0.000513021
0.000398148
0.000275976
0.000167739
4.65721e-05
0.0322342
0.0318264
0.0295141
0.025745
0.0215119
0.017497
0.0138985
0.0107772
0.00830574
0.00671307
0.00608104
0.00621332
0.00672822
0.00727754
0.00767704
0.00789047
0.00795852
0.00793893
0.00787694
0.00779897
0.00771808
0.00763928
0.00756304
0.00748773
0.00741249
0.00733751
0.00726363
0.00719071
0.00711729
0.00704128
0.00696176
0.00687896
0.00679336
0.00670524
0.00661535
0.00652498
0.00643533
0.0063466
0.00625823
0.00616974
0.00608117
0.00599293
0.00590506
0.00581751
0.00573066
0.00564443
0.00555772
0.00547005
0.00538125
0.00529126
0.00520023
0.00510892
0.00501734
0.00492546
0.00483298
0.00474023
0.00464759
0.00455579
0.00446453
0.00437349
0.0042817
0.00418918
0.00409574
0.00400158
0.00390629
0.00381001
0.00371206
0.00361325
0.00351406
0.00341511
0.00331554
0.00321535
0.00311427
0.00301289
0.00291031
0.0028061
0.00270003
0.00259314
0.00248529
0.00237634
0.00226656
0.00215634
0.00204538
0.00193292
0.00181948
0.00170434
0.00158854
0.00147086
0.00135366
0.00123455
0.00111665
0.00099595
0.000877474
0.000754934
0.000636917
0.000513775
0.000398812
0.000276657
0.000168149
4.70749e-05
0.0309984
0.0306464
0.0286969
0.0253943
0.0215008
0.0176946
0.0142633
0.0112995
0.00893257
0.00733934
0.00660151
0.00658291
0.00696881
0.00743868
0.00779957
0.00799616
0.00805466
0.00802641
0.00795583
0.00787011
0.00778267
0.00769832
0.00761739
0.00753807
0.00745923
0.00738073
0.00730325
0.0072268
0.00715022
0.00707156
0.00698982
0.00690503
0.0068177
0.00672814
0.00663707
0.00654559
0.00645478
0.00636483
0.00627529
0.00618576
0.00609628
0.00600717
0.00591846
0.0058301
0.00574246
0.00565548
0.0055681
0.00547983
0.00539051
0.00530011
0.00520871
0.00511702
0.00502503
0.00493276
0.00483992
0.00474685
0.00465388
0.00456174
0.00447012
0.00437875
0.0042867
0.00419395
0.00410028
0.00400593
0.00391044
0.00381396
0.00371583
0.00361685
0.00351749
0.00341835
0.00331861
0.00321828
0.00311707
0.00301556
0.00291286
0.00280853
0.00270236
0.00259536
0.0024874
0.00237834
0.00226847
0.00215816
0.00204712
0.00193458
0.00182107
0.00170585
0.00158998
0.00147223
0.00135496
0.00123579
0.00111782
0.000997062
0.000878521
0.000755927
0.000637825
0.000514651
0.00039955
0.000277436
0.000168542
4.76463e-05
0.0298534
0.0295499
0.0278946
0.025013
0.0214702
0.0178885
0.0146152
0.0117865
0.00951343
0.00793182
0.00711328
0.00696267
0.00722389
0.00761013
0.00792794
0.00810616
0.00815568
0.00811938
0.00803992
0.00794559
0.00785071
0.00776017
0.00767413
0.00759058
0.00750799
0.00742583
0.00734464
0.00726457
0.00718475
0.00710338
0.00701933
0.00693247
0.00684332
0.00675226
0.00665997
0.00656735
0.00647537
0.0063842
0.00629348
0.00620291
0.00611251
0.00602252
0.00593295
0.00584374
0.0057553
0.00566754
0.00557943
0.00549052
0.00540065
0.00530979
0.00521801
0.00512593
0.00503356
0.00494089
0.0048477
0.00475432
0.00466103
0.00456851
0.00447652
0.00438478
0.00429242
0.00419939
0.00410548
0.00401091
0.00391521
0.00381852
0.00372022
0.00362107
0.00352151
0.00342216
0.00332223
0.00322172
0.00312036
0.00301869
0.00291585
0.0028114
0.00270512
0.00259799
0.0024899
0.00238072
0.00227075
0.00216032
0.00204919
0.00193655
0.00182296
0.00170764
0.0015917
0.00147385
0.00135651
0.00123725
0.00111921
0.000998377
0.000879755
0.000757096
0.000638881
0.000515675
0.000400383
0.000278335
0.000168934
4.83131e-05
0.0287857
0.0285351
0.0271247
0.0246135
0.021414
0.0180677
0.0149514
0.0122434
0.0100535
0.00848989
0.00761088
0.00734713
0.00749143
0.00779225
0.00806264
0.00821996
0.00826051
0.00821709
0.00812899
0.00802543
0.00792228
0.00782485
0.00773321
0.00764514
0.00755868
0.00747275
0.00738774
0.00730393
0.00722078
0.00713659
0.00705015
0.00696113
0.00687009
0.00677745
0.00668387
0.00659006
0.00649688
0.00640446
0.00631256
0.00622091
0.00612957
0.00603869
0.00594824
0.00585817
0.00576889
0.00568032
0.00559148
0.00550188
0.00541144
0.00532009
0.00522792
0.00513544
0.00504267
0.00494961
0.00485609
0.00476241
0.0046688
0.00457592
0.00448353
0.00439141
0.00429873
0.00420539
0.00411121
0.0040164
0.00392049
0.00382357
0.0037251
0.00362579
0.00352605
0.00342647
0.00332633
0.00322563
0.0031241
0.00302225
0.00291925
0.00281466
0.00270828
0.00260101
0.0024928
0.00238348
0.00227339
0.00216281
0.00205159
0.00193883
0.00182516
0.00170973
0.0015937
0.00147574
0.00135831
0.00123895
0.00112083
0.000999908
0.00088119
0.000758458
0.000640104
0.000516864
0.000401326
0.000279367
0.000169345
4.90856e-05
0.0277896
0.027599
0.026398
0.0242085
0.0213312
0.0182246
0.0152678
0.0126724
0.0105571
0.00901435
0.00809064
0.00773155
0.00776897
0.00798516
0.00820454
0.00833775
0.00836852
0.00831883
0.00822278
0.00810974
0.00799751
0.00789244
0.00779467
0.00770175
0.00761126
0.00752149
0.00743254
0.00734489
0.0072583
0.00717121
0.00708227
0.00699101
0.00689798
0.00680369
0.00670874
0.00661369
0.00651925
0.00642554
0.00633241
0.00623967
0.00614736
0.00605556
0.00596419
0.00587323
0.0057831
0.0056937
0.0056041
0.0055138
0.00542275
0.0053309
0.0052383
0.00514542
0.00505225
0.00495879
0.00486495
0.00477096
0.00467705
0.00458379
0.00449102
0.0043985
0.00430549
0.00421182
0.00411735
0.00402227
0.00392614
0.00382899
0.00373037
0.0036309
0.00353099
0.00343118
0.00333084
0.00322992
0.00312822
0.00302615
0.00292299
0.00281825
0.00271177
0.00260435
0.00249603
0.00238656
0.00227636
0.00216562
0.00205428
0.00194138
0.00182763
0.00171208
0.00159597
0.00147789
0.00136037
0.00124088
0.00112268
0.00100165
0.000882824
0.000760012
0.000641494
0.000518221
0.000402382
0.000280531
0.000169793
4.99515e-05
0.0268667
0.0267422
0.025724
0.0238111
0.0212265
0.0183549
0.0155596
0.0130736
0.0110276
0.00950716
0.00855061
0.00811214
0.00805364
0.00818822
0.00835433
0.00846005
0.00847935
0.00842378
0.00832068
0.00819829
0.00807634
0.00796289
0.00785845
0.00776033
0.00766561
0.00757194
0.00747898
0.00738739
0.00729729
0.00720723
0.00711569
0.00702208
0.00692698
0.00683096
0.00673457
0.0066382
0.00654245
0.00644742
0.00635302
0.00625914
0.00616584
0.00607309
0.00598078
0.00588889
0.00579788
0.00570764
0.00561725
0.00552622
0.00543454
0.00534216
0.00524913
0.00515581
0.00506222
0.00496837
0.00487419
0.0047799
0.00468568
0.00459204
0.00449888
0.00440596
0.0043126
0.00421859
0.00412381
0.00402845
0.0039321
0.0038347
0.00373593
0.00363631
0.00353624
0.00343619
0.00333566
0.00323451
0.00313263
0.00303033
0.002927
0.00282209
0.00271552
0.00260796
0.00249953
0.0023899
0.0022796
0.00216867
0.00205722
0.00194416
0.00183034
0.00171464
0.00159847
0.00148025
0.00136266
0.00124302
0.00112472
0.00100357
0.000884634
0.000761739
0.000643037
0.000519737
0.000403547
0.000281812
0.000170288
5.08789e-05
0.0260204
0.0259687
0.0251112
0.0234344
0.021108
0.0184584
0.0158241
0.0134471
0.0114683
0.00997162
0.00899091
0.00848667
0.00834314
0.00840064
0.0085126
0.00858771
0.00859308
0.00853122
0.00842198
0.00829082
0.00815887
0.00803638
0.00792472
0.007821
0.00772177
0.00762407
0.00752703
0.0074314
0.0073377
0.00724458
0.00715036
0.00705431
0.00695705
0.00685922
0.00676131
0.00666357
0.00656646
0.00647007
0.00637436
0.00627931
0.00618498
0.00609124
0.00599795
0.00590512
0.0058132
0.00572209
0.0056309
0.00553912
0.00544678
0.00535385
0.00526036
0.0051666
0.00507258
0.00497831
0.00488379
0.00478918
0.00469465
0.00460063
0.00450707
0.00441374
0.00432003
0.00422566
0.00413056
0.00403491
0.00393832
0.00384067
0.00374174
0.00364196
0.00354173
0.00344146
0.00334073
0.00323936
0.0031373
0.00303474
0.00293124
0.00282614
0.00271949
0.00261176
0.00250325
0.00239346
0.00228306
0.00217194
0.00206038
0.00194713
0.00183323
0.00171739
0.00160116
0.0014828
0.00136512
0.00124534
0.00112693
0.00100565
0.00088659
0.000763614
0.00064471
0.000521391
0.000404807
0.000283189
0.000170834
5.1827e-05
0.0252507
0.0252773
0.0245629
0.0230854
0.0209813
0.0185353
0.0160589
0.013792
0.0118815
0.010411
0.00941317
0.00885441
0.00863636
0.00862204
0.00868004
0.00872207
0.00871069
0.00864139
0.0085267
0.00838778
0.00824591
0.00811374
0.00799415
0.0078843
0.00778017
0.00767818
0.00757697
0.00747722
0.00737978
0.00728352
0.00718651
0.00708789
0.00698834
0.00688861
0.00678909
0.0066899
0.00659137
0.00649356
0.0063965
0.00630023
0.00620483
0.00611007
0.00601576
0.00592194
0.00582909
0.00573709
0.00564507
0.00555252
0.0054595
0.00536599
0.00527202
0.0051778
0.00508333
0.00498863
0.00489375
0.00479881
0.00470394
0.00460953
0.00451556
0.00442182
0.00432775
0.00423302
0.00413759
0.00404164
0.0039448
0.00384689
0.00374779
0.00364784
0.00354746
0.00344695
0.00334603
0.00324442
0.00314217
0.00303937
0.00293568
0.00283038
0.00272363
0.00261575
0.00250714
0.0023972
0.0022867
0.00217539
0.0020637
0.00195027
0.00183628
0.00172028
0.001604
0.0014855
0.00136774
0.0012478
0.00112928
0.00100786
0.000888661
0.000765612
0.000646483
0.00052316
0.000406145
0.000284638
0.00017143
5.27586e-05
0.0245326
0.0246556
0.0240732
0.0227626
0.0208451
0.0185809
0.0162568
0.0141017
0.0122625
0.0108224
0.00981447
0.00921151
0.00892875
0.00884853
0.00885433
0.0088622
0.00883177
0.00875346
0.00863361
0.00848816
0.00833694
0.00819464
0.00806638
0.00794991
0.00784054
0.00773404
0.00762858
0.0075247
0.00742347
0.00732396
0.00722409
0.00712281
0.00702087
0.00691915
0.00681794
0.00671723
0.00661721
0.00651793
0.00641945
0.00632193
0.00622541
0.00612959
0.00603421
0.00593938
0.00584556
0.00575265
0.00565977
0.00556644
0.00547271
0.0053786
0.00528412
0.00518942
0.00509448
0.00499933
0.00490407
0.00480879
0.00471358
0.00461875
0.00452437
0.0044302
0.00433576
0.00424066
0.00414489
0.00404862
0.00395153
0.00385334
0.00375407
0.00365395
0.0035534
0.00345265
0.00335153
0.00324968
0.00314724
0.00304418
0.00294029
0.0028348
0.00272795
0.0026199
0.00251119
0.00240109
0.0022905
0.00217898
0.00206717
0.00195355
0.00183947
0.00172331
0.00160696
0.00148833
0.00137048
0.00125039
0.00113174
0.00101019
0.000890827
0.000767716
0.000648338
0.000525023
0.000407546
0.000286141
0.000172072
5.36481e-05
0.023881
0.0241174
0.0236516
0.0224734
0.0207061
0.0185981
0.0164169
0.0143734
0.0126085
0.0112037
0.0101928
0.00955496
0.00921689
0.00907699
0.00903325
0.00900706
0.00895597
0.00886674
0.00874123
0.00859027
0.0084307
0.00827824
0.00814073
0.00801722
0.0079024
0.00779118
0.00768136
0.0075734
0.00746839
0.00736558
0.00726279
0.0071588
0.0070544
0.00695061
0.00684766
0.00674536
0.00664382
0.00654304
0.00644311
0.00634429
0.00624663
0.00614973
0.00605326
0.00595737
0.00586258
0.00576873
0.00567499
0.00558084
0.00548638
0.00539164
0.00529665
0.00520144
0.00510602
0.00501041
0.00491475
0.00481912
0.00472354
0.0046283
0.00453349
0.00443889
0.00434407
0.00424858
0.00415246
0.00405587
0.00395852
0.00386005
0.00376059
0.00366028
0.00355955
0.00345857
0.00335724
0.00325514
0.00315251
0.00304918
0.00294509
0.00283939
0.00273244
0.00262421
0.0025154
0.00240514
0.00229445
0.00218273
0.00207079
0.00195698
0.00184278
0.00172647
0.00161003
0.00149128
0.00137333
0.0012531
0.0011343
0.00101263
0.000893075
0.000769913
0.000650259
0.000526966
0.000409001
0.00028768
0.000172759
5.44821e-05
0.0233428
0.0236962
0.0233188
0.0222369
0.0205855
0.0186072
0.0165541
0.0146177
0.0129276
0.011562
0.0105542
0.00988899
0.00950351
0.00930978
0.00921912
0.00915918
0.00908614
0.0089837
0.00885101
0.00869486
0.00852809
0.00836583
0.00821851
0.00808733
0.00796674
0.00785051
0.00773602
0.00762384
0.00751504
0.00740883
0.007303
0.00719622
0.00708925
0.00698326
0.00687847
0.00677452
0.00667138
0.00656904
0.00646762
0.00636746
0.0062686
0.00617057
0.00607297
0.005976
0.00588019
0.00578539
0.00569075
0.00559577
0.00550056
0.00540517
0.00530963
0.0052139
0.00511798
0.00502189
0.00492582
0.0048298
0.00473386
0.00463818
0.00454293
0.00444789
0.00435268
0.00425679
0.00416031
0.0040634
0.00396577
0.00386701
0.00376735
0.00366684
0.00356593
0.0034647
0.00336315
0.00326081
0.00315797
0.00305437
0.00295008
0.00284416
0.00273709
0.00262869
0.00251977
0.00240935
0.00229854
0.00218662
0.00207454
0.00196053
0.00184622
0.00172975
0.00161322
0.00149434
0.00137628
0.00125592
0.00113695
0.00101517
0.000895399
0.0007722
0.000652241
0.000528978
0.000410504
0.000289245
0.000173489
5.52569e-05
0.0228854
0.0233687
0.0230633
0.0220492
0.0204845
0.0186104
0.016669
0.0148332
0.0132176
0.0118948
0.0108967
0.0102118
0.00978709
0.00954575
0.0094109
0.00931764
0.00922195
0.00910457
0.00896301
0.00880155
0.00862877
0.00845752
0.00830003
0.00816043
0.00803365
0.00791217
0.00779269
0.00767608
0.00756347
0.00745383
0.00734484
0.00723517
0.00712554
0.00701722
0.00691049
0.00680481
0.00669999
0.00659602
0.00649306
0.00639149
0.00629139
0.00619218
0.00609341
0.00599531
0.00589846
0.00580267
0.00570711
0.00561126
0.00551527
0.0054192
0.00532309
0.00522683
0.00513038
0.00503378
0.00493728
0.00484087
0.00474453
0.0046484
0.00455271
0.00445722
0.00436161
0.00426531
0.00416845
0.0040712
0.00397329
0.00387423
0.00377436
0.00367365
0.00357254
0.00347105
0.00336928
0.00326668
0.00316363
0.00305976
0.00295525
0.00284912
0.00274192
0.00263334
0.00252429
0.00241371
0.00230278
0.00219066
0.00207842
0.00196423
0.00184978
0.00173317
0.00161652
0.00149753
0.00137933
0.00125885
0.00113969
0.00101781
0.000897797
0.000774573
0.000654285
0.000531054
0.000412057
0.000290828
0.000174264
5.59738e-05
0.0224463
0.0230698
0.0228424
0.0218883
0.0203946
0.018605
0.016758
0.0150147
0.013473
0.0121968
0.011215
0.0105189
0.0100631
0.00978044
0.00960448
0.00947891
0.00936098
0.00922809
0.00907618
0.00890866
0.00873072
0.00855173
0.00838426
0.0082356
0.00810221
0.00797544
0.00785083
0.00772953
0.00761307
0.0075001
0.00738793
0.00727527
0.00716295
0.00705224
0.00694346
0.00683599
0.00672946
0.00662381
0.00651925
0.00641625
0.00631489
0.00621447
0.00611448
0.00601523
0.00591731
0.00582051
0.00572402
0.00562729
0.00553049
0.00543372
0.00533702
0.0052402
0.0051432
0.00504608
0.00494914
0.00485232
0.00475557
0.00465898
0.00456282
0.00446687
0.00437086
0.00427413
0.0041769
0.00407929
0.00398109
0.00388172
0.00378162
0.00368069
0.00357939
0.00347763
0.00337563
0.00327277
0.00316949
0.00306535
0.00296061
0.00285426
0.00274692
0.00263816
0.00252898
0.00241823
0.00230716
0.00219485
0.00208245
0.00196807
0.00185347
0.00173671
0.00161994
0.00150084
0.00138248
0.00126189
0.00114251
0.00102055
0.000900272
0.00077703
0.000656391
0.000533188
0.000413661
0.000292423
0.000175084
5.66372e-05
0.0220108
0.0227798
0.0226414
0.0217487
0.0203175
0.0185974
0.0168281
0.015167
0.0136966
0.0124689
0.0115094
0.0108096
0.0103304
0.0100129
0.00979965
0.00964304
0.00950341
0.00935495
0.00919139
0.00901645
0.00883356
0.00864812
0.00847136
0.00831317
0.00817259
0.00804046
0.00791071
0.00778443
0.00766395
0.00754773
0.00743242
0.00731666
0.00720156
0.00708842
0.00697748
0.00686814
0.00675986
0.00665247
0.00654627
0.0064418
0.00633913
0.00623746
0.00613623
0.00603579
0.00593677
0.00583895
0.00574149
0.00564386
0.00554623
0.00544874
0.00535143
0.00525403
0.00515646
0.00505881
0.0049614
0.00486415
0.00476698
0.00466991
0.00457328
0.00447687
0.00438043
0.00428327
0.00418564
0.00408768
0.00398917
0.00388948
0.00378914
0.003688
0.00358648
0.00348445
0.00338221
0.00327908
0.00317557
0.00307115
0.00296617
0.0028596
0.00275211
0.00264317
0.00253383
0.00242292
0.00231171
0.0021992
0.00208661
0.00197206
0.00185729
0.00174039
0.00162347
0.00150427
0.00138574
0.00126505
0.00114543
0.0010234
0.000902826
0.000779569
0.000658563
0.000535376
0.00041532
0.000294026
0.000175946
5.72526e-05
0.0215815
0.0224969
0.0224561
0.0216287
0.0202552
0.0185941
0.0168879
0.0152968
0.0138927
0.0127138
0.0117802
0.0110834
0.0105881
0.0102426
0.00999648
0.00981039
0.00964936
0.00948549
0.00930942
0.00912553
0.00893728
0.0087465
0.00856148
0.00839362
0.00824518
0.00810747
0.00797267
0.00784121
0.00771634
0.00759682
0.00747847
0.00735953
0.00724149
0.00712585
0.00701269
0.00690136
0.00679129
0.00668212
0.0065742
0.0064682
0.00636419
0.00626123
0.00615872
0.00605704
0.0059569
0.00585802
0.00575959
0.00566102
0.00556254
0.00546429
0.00536635
0.00526835
0.00517019
0.00507198
0.00497409
0.00487639
0.00477878
0.00468121
0.0045841
0.00448721
0.00439034
0.00429274
0.0041947
0.00409638
0.00399755
0.00389754
0.00379694
0.00369556
0.00359381
0.00349151
0.00338901
0.00328561
0.00318186
0.00307716
0.00297194
0.00286515
0.00275748
0.00264836
0.00253886
0.00242779
0.00231641
0.00220371
0.00209093
0.0019762
0.00186125
0.00174422
0.00162713
0.00150783
0.0013891
0.00126832
0.00114845
0.00102634
0.000905464
0.000782191
0.000660806
0.000537615
0.000417036
0.000295636
0.00017685
5.78263e-05
0.0211644
0.0222239
0.0222849
0.0215259
0.020207
0.0185972
0.0169423
0.0154087
0.014064
0.0129324
0.0120271
0.0113389
0.0108347
0.0104679
0.0101941
0.00998048
0.00979826
0.00961924
0.00943042
0.00923627
0.00904175
0.00884625
0.00865419
0.00847694
0.00832
0.00817631
0.00803658
0.00789989
0.00777021
0.00764716
0.00752589
0.00740382
0.00728271
0.00716448
0.00704909
0.00693567
0.0068237
0.00671273
0.00660304
0.00649545
0.00639005
0.00628577
0.00618194
0.00607899
0.00597769
0.00587774
0.00577829
0.00567877
0.00557941
0.00548038
0.00538179
0.00528316
0.0051844
0.0050856
0.00498721
0.00488904
0.00479097
0.0046929
0.00459528
0.00449792
0.0044006
0.00430254
0.00420409
0.00410539
0.00400623
0.00390589
0.00380502
0.00370339
0.00360141
0.00349883
0.00339606
0.00329239
0.00318838
0.0030834
0.00297792
0.0028709
0.00276305
0.00265374
0.00254406
0.00243283
0.00232127
0.00220839
0.00209539
0.0019805
0.00186534
0.00174818
0.00163091
0.00151151
0.00139258
0.0012717
0.00115157
0.00102938
0.000908191
0.000784891
0.000663125
0.000539902
0.000418813
0.000297254
0.000177794
5.83647e-05
0.0207635
0.0219626
0.0221258
0.021436
0.0201696
0.0186063
0.0169943
0.0155065
0.0142124
0.0131256
0.0122503
0.0115752
0.0110685
0.0106872
0.0103909
0.0101524
0.00994942
0.00975554
0.00955414
0.00934879
0.00914677
0.00894663
0.00874867
0.00856272
0.0083969
0.0082467
0.00810209
0.00796033
0.00782555
0.00769862
0.00757451
0.00744951
0.00732523
0.00720426
0.00708661
0.00697105
0.00685706
0.00674423
0.00663277
0.00652352
0.00641669
0.00631105
0.00620587
0.00610162
0.00599913
0.00589807
0.00579761
0.00569711
0.00559683
0.00549701
0.00539774
0.00529847
0.00519908
0.00509968
0.00500076
0.00490211
0.00480357
0.00470497
0.00460684
0.004509
0.00441121
0.00431268
0.00421381
0.00411473
0.00401522
0.00391454
0.00381338
0.0037115
0.00360926
0.0035064
0.00340335
0.0032994
0.00319512
0.00308987
0.00298411
0.00287686
0.00276882
0.00265933
0.00254945
0.00243806
0.0023263
0.00221324
0.00210001
0.00198495
0.00186958
0.0017523
0.00163482
0.00151534
0.00139617
0.00127521
0.00115479
0.00103253
0.000911011
0.000787671
0.000665524
0.000542236
0.000420652
0.000298878
0.000178773
5.88738e-05
0.0203799
0.0217131
0.0219766
0.0213557
0.0201401
0.0186201
0.0170452
0.0155932
0.0143405
0.0132951
0.0124505
0.0117919
0.011288
0.0108983
0.0105851
0.0103249
0.0101021
0.00989368
0.00968012
0.00946308
0.00925236
0.00904717
0.00884422
0.00865055
0.00847586
0.00831858
0.00816899
0.00802245
0.00788253
0.00775132
0.00762424
0.00749649
0.00736906
0.00724515
0.00712517
0.00700748
0.00689137
0.00677662
0.00666336
0.00655241
0.0064441
0.00633709
0.00623052
0.00612494
0.00602123
0.00591905
0.00581755
0.00571605
0.00561483
0.00551418
0.00541421
0.00531429
0.00521424
0.00511422
0.00501476
0.00491562
0.00481658
0.00471743
0.00461878
0.00452045
0.00442219
0.00432318
0.00422388
0.00412439
0.00402452
0.0039235
0.00382204
0.00371989
0.00361739
0.00351424
0.00341089
0.00330666
0.00320211
0.00309657
0.00299053
0.00288305
0.0027748
0.00266512
0.00255503
0.00244347
0.00233151
0.00221826
0.0021048
0.00198957
0.00187397
0.00175656
0.00163886
0.00151929
0.00139988
0.00127883
0.00115812
0.00103578
0.000913929
0.000790527
0.000668005
0.000544616
0.000422554
0.000300513
0.000179785
5.93596e-05
0.0200135
0.0214754
0.0218364
0.0212831
0.0201166
0.0186369
0.0170948
0.0156713
0.0144513
0.0134425
0.0126287
0.0119891
0.0114922
0.0110993
0.0107746
0.0104968
0.0102557
0.010033
0.00980794
0.00957923
0.00935879
0.00914785
0.00894041
0.00874002
0.00855678
0.00839202
0.00823718
0.00808613
0.00794122
0.00780534
0.00767497
0.00754458
0.00741416
0.00728718
0.00716472
0.00704496
0.00692672
0.00680992
0.00669484
0.00658218
0.00647231
0.0063639
0.00625592
0.00614897
0.00604401
0.00594067
0.0058381
0.00573559
0.00563342
0.00553192
0.00543123
0.00533063
0.0052299
0.00512924
0.00502922
0.00492956
0.00483
0.00473031
0.00463111
0.00453229
0.00443353
0.00433403
0.00423429
0.0041344
0.00403415
0.00393278
0.00383101
0.00372858
0.0036258
0.00352235
0.00341869
0.00331418
0.00320934
0.00310351
0.00299718
0.00288947
0.00278099
0.00267112
0.00256081
0.00244908
0.0023369
0.00222346
0.00210975
0.00199436
0.00187852
0.00176098
0.00164305
0.00152339
0.00140372
0.00128257
0.00116156
0.00103912
0.000916949
0.000793461
0.000670572
0.000547041
0.000424518
0.00030216
0.000180825
5.98272e-05
0.0196639
0.0212493
0.0217047
0.0212174
0.0200973
0.0186547
0.0171423
0.0157422
0.0145476
0.0135699
0.0127858
0.012167
0.0116803
0.0112886
0.0109576
0.0106667
0.0104094
0.0101732
0.00993731
0.00969728
0.00946631
0.00924867
0.00903681
0.00883055
0.00863936
0.00846699
0.00830656
0.0081511
0.00800147
0.00786076
0.00772667
0.00759365
0.00746051
0.00733044
0.00720529
0.00708344
0.00696314
0.00684419
0.00672719
0.00661279
0.00650131
0.00639145
0.00628206
0.00617369
0.00606745
0.00596296
0.00585931
0.00575576
0.0056526
0.00555023
0.0054488
0.0053475
0.00524607
0.00514475
0.00504414
0.00494395
0.00484386
0.0047436
0.00464384
0.00454452
0.00444526
0.00434526
0.00424506
0.00414476
0.00404412
0.0039424
0.00384028
0.00373756
0.00363449
0.00353075
0.00342676
0.00332196
0.00321682
0.00311071
0.00300406
0.00289612
0.00278741
0.00267734
0.00256679
0.00245489
0.00234248
0.00222885
0.00211488
0.00199932
0.00188322
0.00176555
0.00164739
0.00152762
0.0014077
0.00128643
0.00116513
0.00104257
0.000920076
0.000796472
0.000673226
0.000549513
0.000426543
0.000303821
0.00018189
6.02811e-05
0.019331
0.0210349
0.0215812
0.0211571
0.0200804
0.0186714
0.0171862
0.0158065
0.0146318
0.0136795
0.012923
0.0123262
0.0118524
0.0114654
0.0111327
0.0108333
0.0105626
0.0103137
0.0100677
0.00981694
0.00957486
0.00934948
0.00913304
0.00892164
0.00872325
0.00854336
0.00837703
0.00821713
0.0080631
0.00791763
0.00777945
0.0076436
0.007508
0.00737499
0.00724691
0.00712278
0.0070005
0.00687942
0.00676038
0.00664422
0.00653111
0.00641974
0.00630894
0.00619913
0.00609156
0.00598592
0.00588116
0.00577654
0.00567237
0.00556912
0.00546691
0.00536489
0.00526275
0.00516074
0.00505954
0.0049588
0.00485815
0.00475731
0.00465698
0.00455715
0.00445737
0.00435686
0.0042562
0.00415547
0.00405442
0.00395234
0.00384988
0.00374686
0.00364348
0.00353943
0.00343511
0.00333002
0.00322456
0.00311816
0.00301119
0.00290301
0.00279405
0.00268377
0.00257298
0.00246091