/*--------------------------------*- C++ -*----------------------------------*\
| =========                 |                                                 |
| \\      /  F ield         | OpenFOAM: The Open Source CFD Toolbox           |
|  \\    /   O peration     | Version:  5.x                                   |
|   \\  /    A nd           | Web:      www.OpenFOAM.org                      |
|    \\/     M anipulation  |                                                 |
\*---------------------------------------------------------------------------*/
FoamFile
{
    version     2.0;
    format      ascii;
    class       surfaceScalarField;
    location    "1";
    object      phi;
}
// * * * * * * * * * * * * * * * * * * * * * * * * * * * * * * * * * * * * * //

dimensions      [0 3 -1 0 0 0 0];

internalField   nonuniform List<scalar> 
21390
(
7.41069e-08
6.73504e-09
-8.08419e-08
6.57252e-08
8.38166e-09
5.74967e-08
8.2285e-09
4.9505e-08
7.99168e-09
4.17556e-08
7.74948e-09
3.45641e-08
7.19151e-09
2.84261e-08
6.13796e-09
2.37454e-08
4.68074e-09
2.05834e-08
3.16198e-09
1.85988e-08
1.98455e-09
1.73385e-08
1.26032e-09
1.6486e-08
8.52524e-10
1.58562e-08
6.29783e-10
1.53357e-08
5.20542e-10
1.48594e-08
4.76213e-10
1.44009e-08
4.58548e-10
1.39545e-08
4.46348e-10
1.35234e-08
4.31174e-10
1.31118e-08
4.11547e-10
1.27229e-08
3.88881e-10
1.23579e-08
3.65004e-10
1.20165e-08
3.41478e-10
1.16971e-08
3.19366e-10
1.13981e-08
2.99042e-10
1.11177e-08
2.80398e-10
1.08544e-08
2.63259e-10
1.06067e-08
2.47674e-10
1.03729e-08
2.33822e-10
1.01511e-08
2.21821e-10
9.93976e-09
2.11318e-10
9.73789e-09
2.01873e-10
9.54475e-09
1.93144e-10
9.35956e-09
1.85181e-10
9.18174e-09
1.77825e-10
9.0108e-09
1.70941e-10
8.84654e-09
1.64259e-10
8.68861e-09
1.57934e-10
8.53659e-09
1.52017e-10
8.38988e-09
1.46712e-10
8.24811e-09
1.41767e-10
8.11093e-09
1.37181e-10
7.97825e-09
1.32683e-10
7.84973e-09
1.28517e-10
7.7253e-09
1.24432e-10
7.60472e-09
1.2058e-10
7.48788e-09
1.16835e-10
7.37434e-09
1.13541e-10
7.26404e-09
1.10304e-10
7.15662e-09
1.07416e-10
7.0521e-09
1.04526e-10
6.9502e-09
1.01894e-10
6.8511e-09
9.91027e-11
6.75446e-09
9.66421e-11
6.66033e-09
9.41263e-11
6.56833e-09
9.20031e-11
6.47861e-09
8.97145e-11
6.39092e-09
8.76898e-11
6.30554e-09
8.53852e-11
6.22207e-09
8.3469e-11
6.1407e-09
8.13726e-11
6.06092e-09
7.97715e-11
5.98305e-09
7.78714e-11
5.90667e-09
7.63838e-11
5.83211e-09
7.45611e-11
5.7589e-09
7.32125e-11
5.68739e-09
7.1505e-11
5.617e-09
7.03937e-11
5.54822e-09
6.87724e-11
5.48061e-09
6.76136e-11
5.41467e-09
6.59366e-11
5.34972e-09
6.49553e-11
5.28628e-09
6.34361e-11
5.22372e-09
6.25637e-11
5.16273e-09
6.09937e-11
5.10248e-09
6.02437e-11
5.04362e-09
5.88639e-11
4.98534e-09
5.82804e-11
4.92853e-09
5.6804e-11
4.87228e-09
5.62583e-11
4.8174e-09
5.48727e-11
4.76298e-09
5.44255e-11
4.71003e-09
5.29519e-11
4.6574e-09
5.26211e-11
4.60616e-09
5.1244e-11
4.55513e-09
5.10337e-11
4.50548e-09
4.965e-11
4.45592e-09
4.95585e-11
4.40773e-09
4.81854e-11
4.35959e-09
4.81423e-11
4.31282e-09
4.67675e-11
4.26599e-09
4.68293e-11
4.22047e-09
4.55201e-11
4.1748e-09
4.56711e-11
4.13029e-09
4.45097e-11
4.08563e-09
4.46633e-11
4.04189e-09
4.37341e-11
3.9981e-09
4.37983e-11
3.95472e-09
4.33795e-11
3.91167e-09
4.30435e-11
4.52683e-11
8.53941e-08
6.16493e-09
-8.4824e-08
8.44951e-08
9.28064e-09
8.26321e-08
1.00915e-08
8.02462e-08
1.03776e-08
7.73249e-08
1.06708e-08
7.38898e-08
1.06266e-08
7.00908e-08
9.93699e-09
6.61943e-08
8.57722e-09
6.25121e-08
6.84421e-09
5.92362e-08
5.26042e-09
5.63528e-08
4.1437e-09
5.37751e-08
3.43022e-09
5.14537e-08
2.95122e-09
4.93623e-08
2.61192e-09
4.74698e-08
2.36869e-09
4.57482e-08
2.1802e-09
4.41738e-08
2.02077e-09
4.2727e-08
1.87789e-09
4.13919e-08
1.74669e-09
4.0155e-08
1.62575e-09
3.90052e-08
1.51486e-09
3.79326e-08
1.41402e-09
3.6929e-08
1.32297e-09
3.59877e-08
1.24041e-09
3.51031e-08
1.16499e-09
3.42705e-08
1.0958e-09
3.34851e-08
1.03304e-09
3.27421e-08
9.76906e-10
3.20365e-08
9.27378e-10
3.13647e-08
8.83129e-10
3.07235e-08
8.43033e-10
3.01107e-08
8.06007e-10
2.95238e-08
7.72068e-10
2.89612e-08
7.40449e-10
2.84212e-08
7.10908e-10
2.79028e-08
6.82677e-10
2.74043e-08
6.56371e-10
2.69245e-08
6.31866e-10
2.64615e-08
6.09725e-10
2.60143e-08
5.8898e-10
2.55817e-08
5.6976e-10
2.51633e-08
5.51103e-10
2.4758e-08
5.33784e-10
2.43655e-08
5.16897e-10
2.3985e-08
5.01164e-10
2.36159e-08
4.85893e-10
2.32573e-08
4.72166e-10
2.29089e-08
4.58671e-10
2.25699e-08
4.46461e-10
2.22402e-08
4.3421e-10
2.1919e-08
4.23017e-10
2.16067e-08
4.11473e-10
2.13021e-08
4.01259e-10
2.10053e-08
3.90873e-10
2.07154e-08
3.8189e-10
2.04328e-08
3.72314e-10
2.01567e-08
3.63853e-10
1.98875e-08
3.54555e-10
1.96242e-08
3.46751e-10
1.93673e-08
3.38263e-10
1.91156e-08
3.31473e-10
1.88699e-08
3.23607e-10
1.86289e-08
3.17333e-10
1.83937e-08
3.09845e-10
1.81627e-08
3.04169e-10
1.7937e-08
2.97168e-10
1.77152e-08
2.92256e-10
1.74984e-08
2.85505e-10
1.72854e-08
2.80687e-10
1.70773e-08
2.73993e-10
1.68724e-08
2.69847e-10
1.66723e-08
2.63591e-10
1.6475e-08
2.59866e-10
1.62824e-08
2.53594e-10
1.60922e-08
2.50428e-10
1.59064e-08
2.44643e-10
1.57227e-08
2.41997e-10
1.55435e-08
2.35996e-10
1.53661e-08
2.33692e-10
1.5193e-08
2.27898e-10
1.50214e-08
2.26011e-10
1.48544e-08
2.20013e-10
1.46883e-08
2.18682e-10
1.45267e-08
2.12855e-10
1.43657e-08
2.12049e-10
1.42092e-08
2.06121e-10
1.40529e-08
2.05875e-10
1.39013e-08
1.9983e-10
1.37494e-08
2.00024e-10
1.36023e-08
1.93831e-10
1.34545e-08
1.94662e-10
1.33116e-08
1.88426e-10
1.31673e-08
1.89915e-10
1.30281e-08
1.83769e-10
1.2887e-08
1.85778e-10
1.27508e-08
1.79924e-10
1.26122e-08
1.82337e-10
1.24781e-08
1.77525e-10
1.23416e-08
1.79523e-10
1.82165e-10
8.92303e-08
5.68107e-09
-8.87464e-08
8.96728e-08
8.83809e-09
8.96257e-08
1.01386e-08
8.9401e-08
1.06022e-08
8.90529e-08
1.10189e-08
8.84371e-08
1.12424e-08
8.74344e-08
1.09397e-08
8.60461e-08
9.96544e-09
8.43938e-08
8.49656e-09
8.26565e-08
6.9977e-09
8.09323e-08
5.86792e-09
7.92193e-08
5.14325e-09
7.75048e-08
4.66571e-09
7.57983e-08
4.31845e-09
7.41139e-08
4.05307e-09
7.24598e-08
3.8343e-09
7.08413e-08
3.63927e-09
6.92623e-08
3.45681e-09
6.77258e-08
3.28326e-09
6.62336e-08
3.11789e-09
6.47872e-08
2.96133e-09
6.33869e-08
2.81424e-09
6.20328e-08
2.6771e-09
6.07248e-08
2.54846e-09
5.94627e-08
2.42704e-09
5.82467e-08
2.31184e-09
5.70757e-08
2.20399e-09
5.59484e-08
2.10428e-09
5.48623e-08
2.01343e-09
5.38158e-08
1.92961e-09
5.2807e-08
1.85183e-09
5.18345e-08
1.77855e-09
5.08963e-08
1.71026e-09
4.99912e-08
1.64552e-09
4.91178e-08
1.58436e-09
4.8275e-08
1.52544e-09
4.74611e-08
1.47026e-09
4.66746e-08
1.41842e-09
4.5913e-08
1.37125e-09
4.51752e-08
1.32683e-09
4.44592e-08
1.28575e-09
4.37643e-08
1.24596e-09
4.30891e-08
1.20903e-09
4.2433e-08
1.17295e-09
4.17948e-08
1.13945e-09
4.11739e-08
1.10673e-09
4.05691e-08
1.077e-09
3.99802e-08
1.04753e-09
3.9406e-08
1.02066e-09
3.88468e-08
9.93469e-10
3.83013e-08
9.68544e-10
3.77698e-08
9.42922e-10
3.72509e-08
9.20204e-10
3.67447e-08
8.97071e-10
3.62496e-08
8.76951e-10
3.57664e-08
8.55552e-10
3.52935e-08
8.36732e-10
3.48318e-08
8.1623e-10
3.43796e-08
7.98986e-10
3.39377e-08
7.80136e-10
3.35044e-08
7.64802e-10
3.30809e-08
7.47084e-10
3.26653e-08
7.32879e-10
3.22592e-08
7.15982e-10
3.18603e-08
7.03086e-10
3.14702e-08
6.8726e-10
3.10865e-08
6.75907e-10
3.07115e-08
6.60591e-10
3.03424e-08
6.49739e-10
2.99816e-08
6.34759e-10
2.96262e-08
6.25309e-10
2.92787e-08
6.11078e-10
2.8936e-08
6.02549e-10
2.86012e-08
5.88415e-10
2.82705e-08
5.81147e-10
2.79473e-08
5.67808e-10
2.76277e-08
5.61628e-10
2.73157e-08
5.47986e-10
2.70067e-08
5.42729e-10
2.67052e-08
5.29366e-10
2.64061e-08
5.25095e-10
2.61147e-08
5.11374e-10
2.5825e-08
5.08403e-10
2.5543e-08
4.94824e-10
2.5262e-08
4.93111e-10
2.49889e-08
4.79205e-10
2.47159e-08
4.78857e-10
2.44512e-08
4.64506e-10
2.41858e-08
4.65418e-10
2.39291e-08
4.50531e-10
2.36707e-08
4.5311e-10
2.34214e-08
4.37763e-10
2.31691e-08
4.42153e-10
2.29264e-08
4.26458e-10
2.26796e-08
4.32569e-10
2.24428e-08
4.16819e-10
2.22005e-08
4.24592e-10
2.19679e-08
4.10167e-10
2.17294e-08
4.17982e-10
4.1682e-10
9.30134e-08
5.46598e-09
-9.27983e-08
9.35638e-08
8.28765e-09
9.38442e-08
9.85828e-09
9.4029e-08
1.04174e-08
9.42873e-08
1.07606e-08
9.45402e-08
1.09896e-08
9.46361e-08
1.08439e-08
9.44752e-08
1.01263e-08
9.40472e-08
8.92449e-09
9.34451e-08
7.59985e-09
9.27706e-08
6.54241e-09
9.20508e-08
5.86308e-09
9.12741e-08
5.44239e-09
9.04408e-08
5.15171e-09
8.95627e-08
4.93118e-09
8.86483e-08
4.74867e-09
8.77027e-08
4.58494e-09
8.67295e-08
4.42997e-09
8.57321e-08
4.28066e-09
8.4714e-08
4.13597e-09
8.36787e-08
3.99667e-09
8.26297e-08
3.86328e-09
8.15699e-08
3.73686e-09
8.05026e-08
3.61575e-09
7.94306e-08
3.49904e-09
7.8357e-08
3.38541e-09
7.72842e-08
3.27678e-09
7.62145e-08
3.17399e-09
7.51494e-08
3.07858e-09
7.40909e-08
2.98813e-09
7.30406e-08
2.90207e-09
7.20009e-08
2.81829e-09
7.09731e-08
2.73803e-09
6.99596e-08
2.65904e-09
6.89619e-08
2.58207e-09
6.79822e-08
2.50513e-09
6.70213e-08
2.43118e-09
6.60801e-08
2.35955e-09
6.51582e-08
2.29322e-09
6.42555e-08
2.22947e-09
6.33711e-08
2.17019e-09
6.25049e-08
2.11217e-09
6.16555e-08
2.05839e-09
6.08231e-08
2.00537e-09
6.00062e-08
1.95631e-09
5.92052e-08
1.90777e-09
5.84187e-08
1.86353e-09
5.76473e-08
1.81886e-09
5.68901e-08
1.7779e-09
5.61481e-08
1.73549e-09
5.54203e-08
1.69635e-09
5.47078e-08
1.65535e-09
5.40092e-08
1.61887e-09
5.33251e-08
1.58113e-09
5.26537e-08
1.54839e-09
5.1996e-08
1.51323e-09
5.13501e-08
1.48266e-09
5.07172e-08
1.44913e-09
5.00949e-08
1.42121e-09
4.94849e-08
1.3902e-09
4.88847e-08
1.36503e-09
4.82963e-08
1.3354e-09
4.77174e-08
1.31181e-09
4.71502e-08
1.28318e-09
4.65918e-08
1.26146e-09
4.60447e-08
1.23439e-09
4.55056e-08
1.21506e-09
4.49774e-08
1.18873e-09
4.44567e-08
1.17047e-09
4.39466e-08
1.14484e-09
4.3443e-08
1.12887e-09
4.29499e-08
1.10421e-09
4.24628e-08
1.08969e-09
4.1986e-08
1.06515e-09
4.15145e-08
1.05271e-09
4.10531e-08
1.02916e-09
4.05962e-08
1.01851e-09
4.01497e-08
9.94539e-10
3.97068e-08
9.85633e-10
3.92742e-08
9.61909e-10
3.88446e-08
9.54747e-10
3.84256e-08
9.30395e-10
3.80085e-08
9.25502e-10
3.76022e-08
9.01084e-10
3.71969e-08
8.98459e-10
3.68028e-08
8.7332e-10
3.64084e-08
8.73195e-10
3.60259e-08
8.47053e-10
3.56419e-08
8.49386e-10
3.52704e-08
8.22035e-10
3.4896e-08
8.275e-10
3.45348e-08
7.98942e-10
3.41691e-08
8.07889e-10
3.38174e-08
7.7817e-10
3.34593e-08
7.90616e-10
3.3116e-08
7.60126e-10
3.27646e-08
7.76053e-10
3.24277e-08
7.47058e-10
3.20819e-08
7.63723e-10
7.54064e-10
9.70198e-08
5.38407e-09
-9.69379e-08
9.75158e-08
7.79159e-09
9.78905e-08
9.48365e-09
9.81415e-08
1.01664e-08
9.84561e-08
1.0446e-08
9.88384e-08
1.06072e-08
9.91821e-08
1.05002e-08
9.93797e-08
9.92879e-09
9.93813e-08
8.92289e-09
9.92306e-08
7.7505e-09
9.90148e-08
6.75819e-09
9.87749e-08
6.10301e-09
9.85047e-08
5.71259e-09
9.8196e-08
5.46039e-09
9.78526e-08
5.27459e-09
9.74795e-08
5.12177e-09
9.70784e-08
4.98608e-09
9.66491e-08
4.85924e-09
9.61908e-08
4.73901e-09
9.5703e-08
4.62372e-09
9.51858e-08
4.51389e-09
9.46399e-08
4.40916e-09
9.4066e-08
4.31083e-09
9.3465e-08
4.21673e-09
9.28376e-08
4.12642e-09
9.2185e-08
4.038e-09
9.15078e-08
3.95401e-09
9.08071e-08
3.87469e-09
9.00833e-08
3.80233e-09
8.93379e-08
3.73355e-09
8.85717e-08
3.6683e-09
8.77866e-08
3.60336e-09
8.69841e-08
3.54056e-09
8.6167e-08
3.47618e-09
8.53375e-08
3.41152e-09
8.44995e-08
3.34312e-09
8.36555e-08
3.27515e-09
8.28092e-08
3.20593e-09
8.1962e-08
3.14036e-09
8.11167e-08
3.07477e-09
8.02738e-08
3.01311e-09
7.9435e-08
2.95101e-09
7.85996e-08
2.89373e-09
7.77689e-08
2.83612e-09
7.69416e-08
2.7836e-09
7.61187e-08
2.73069e-09
7.52989e-08
2.6833e-09
7.44837e-08
2.63405e-09
7.36722e-08
2.58935e-09
7.28668e-08
2.54095e-09
7.2067e-08
2.49615e-09
7.12756e-08
2.44674e-09
7.04919e-08
2.4026e-09
6.97182e-08
2.3548e-09
6.8953e-08
2.31358e-09
6.81984e-08
2.26778e-09
6.74523e-08
2.22875e-09
6.67167e-08
2.18482e-09
6.59885e-08
2.14934e-09
6.52701e-08
2.10866e-09
6.45584e-08
2.07669e-09
6.38565e-08
2.03729e-09
6.31615e-08
2.00682e-09
6.24769e-08
1.9678e-09
6.17995e-08
1.93886e-09
6.11329e-08
1.90096e-09
6.04733e-08
1.87467e-09
5.98248e-08
1.83722e-09
5.91829e-08
1.81242e-09
5.85518e-08
1.77593e-09
5.79263e-08
1.75435e-09
5.73116e-08
1.71889e-09
5.67021e-08
1.6992e-09
5.61037e-08
1.66351e-09
5.55099e-08
1.64651e-09
5.49275e-08
1.61158e-09
5.43492e-08
1.59687e-09
5.37825e-08
1.56118e-09
5.3219e-08
1.54915e-09
5.26674e-08
1.51349e-09
5.21181e-08
1.50404e-09
5.15813e-08
1.46727e-09
5.10456e-08
1.46112e-09
5.0523e-08
1.42374e-09
5.00005e-08
1.42096e-09
4.94916e-08
1.3822e-09
4.89815e-08
1.38327e-09
4.84859e-08
1.34267e-09
4.79876e-08
1.34766e-09
4.75048e-08
1.30486e-09
4.70176e-08
1.31472e-09
4.65469e-08
1.2696e-09
4.60699e-08
1.28496e-09
4.56105e-08
1.23752e-09
4.51426e-08
1.25855e-09
4.46934e-08
1.20932e-09
4.42335e-08
1.23595e-09
4.37923e-08
1.18829e-09
4.33394e-08
1.2166e-09
1.19383e-09
1.012e-07
5.35445e-09
-1.01171e-07
1.01609e-07
7.38305e-09
1.02022e-07
9.07063e-09
1.02315e-07
9.8732e-09
1.02616e-07
1.01448e-08
1.0298e-07
1.02431e-08
1.03347e-07
1.01339e-08
1.03617e-07
9.65868e-09
1.03733e-07
8.80641e-09
1.03715e-07
7.76899e-09
1.03637e-07
6.83602e-09
1.0355e-07
6.18967e-09
1.03459e-07
5.80365e-09
1.03354e-07
5.56581e-09
1.03233e-07
5.39561e-09
1.031e-07
5.25482e-09
1.02956e-07
5.12961e-09
1.02802e-07
5.01363e-09
1.02634e-07
4.90655e-09
1.02452e-07
4.80632e-09
1.02252e-07
4.71356e-09
1.02034e-07
4.62665e-09
1.01798e-07
4.54729e-09
1.01542e-07
4.47252e-09
1.01266e-07
4.40272e-09
1.00969e-07
4.33527e-09
1.00649e-07
4.2736e-09
1.00307e-07
4.21709e-09
9.99399e-08
4.169e-09
9.95485e-08
4.12492e-09
9.9131e-08
4.08581e-09
9.86873e-08
4.04704e-09
9.82165e-08
4.01133e-09
9.77196e-08
3.97312e-09
9.71967e-08
3.93441e-09
9.66503e-08
3.88957e-09
9.60817e-08
3.84373e-09
9.54945e-08
3.79315e-09
9.48904e-08
3.74444e-09
9.42729e-08
3.69229e-09
9.3643e-08
3.643e-09
9.30034e-08
3.5906e-09
9.23539e-08
3.54318e-09
9.16964e-08
3.49368e-09
9.10295e-08
3.45046e-09
9.03545e-08
3.40572e-09
8.96695e-08
3.36828e-09
8.89758e-08
3.32775e-09
8.82717e-08
3.29348e-09
8.75593e-08
3.25333e-09
8.6838e-08
3.21749e-09
8.61113e-08
3.17342e-09
8.53792e-08
3.13469e-09
8.46459e-08
3.0881e-09
8.39108e-08
3.04864e-09
8.31779e-08
3.00072e-09
8.24454e-08
2.96126e-09
8.17164e-08
2.91385e-09
8.09878e-08
2.87794e-09
8.02623e-08
2.83418e-09
7.95362e-08
2.80277e-09
7.8813e-08
2.76047e-09
7.80892e-08
2.73063e-09
7.73693e-08
2.68767e-09
7.66501e-08
2.65803e-09
7.59369e-08
2.61418e-09
7.52257e-08
2.58588e-09
7.45222e-08
2.54073e-09
7.38213e-08
2.5133e-09
7.31286e-08
2.46868e-09
7.24377e-08
2.44525e-09
7.17548e-08
2.40173e-09
7.10733e-08
2.38071e-09
7.04005e-08
2.33631e-09
6.97289e-08
2.31815e-09
6.9067e-08
2.27348e-09
6.84064e-08
2.25742e-09
6.77567e-08
2.21087e-09
6.71078e-08
2.1981e-09
6.64702e-08
2.15104e-09
6.58325e-08
2.14172e-09
6.52069e-08
2.09286e-09
6.45803e-08
2.08781e-09
6.39667e-08
2.03731e-09
6.33511e-08
2.03651e-09
6.27499e-08
1.98347e-09
6.21453e-08
1.98779e-09
6.15563e-08
1.93177e-09
6.09624e-08
1.94155e-09
6.03852e-08
1.88202e-09
5.98015e-08
1.89845e-09
5.9236e-08
1.8351e-09
5.86618e-08
1.8591e-09
5.81074e-08
1.79194e-09
5.75421e-08
1.82386e-09
5.69978e-08
1.75366e-09
5.64403e-08
1.79337e-09
5.59039e-08
1.72469e-09
5.53534e-08
1.76714e-09
1.72796e-09
1.05518e-07
5.33696e-09
-1.05501e-07
1.05841e-07
7.06e-09
1.06257e-07
8.65514e-09
1.06589e-07
9.54064e-09
1.06888e-07
9.84623e-09
1.07225e-07
9.90651e-09
1.07575e-07
9.78311e-09
1.07857e-07
9.37704e-09
1.0801e-07
8.65319e-09
1.08037e-07
7.74242e-09
1.07998e-07
6.87454e-09
1.07951e-07
6.23734e-09
1.07909e-07
5.84519e-09
1.07866e-07
5.60883e-09
1.07817e-07
5.44465e-09
1.07764e-07
5.30761e-09
1.0771e-07
5.18379e-09
1.07656e-07
5.06802e-09
1.07599e-07
4.96271e-09
1.0754e-07
4.8658e-09
1.07475e-07
4.77858e-09
1.07404e-07
4.69798e-09
1.07325e-07
4.62626e-09
1.07238e-07
4.55938e-09
1.07142e-07
4.49887e-09
1.07036e-07
4.44115e-09
1.06918e-07
4.39095e-09
1.06789e-07
4.3465e-09
1.06645e-07
4.31249e-09
1.06487e-07
4.28338e-09
1.06311e-07
4.2617e-09
1.06117e-07
4.24136e-09
1.05902e-07
4.22654e-09
1.05665e-07
4.20964e-09
1.05405e-07
4.19402e-09
1.05124e-07
4.17151e-09
1.04819e-07
4.14851e-09
1.04493e-07
4.11849e-09
1.04148e-07
4.08983e-09
1.03785e-07
4.0548e-09
1.03406e-07
4.02227e-09
1.03013e-07
3.98393e-09
1.02605e-07
3.9511e-09
1.02184e-07
3.91426e-09
1.0175e-07
3.88524e-09
1.01302e-07
3.85348e-09
1.00839e-07
3.83155e-09
1.00361e-07
3.80576e-09
9.98646e-08
3.78942e-09
9.93518e-08
3.76614e-09
9.88196e-08
3.74971e-09
9.82708e-08
3.72223e-09
9.77044e-08
3.70111e-09
9.71251e-08
3.66741e-09
9.65326e-08
3.6411e-09
9.59322e-08
3.60107e-09
9.53229e-08
3.57056e-09
9.47091e-08
3.52767e-09
9.4088e-08
3.49911e-09
9.34629e-08
3.45928e-09
9.28294e-08
3.43623e-09
9.21909e-08
3.39897e-09
9.15425e-08
3.379e-09
9.08888e-08
3.34137e-09
9.02259e-08
3.32095e-09
8.95601e-08
3.27997e-09
8.88877e-08
3.2583e-09
8.8216e-08
3.21239e-09
8.75403e-08
3.189e-09
8.68675e-08
3.14147e-09
8.61908e-08
3.12197e-09
8.55171e-08
3.07546e-09
8.48384e-08
3.0594e-09
8.41629e-08
3.01184e-09
8.3482e-08
2.999e-09
8.28058e-08
2.94968e-09
8.21254e-08
2.93784e-09
8.14521e-08
2.88418e-09
8.07751e-08
2.87514e-09
8.01064e-08
2.81967e-09
7.94334e-08
2.81472e-09
7.87695e-08
2.75674e-09
7.81002e-08
2.75716e-09
7.74413e-08
2.69625e-09
7.67764e-08
2.70134e-09
7.61239e-08
2.63599e-09
7.54648e-08
2.64689e-09
7.48197e-08
2.5769e-09
7.41665e-08
2.59468e-09
7.35288e-08
2.51972e-09
7.28815e-08
2.5458e-09
7.22514e-08
2.4652e-09
7.161e-08
2.5005e-09
7.09877e-08
2.41426e-09
7.03521e-08
2.45946e-09
6.97369e-08
2.36886e-09
6.91065e-08
2.42374e-09
6.84966e-08
2.33457e-09
6.78707e-08
2.39307e-09
2.337e-09
1.09961e-07
5.31628e-09
-1.09941e-07
1.10214e-07
6.80695e-09
1.10609e-07
8.26072e-09
1.10969e-07
9.18083e-09
1.11277e-07
9.53825e-09
1.11596e-07
9.58736e-09
1.11926e-07
9.45245e-09
1.12207e-07
9.09613e-09
1.12381e-07
8.47942e-09
1.12437e-07
7.68642e-09
1.1242e-07
6.8915e-09
1.12387e-07
6.27078e-09
1.1236e-07
5.87148e-09
1.12339e-07
5.63061e-09
1.12314e-07
5.46874e-09
1.12288e-07
5.33386e-09
1.12262e-07
5.20999e-09
1.12238e-07
5.09156e-09
1.12217e-07
4.98396e-09
1.12198e-07
4.88545e-09
1.12177e-07
4.79869e-09
1.12157e-07
4.71888e-09
1.12134e-07
4.64918e-09
1.12109e-07
4.58402e-09
1.12082e-07
4.52635e-09
1.12051e-07
4.47119e-09
1.12018e-07
4.42493e-09
1.1198e-07
4.3843e-09
1.11936e-07
4.3558e-09
1.11887e-07
4.33241e-09
1.1183e-07
4.31883e-09
1.11764e-07
4.30721e-09
1.11687e-07
4.30382e-09
1.11598e-07
4.29885e-09
1.11494e-07
4.29768e-09
1.11376e-07
4.28943e-09
1.11242e-07
4.28235e-09
1.11094e-07
4.26671e-09
1.10931e-07
4.25309e-09
1.10755e-07
4.23074e-09
1.10566e-07
4.21146e-09
1.10366e-07
4.18396e-09
1.10154e-07
4.16307e-09
1.09932e-07
4.1362e-09
1.09698e-07
4.11901e-09
1.09454e-07
4.09756e-09
1.09197e-07
4.08878e-09
1.08927e-07
4.07537e-09
1.08641e-07
4.07541e-09
1.08339e-07
4.06824e-09
1.08017e-07
4.07226e-09
1.07675e-07
4.06384e-09
1.07311e-07
4.06469e-09
1.0693e-07
4.04912e-09
1.06529e-07
4.04211e-09
1.06114e-07
4.01592e-09
1.05684e-07
4.00032e-09
1.05245e-07
3.96701e-09
1.04793e-07
3.95055e-09
1.04334e-07
3.91851e-09
1.03862e-07
3.90784e-09
1.03382e-07
3.87976e-09
1.02885e-07
3.87519e-09
1.02377e-07
3.84944e-09
1.01852e-07
3.84641e-09
1.01315e-07
3.81681e-09
1.00763e-07
3.81075e-09
1.00203e-07
3.7722e-09
9.96314e-08
3.76044e-09
9.90568e-08
3.71608e-09
9.84726e-08
3.70617e-09
9.78863e-08
3.66173e-09
9.72892e-08
3.65654e-09
9.6689e-08
3.61205e-09
9.60761e-08
3.61186e-09
9.54606e-08
3.56517e-09
9.48334e-08
3.56506e-09
9.42069e-08
3.51071e-09
9.35707e-08
3.51132e-09
9.29381e-08
3.45229e-09
9.22961e-08
3.45669e-09
9.16585e-08
3.39437e-09
9.101e-08
3.4057e-09
9.03664e-08
3.33978e-09
8.97115e-08
3.35625e-09
8.9064e-08
3.28348e-09
8.84056e-08
3.30537e-09
8.7757e-08
3.22544e-09
8.70968e-08
3.25495e-09
8.64478e-08
3.16867e-09
8.57855e-08
3.20806e-09
8.51363e-08
3.11448e-09
8.44727e-08
3.16411e-09
8.38242e-08
3.06274e-09
8.31603e-08
3.12333e-09
8.25128e-08
3.01637e-09
8.18486e-08
3.0879e-09
8.12005e-08
2.98268e-09
8.05355e-08
3.05805e-09
2.98864e-09
1.14533e-07
5.29216e-09
-1.14509e-07
1.14735e-07
6.60432e-09
1.15096e-07
7.90045e-09
1.15467e-07
8.80959e-09
1.15789e-07
9.21579e-09
1.161e-07
9.27645e-09
1.16412e-07
9.14053e-09
1.16687e-07
8.82133e-09
1.16874e-07
8.29221e-09
1.16956e-07
7.6048e-09
1.1696e-07
6.88761e-09
1.16938e-07
6.29214e-09
1.16921e-07
5.88918e-09
1.1691e-07
5.64101e-09
1.169e-07
5.47916e-09
1.16887e-07
5.34657e-09
1.16873e-07
5.22407e-09
1.16861e-07
5.10377e-09
1.16851e-07
4.99361e-09
1.16844e-07
4.89226e-09
1.16838e-07
4.80458e-09
1.16833e-07
4.72398e-09
1.16828e-07
4.65472e-09
1.16822e-07
4.58939e-09
1.16816e-07
4.53251e-09
1.1681e-07
4.47733e-09
1.16803e-07
4.43213e-09
1.16795e-07
4.39174e-09
1.16787e-07
4.36476e-09
1.16777e-07
4.34228e-09
1.16764e-07
4.33152e-09
1.16749e-07
4.32256e-09
1.16728e-07
4.32419e-09
1.16703e-07
4.32415e-09
1.1667e-07
4.33041e-09
1.16631e-07
4.32916e-09
1.16582e-07
4.33112e-09
1.16525e-07
4.32309e-09
1.1646e-07
4.31837e-09
1.16388e-07
4.30277e-09
1.16308e-07
4.29146e-09
1.16222e-07
4.26967e-09
1.16129e-07
4.25604e-09
1.16031e-07
4.23433e-09
1.15926e-07
4.22432e-09
1.15815e-07
4.2081e-09
1.15697e-07
4.20727e-09
1.15572e-07
4.20043e-09
1.15436e-07
4.211e-09
1.15291e-07
4.21391e-09
1.1513e-07
4.23305e-09
1.14955e-07
4.23914e-09
1.1476e-07
4.25885e-09
1.1455e-07
4.25945e-09
1.14321e-07
4.27109e-09
1.14078e-07
4.25872e-09
1.1382e-07
4.25863e-09
1.13552e-07
4.23543e-09
1.1327e-07
4.23157e-09
1.12982e-07
4.20718e-09
1.12681e-07
4.20839e-09
1.12372e-07
4.18866e-09
1.12048e-07
4.19913e-09
1.11712e-07
4.1859e-09
1.11356e-07
4.20252e-09
1.10985e-07
4.188e-09
1.10593e-07
4.20244e-09
1.10188e-07
4.17676e-09
1.09767e-07
4.18204e-09
1.09337e-07
4.14561e-09
1.08894e-07
4.14893e-09
1.08447e-07
4.10963e-09
1.07985e-07
4.11808e-09
1.07517e-07
4.08033e-09
1.07031e-07
4.09727e-09
1.06537e-07
4.0593e-09
1.06025e-07
4.07745e-09
1.05506e-07
4.0295e-09
1.04972e-07
4.0456e-09
1.04435e-07
3.9886e-09
1.03886e-07
4.00636e-09
1.03336e-07
3.9445e-09
1.02771e-07
3.97087e-09
1.02204e-07
3.90617e-09
1.01621e-07
3.93937e-09
1.01038e-07
3.86623e-09
1.0044e-07
3.90374e-09
9.98453e-08
3.81997e-09
9.9236e-08
3.86432e-09
9.86319e-08
3.77274e-09
9.80115e-08
3.82846e-09
9.7397e-08
3.72901e-09
9.67654e-08
3.79572e-09
9.61417e-08
3.68644e-09
9.55014e-08
3.76363e-09
9.48701e-08
3.64769e-09
9.4222e-08
3.73599e-09
9.35816e-08
3.62309e-09
9.29249e-08
3.71475e-09
3.63978e-09
1.19246e-07
5.27104e-09
-1.19225e-07
1.19416e-07
6.43454e-09
1.19739e-07
7.57802e-09
1.20107e-07
8.44153e-09
1.20442e-07
8.87996e-09
1.20751e-07
8.96808e-09
1.21048e-07
8.84387e-09
1.21313e-07
8.55604e-09
1.21507e-07
8.09799e-09
1.2161e-07
7.50203e-09
1.21635e-07
6.86269e-09
1.21626e-07
6.30056e-09
1.21616e-07
5.89949e-09
1.21613e-07
5.64351e-09
1.21613e-07
5.47953e-09
1.21611e-07
5.34886e-09
1.21605e-07
5.22943e-09
1.216e-07
5.10909e-09
1.21596e-07
4.99748e-09
1.21595e-07
4.89338e-09
1.21595e-07
4.80461e-09
1.21596e-07
4.72294e-09
1.21597e-07
4.65405e-09
1.21598e-07
4.58834e-09
1.21598e-07
4.53213e-09
1.21599e-07
4.47653e-09
1.21599e-07
4.43189e-09
1.216e-07
4.39084e-09
1.21601e-07
4.36428e-09
1.21602e-07
4.34104e-09
1.21602e-07
4.33103e-09
1.21603e-07
4.32201e-09
1.21602e-07
4.32556e-09
1.21599e-07
4.32674e-09
1.21593e-07
4.33646e-09
1.21584e-07
4.33786e-09
1.21571e-07
4.34452e-09
1.21554e-07
4.3397e-09
1.21533e-07
4.33975e-09
1.21509e-07
4.32689e-09
1.2148e-07
4.31986e-09
1.2145e-07
4.30016e-09
1.21415e-07
4.2904e-09
1.21379e-07
4.2704e-09
1.2134e-07
4.26414e-09
1.21298e-07
4.24936e-09
1.21253e-07
4.25238e-09
1.21206e-07
4.24737e-09
1.21154e-07
4.26314e-09
1.21098e-07
4.27009e-09
1.21033e-07
4.29794e-09
1.2096e-07
4.31203e-09
1.20875e-07
4.34446e-09
1.20778e-07
4.35579e-09
1.20668e-07
4.38146e-09
1.20547e-07
4.37916e-09
1.20415e-07
4.39149e-09
1.20274e-07
4.37585e-09
1.20124e-07
4.38214e-09
1.19968e-07
4.36299e-09
1.19803e-07
4.37302e-09
1.19634e-07
4.35817e-09
1.19453e-07
4.3795e-09
1.19264e-07
4.37503e-09
1.19059e-07
4.40798e-09
1.1884e-07
4.4068e-09
1.18601e-07
4.44085e-09
1.18349e-07
4.42891e-09
1.18079e-07
4.45234e-09
1.17799e-07
4.42577e-09
1.17505e-07
4.44301e-09
1.17205e-07
4.40949e-09
1.16892e-07
4.4307e-09
1.16573e-07
4.39974e-09
1.16237e-07
4.43342e-09
1.1589e-07
4.40637e-09
1.15522e-07
4.44509e-09
1.15143e-07
4.40854e-09
1.14745e-07
4.4436e-09
1.1434e-07
4.39352e-09
1.1392e-07
4.4264e-09
1.13496e-07
4.36842e-09
1.13056e-07
4.41064e-09
1.12611e-07
4.35169e-09
1.12146e-07
4.40419e-09
1.11674e-07
4.33772e-09
1.11184e-07
4.39407e-09
1.10691e-07
4.3135e-09
1.10181e-07
4.37397e-09
1.0967e-07
4.28346e-09
1.09143e-07
4.35614e-09
1.08613e-07
4.25886e-09
1.08065e-07
4.34389e-09
1.07515e-07
4.23608e-09
1.06949e-07
4.32959e-09
1.06383e-07
4.21408e-09
1.05801e-07
4.31717e-09
1.05217e-07
4.20727e-09
1.04619e-07
4.31311e-09
4.24323e-09
1.24121e-07
5.25285e-09
-1.24103e-07
1.24271e-07
6.28493e-09
1.24558e-07
7.29094e-09
1.24913e-07
8.08673e-09
1.25256e-07
8.53685e-09
1.25565e-07
8.65884e-09
1.2585e-07
8.55862e-09
1.26105e-07
8.30157e-09
1.26301e-07
7.90223e-09
1.26419e-07
7.38381e-09
1.26464e-07
6.81805e-09
1.26468e-07
6.29569e-09
1.26465e-07
5.90264e-09
1.26468e-07
5.64043e-09
1.26475e-07
5.47255e-09
1.26482e-07
5.34266e-09
1.26484e-07
5.22726e-09
1.26484e-07
5.10876e-09
1.26484e-07
4.99726e-09
1.26487e-07
4.89097e-09
1.2649e-07
4.80114e-09
1.26495e-07
4.7184e-09
1.26499e-07
4.65002e-09
1.26503e-07
4.58414e-09
1.26506e-07
4.52889e-09
1.2651e-07
4.47311e-09
1.26512e-07
4.42923e-09
1.26515e-07
4.38758e-09
1.26518e-07
4.36136e-09
1.26522e-07
4.33703e-09
1.26526e-07
4.32718e-09
1.26531e-07
4.31714e-09
1.26535e-07
4.32127e-09
1.2654e-07
4.32199e-09
1.26543e-07
4.33318e-09
1.26546e-07
4.33504e-09
1.26547e-07
4.3441e-09
1.26546e-07
4.34023e-09
1.26543e-07
4.34291e-09
1.26539e-07
4.33085e-09
1.26533e-07
4.32629e-09
1.26526e-07
4.30707e-09
1.26517e-07
4.29959e-09
1.26507e-07
4.27979e-09
1.26496e-07
4.27566e-09
1.26484e-07
4.26068e-09
1.26471e-07
4.26554e-09
1.26458e-07
4.26006e-09
1.26444e-07
4.27798e-09
1.26428e-07
4.28534e-09
1.26409e-07
4.31731e-09
1.26387e-07
4.33439e-09
1.26357e-07
4.37398e-09
1.26322e-07
4.39077e-09
1.26278e-07
4.42527e-09
1.26229e-07
4.42873e-09
1.26171e-07
4.44936e-09
1.26109e-07
4.4381e-09
1.26039e-07
4.45131e-09
1.25968e-07
4.43482e-09
1.2589e-07
4.45038e-09
1.25811e-07
4.43715e-09
1.25726e-07
4.46462e-09
1.25637e-07
4.46419e-09
1.25537e-07
4.50781e-09
1.25429e-07
4.51548e-09
1.25305e-07
4.56434e-09
1.25171e-07
4.56337e-09
1.25021e-07
4.60207e-09
1.24862e-07
4.58453e-09
1.24691e-07
4.61371e-09
1.24516e-07
4.5851e-09
1.24331e-07
4.61586e-09
1.24141e-07
4.58961e-09
1.23938e-07
4.63583e-09
1.23727e-07
4.61813e-09
1.23497e-07
4.6748e-09
1.23254e-07
4.65094e-09
1.22993e-07
4.70456e-09
1.22723e-07
4.66429e-09
1.22438e-07
4.71143e-09
1.22147e-07
4.6591e-09
1.21843e-07
4.71446e-09
1.21532e-07
4.66293e-09
1.21203e-07
4.73292e-09
1.20863e-07
4.67776e-09
1.20504e-07
4.75311e-09
1.20136e-07
4.68205e-09
1.19752e-07
4.75757e-09
1.19362e-07
4.67345e-09
1.18958e-07
4.7604e-09
1.18545e-07
4.67184e-09
1.18115e-07
4.77365e-09
1.17674e-07
4.6766e-09
1.1722e-07
4.78429e-09
1.16755e-07
4.67874e-09
1.1628e-07
4.79237e-09
1.15792e-07
4.69548e-09
1.15293e-07
4.81203e-09
4.75801e-09
1.29176e-07
5.25262e-09
-1.29175e-07
1.29309e-07
6.1518e-09
1.29566e-07
7.03387e-09
1.29903e-07
7.74995e-09
1.30246e-07
8.19371e-09
1.30557e-07
8.3476e-09
1.30835e-07
8.28086e-09
1.31079e-07
8.05711e-09
1.31273e-07
7.70832e-09
1.31402e-07
7.25543e-09
1.31463e-07
6.75614e-09
1.31482e-07
6.27734e-09
1.31486e-07
5.89843e-09
1.31493e-07
5.63305e-09
1.31506e-07
5.46043e-09
1.31518e-07
5.3299e-09
1.31527e-07
5.21849e-09
1.31532e-07
5.1033e-09
1.31536e-07
4.99356e-09
1.31541e-07
4.88602e-09
1.31547e-07
4.79522e-09
1.31554e-07
4.71138e-09
1.31561e-07
4.64358e-09
1.31567e-07
4.57777e-09
1.31572e-07
4.52367e-09
1.31577e-07
4.46806e-09
1.31581e-07
4.42515e-09
1.31586e-07
4.38317e-09
1.3159e-07
4.35739e-09
1.31595e-07
4.33211e-09
1.316e-07
4.32222e-09
1.31606e-07
4.31092e-09
1.31612e-07
4.31502e-09
1.31619e-07
4.3146e-09
1.31626e-07
4.32619e-09
1.31634e-07
4.32749e-09
1.3164e-07
4.33768e-09
1.31647e-07
4.33376e-09
1.31652e-07
4.33798e-09
1.31657e-07
4.32604e-09
1.3166e-07
4.32319e-09
1.31663e-07
4.30405e-09
1.31664e-07
4.29826e-09
1.31665e-07
4.27844e-09
1.31665e-07
4.27589e-09
1.31665e-07
4.26049e-09
1.31664e-07
4.26654e-09
1.31664e-07
4.26013e-09
1.31663e-07
4.27894e-09
1.31663e-07
4.28536e-09
1.31662e-07
4.31892e-09
1.3166e-07
4.3363e-09
1.31654e-07
4.37924e-09
1.31647e-07
4.39802e-09
1.31635e-07
4.43728e-09
1.31621e-07
4.44337e-09
1.31601e-07
4.46886e-09
1.31579e-07
4.45971e-09
1.31554e-07
4.47715e-09
1.31527e-07
4.4618e-09
1.31496e-07
4.48052e-09
1.31466e-07
4.46727e-09
1.31433e-07
4.4975e-09
1.314e-07
4.49795e-09
1.3136e-07
4.54704e-09
1.31317e-07
4.55925e-09
1.31264e-07
4.61715e-09
1.31204e-07
4.62321e-09
1.31134e-07
4.67234e-09
1.31057e-07
4.66164e-09
1.30971e-07
4.69935e-09
1.30882e-07
4.67438e-09
1.30787e-07
4.71097e-09
1.30689e-07
4.68724e-09
1.30584e-07
4.74064e-09
1.30473e-07
4.72919e-09
1.3035e-07
4.79808e-09
1.30216e-07
4.78523e-09
1.30067e-07
4.85346e-09
1.29907e-07
4.82358e-09
1.29737e-07
4.8819e-09
1.2956e-07
4.83579e-09
1.29375e-07
4.89959e-09
1.29183e-07
4.85499e-09
1.28979e-07
4.93716e-09
1.28762e-07
4.89461e-09
1.2853e-07
4.98552e-09
1.28284e-07
4.92804e-09
1.28026e-07
5.01542e-09
1.27758e-07
4.94127e-09
1.27481e-07
5.03733e-09
1.27192e-07
4.96096e-09
1.26891e-07
5.07492e-09
1.26572e-07
4.99533e-09
1.26243e-07
5.11342e-09
1.25896e-07
5.02537e-09
1.25544e-07
5.14409e-09
1.25173e-07
5.06673e-09
1.24796e-07
5.18945e-09
5.15923e-09
1.34424e-07
5.23598e-09
-1.34407e-07
1.34545e-07
6.03041e-09
1.34777e-07
6.80216e-09
1.35094e-07
7.43258e-09
1.35431e-07
7.8566e-09
1.35743e-07
8.0363e-09
1.36016e-07
8.00788e-09
1.36252e-07
7.82092e-09
1.36442e-07
7.51776e-09
1.36577e-07
7.121e-09
1.36652e-07
6.68046e-09
1.36684e-07
6.24576e-09
1.36696e-07
5.88655e-09
1.36707e-07
5.62176e-09
1.36723e-07
5.44477e-09
1.3674e-07
5.31246e-09
1.36755e-07
5.20412e-09
1.36765e-07
5.09307e-09
1.36772e-07
4.98663e-09
1.36779e-07
4.87908e-09
1.36786e-07
4.78753e-09
1.36795e-07
4.70258e-09
1.36804e-07
4.63525e-09
1.36812e-07
4.56971e-09