/*--------------------------------*- C++ -*----------------------------------*\
| =========                 |                                                 |
| \\      /  F ield         | OpenFOAM: The Open Source CFD Toolbox           |
|  \\    /   O peration     | Version:  5.x                                   |
|   \\  /    A nd           | Web:      www.OpenFOAM.org                      |
|    \\/     M anipulation  |                                                 |
\*---------------------------------------------------------------------------*/
FoamFile
{
    version     2.0;
    format      ascii;
    class       volVectorField;
    location    "1";
    object      U;
}
// * * * * * * * * * * * * * * * * * * * * * * * * * * * * * * * * * * * * * //

dimensions      [0 1 -1 0 0 0 0];

internalField   nonuniform List<vector> 
10800
(
(0.911935 0.0100678 0)
(0.818443 0.013777 0)
(0.725756 0.013627 0)
(0.63189 0.0126768 0)
(0.537998 0.0117153 0)
(0.447453 0.0102528 0)
(0.366372 0.00799153 0)
(0.301901 0.0048027 0)
(0.257584 0.00175588 0)
(0.229634 -3.88927e-07 0)
(0.211564 -0.000545337 0)
(0.19932 -0.000576173 0)
(0.190627 -0.000451905 0)
(0.183887 -0.000278338 0)
(0.178045 -0.000109449 0)
(0.17256 1.77644e-05 0)
(0.167249 9.65071e-05 0)
(0.162086 0.000136515 0)
(0.157128 0.000151056 0)
(0.15241 0.000151219 0)
(0.147972 0.000144283 0)
(0.143806 0.000134725 0)
(0.139915 0.000125022 0)
(0.136267 0.000116114 0)
(0.132857 0.000107917 0)
(0.129649 0.000100186 0)
(0.126643 9.29242e-05 0)
(0.123801 8.64122e-05 0)
(0.121121 8.08288e-05 0)
(0.118562 7.60016e-05 0)
(0.116131 7.16334e-05 0)
(0.113796 6.75794e-05 0)
(0.111571 6.39071e-05 0)
(0.109423 6.05476e-05 0)
(0.107373 5.73693e-05 0)
(0.105389 5.4221e-05 0)
(0.103497 5.1197e-05 0)
(0.10166 4.83941e-05 0)
(0.0999069 4.59194e-05 0)
(0.0981954 4.36557e-05 0)
(0.0965598 4.15604e-05 0)
(0.0949569 3.95155e-05 0)
(0.0934272 3.76301e-05 0)
(0.0919227 3.57915e-05 0)
(0.09049 3.4039e-05 0)
(0.0890756 3.23684e-05 0)
(0.0877308 3.09195e-05 0)
(0.0863946 2.95223e-05 0)
(0.0851261 2.82847e-05 0)
(0.0838581 2.70789e-05 0)
(0.0826584 2.5966e-05 0)
(0.0814529 2.47957e-05 0)
(0.0803185 2.37524e-05 0)
(0.0791709 2.27219e-05 0)
(0.0780957 2.18492e-05 0)
(0.0769985 2.09439e-05 0)
(0.0759778 2.0117e-05 0)
(0.0749286 1.92039e-05 0)
(0.0739618 1.84215e-05 0)
(0.0729576 1.76149e-05 0)
(0.0720399 1.69827e-05 0)
(0.0710741 1.62804e-05 0)
(0.0702013 1.56975e-05 0)
(0.0692705 1.50401e-05 0)
(0.0684409 1.45149e-05 0)
(0.0675417 1.39165e-05 0)
(0.0667521 1.3495e-05 0)
(0.0658797 1.2952e-05 0)
(0.065129 1.25068e-05 0)
(0.0642832 1.195e-05 0)
(0.063572 1.15717e-05 0)
(0.0627489 1.10946e-05 0)
(0.0620748 1.07565e-05 0)
(0.0612715 1.02727e-05 0)
(0.0606349 9.97174e-06 0)
(0.0598477 9.5768e-06 0)
(0.059246 9.33477e-06 0)
(0.0584711 8.92305e-06 0)
(0.0579059 8.68397e-06 0)
(0.0571409 8.3233e-06 0)
(0.0566123 8.11002e-06 0)
(0.055854 7.73776e-06 0)
(0.0553641 7.5485e-06 0)
(0.0546084 7.2289e-06 0)
(0.0541576 7.06478e-06 0)
(0.0533995 6.76547e-06 0)
(0.0529897 6.62155e-06 0)
(0.052224 6.35034e-06 0)
(0.0518584 6.20092e-06 0)
(0.0510799 5.95301e-06 0)
(0.0507626 5.80957e-06 0)
(0.049964 5.60513e-06 0)
(0.0496994 5.45862e-06 0)
(0.0488716 5.31946e-06 0)
(0.048665 5.1425e-06 0)
(0.0477971 5.08371e-06 0)
(0.0476561 4.8482e-06 0)
(0.0467341 4.92432e-06 0)
(0.0466674 4.56313e-06 0)
(0.045669 5.12446e-06 0)
(0.967145 0.0190005 0)
(0.960299 0.0267994 0)
(0.947695 0.0279815 0)
(0.926801 0.0274684 0)
(0.896981 0.0269056 0)
(0.859247 0.0257343 0)
(0.816322 0.0233852 0)
(0.771864 0.019388 0)
(0.729652 0.0144668 0)
(0.691412 0.0100499 0)
(0.656731 0.00695268 0)
(0.62523 0.00496436 0)
(0.59691 0.00369354 0)
(0.571621 0.00291768 0)
(0.548981 0.00246077 0)
(0.528532 0.00217972 0)
(0.509939 0.00198208 0)
(0.492884 0.00181992 0)
(0.477183 0.00167318 0)
(0.462635 0.00153613 0)
(0.449142 0.00140834 0)
(0.43655 0.00129072 0)
(0.4248 0.00118383 0)
(0.413766 0.00108725 0)
(0.403429 0.00100022 0)
(0.393683 0.000922093 0)
(0.384528 0.000852612 0)
(0.37585 0.000791459 0)
(0.367653 0.000738103 0)
(0.359827 0.00069091 0)
(0.3524 0.000648404 0)
(0.345269 0.000609439 0)
(0.338484 0.00057394 0)
(0.331943 0.000541219 0)
(0.325711 0.000510889 0)
(0.319684 0.000482203 0)
(0.313941 0.000455552 0)
(0.308365 0.000430857 0)
(0.303045 0.000408481 0)
(0.297851 0.000387646 0)
(0.292891 0.000368353 0)
(0.288029 0.000349897 0)
(0.283391 0.00033284 0)
(0.278826 0.000316503 0)
(0.27448 0.000301291 0)
(0.270183 0.000286804 0)
(0.266099 0.000273751 0)
(0.262039 0.000261198 0)
(0.258189 0.000249784 0)
(0.25434 0.000238671 0)
(0.250704 0.000228449 0)
(0.247048 0.000218232 0)
(0.243611 0.000209019 0)
(0.24013 0.000199949 0)
(0.236873 0.000191904 0)
(0.233547 0.000183751 0)
(0.230457 0.000176366 0)
(0.227276 0.000168697 0)
(0.224346 0.000161989 0)
(0.221296 0.000155135 0)
(0.218512 0.00014934 0)
(0.21558 0.000143174 0)
(0.212933 0.00013791 0)
(0.210107 0.000132222 0)
(0.207592 0.000127496 0)
(0.204861 0.000122308 0)
(0.202468 0.000118204 0)
(0.199822 0.000113399 0)
(0.197549 0.000109486 0)
(0.194982 0.000104896 0)
(0.192826 0.000101477 0)
(0.190326 9.73326e-05 0)
(0.188284 9.42586e-05 0)
(0.185844 9.02803e-05 0)
(0.183913 8.75725e-05 0)
(0.181521 8.40261e-05 0)
(0.179698 8.16715e-05 0)
(0.177345 7.81892e-05 0)
(0.175634 7.60491e-05 0)
(0.173311 7.2839e-05 0)
(0.171711 7.09462e-05 0)
(0.169408 6.78017e-05 0)
(0.167924 6.61798e-05 0)
(0.165628 6.32798e-05 0)
(0.164264 6.19008e-05 0)
(0.161961 5.91228e-05 0)
(0.160722 5.79735e-05 0)
(0.158398 5.53185e-05 0)
(0.157294 5.43205e-05 0)
(0.154932 5.17736e-05 0)
(0.153974 5.09757e-05 0)
(0.151552 4.85839e-05 0)
(0.150755 4.79627e-05 0)
(0.148246 4.57789e-05 0)
(0.147627 4.52525e-05 0)
(0.145001 4.33326e-05 0)
(0.144582 4.28304e-05 0)
(0.141798 4.13793e-05 0)
(0.141604 4.06818e-05 0)
(0.138611 4.14499e-05 0)
(0.971523 0.0174479 0)
(0.972662 0.0255331 0)
(0.97578 0.0282843 0)
(0.977404 0.0289071 0)
(0.975613 0.0292946 0)
(0.969813 0.0292261 0)
(0.960088 0.0279223 0)
(0.946825 0.024846 0)
(0.930913 0.0205443 0)
(0.913344 0.0162984 0)
(0.894687 0.0130906 0)
(0.875383 0.0109418 0)
(0.856006 0.00947165 0)
(0.836905 0.00840815 0)
(0.818241 0.00758732 0)
(0.799972 0.0069103 0)
(0.782148 0.00632053 0)
(0.764715 0.00578993 0)
(0.747753 0.00530653 0)
(0.73122 0.00486527 0)
(0.715208 0.00446396 0)
(0.699653 0.00410109 0)
(0.68464 0.00377448 0)
(0.670084 0.00347927 0)
(0.656077 0.00321095 0)
(0.642525 0.00296659 0)
(0.629524 0.0027463 0)
(0.616952 0.00254961 0)
(0.604902 0.0023754 0)
(0.593232 0.0022195 0)
(0.58205 0.00207883 0)
(0.571203 0.00195031 0)
(0.560813 0.00183335 0)
(0.550714 0.00172555 0)
(0.54105 0.00162616 0)
(0.531641 0.00153324 0)
(0.522648 0.00144783 0)
(0.513867 0.00136907 0)
(0.505472 0.00129764 0)
(0.497235 0.00123116 0)
(0.48936 0.00116976 0)
(0.481599 0.00111133 0)
(0.474186 0.00105726 0)
(0.466853 0.00100564 0)
(0.459861 0.00095779 0)
(0.452912 0.000912176 0)
(0.446303 0.00087061 0)
(0.439702 0.000830643 0)
(0.433444 0.000794052 0)
(0.427162 0.000758426 0)
(0.421233 0.000725663 0)
(0.415248 0.000693348 0)
(0.409628 0.000664144 0)
(0.403913 0.000635465 0)
(0.398575 0.000609745 0)
(0.3931 0.00058383 0)
(0.388024 0.000560387 0)
(0.382771 0.000536429 0)
(0.377943 0.000515329 0)
(0.372893 0.000493808 0)
(0.368295 0.000475223 0)
(0.363427 0.000455673 0)
(0.359049 0.000438847 0)
(0.354349 0.000420869 0)
(0.350183 0.000405774 0)
(0.345634 0.000389375 0)
(0.341666 0.000376021 0)
(0.337253 0.000360771 0)
(0.333479 0.000348359 0)
(0.329189 0.000334046 0)
(0.325604 0.000323099 0)
(0.321421 0.000309976 0)
(0.318021 0.000300118 0)
(0.313932 0.000287697 0)
(0.310715 0.000279017 0)
(0.306702 0.000267676 0)
(0.303664 0.000260005 0)
(0.299714 0.000249051 0)
(0.296859 0.000242206 0)
(0.292955 0.000231963 0)
(0.290286 0.00022593 0)
(0.286412 0.000216021 0)
(0.283935 0.000210886 0)
(0.280071 0.000201565 0)
(0.277793 0.000197231 0)
(0.273916 0.000188244 0)
(0.271847 0.00018469 0)
(0.267933 0.000175986 0)
(0.266091 0.000173086 0)
(0.262111 0.000164626 0)
(0.260513 0.00016249 0)
(0.256433 0.000154314 0)
(0.255105 0.000152919 0)
(0.250882 0.000145077 0)
(0.249853 0.000144301 0)
(0.245438 0.000136895 0)
(0.244742 0.000136648 0)
(0.240072 0.000130117 0)
(0.23975 0.000129879 0)
(0.234757 0.000128387 0)
(0.976027 0.016037 0)
(0.976656 0.0232397 0)
(0.980414 0.0267728 0)
(0.985086 0.0279281 0)
(0.989023 0.0284823 0)
(0.991729 0.0286363 0)
(0.993084 0.0277578 0)
(0.992717 0.0253651 0)
(0.99032 0.0218234 0)
(0.985788 0.0181219 0)
(0.979444 0.0151899 0)
(0.971724 0.013235 0)
(0.963254 0.0119604 0)
(0.954324 0.011047 0)
(0.945163 0.0103162 0)
(0.935686 0.0096833 0)
(0.925972 0.00910871 0)
(0.915906 0.00857343 0)
(0.905616 0.00806965 0)
(0.895016 0.00759359 0)
(0.88427 0.00714478 0)
(0.873288 0.0067234 0)
(0.862244 0.0063301 0)
(0.851028 0.00596131 0)
(0.839827 0.00561387 0)
(0.828511 0.00528499 0)
(0.817278 0.0049769 0)
(0.805974 0.00469078 0)
(0.794807 0.00442789 0)
(0.783597 0.00418393 0)
(0.772574 0.0039567 0)
(0.761537 0.00374279 0)
(0.750736 0.00354307 0)
(0.739949 0.00335438 0)
(0.729451 0.00317688 0)
(0.718994 0.00300792 0)
(0.708877 0.00285042 0)
(0.698811 0.00270328 0)
(0.689111 0.00256879 0)
(0.679444 0.00244303 0)
(0.670154 0.0023269 0)
(0.660868 0.00221639 0)
(0.651963 0.00211399 0)
(0.643027 0.00201589 0)
(0.634482 0.00192484 0)
(0.625868 0.00183744 0)
(0.617658 0.00175711 0)
(0.609346 0.00167928 0)
(0.60146 0.00160756 0)
(0.59344 0.00153725 0)
(0.585878 0.00147235 0)
(0.578152 0.00140829 0)
(0.570917 0.00135028 0)
(0.563475 0.00129326 0)
(0.556552 0.00124203 0)
(0.54937 0.00119044 0)
(0.542742 0.00114385 0)
(0.535801 0.00109634 0)
(0.529453 0.00105439 0)
(0.522729 0.00101144 0)
(0.516643 0.000974033 0)
(0.510118 0.000934671 0)
(0.50429 0.000900689 0)
(0.497954 0.000864388 0)
(0.492382 0.000833801 0)
(0.486221 0.000800626 0)
(0.480895 0.000773386 0)
(0.474892 0.000742481 0)
(0.46981 0.000717386 0)
(0.463949 0.000688504 0)
(0.459103 0.000666217 0)
(0.453364 0.000639508 0)
(0.448754 0.000619383 0)
(0.443125 0.000594172 0)
(0.43875 0.000576396 0)
(0.433209 0.000553125 0)
(0.429071 0.000537342 0)
(0.423602 0.000515 0)
(0.419704 0.000500989 0)
(0.414285 0.000479942 0)
(0.410635 0.000467608 0)
(0.405245 0.000447301 0)
(0.401852 0.000436796 0)
(0.396465 0.000417518 0)
(0.39334 0.000408682 0)
(0.387927 0.000390027 0)
(0.385088 0.000382834 0)
(0.379616 0.000364658 0)
(0.377085 0.000358945 0)
(0.371516 0.000341152 0)
(0.369321 0.000337104 0)
(0.36361 0.000319698 0)
(0.361783 0.000317313 0)
(0.355873 0.000300311 0)
(0.354457 0.000299444 0)
(0.348283 0.000282988 0)
(0.347326 0.000283522 0)
(0.340809 0.0002684 0)
(0.340357 0.000269274 0)
(0.333422 0.000262341 0)
(0.980045 0.0154482 0)
(0.980341 0.0217326 0)
(0.983437 0.0256814 0)
(0.987929 0.0271896 0)
(0.992403 0.0276722 0)
(0.996313 0.0276485 0)
(0.999728 0.0267866 0)
(1.00237 0.024728 0)
(1.00395 0.0216963 0)
(1.00399 0.0184321 0)
(1.00261 0.0157312 0)
(1.00005 0.0138951 0)
(0.996958 0.0127314 0)
(0.993527 0.011935 0)
(0.990044 0.0113102 0)
(0.986332 0.0107656 0)
(0.982501 0.0102671 0)
(0.97831 0.0098007 0)
(0.973918 0.00936142 0)
(0.969113 0.00894441 0)
(0.964106 0.00854867 0)
(0.958683 0.00817285 0)
(0.953086 0.00781827 0)
(0.947087 0.00748083 0)
(0.940946 0.00715847 0)
(0.93441 0.00684771 0)
(0.927763 0.00655206 0)
(0.920724 0.00627242 0)
(0.913604 0.00601163 0)
(0.906097 0.00576433 0)
(0.898545 0.00552934 0)
(0.890615 0.0053021 0)
(0.882686 0.00508483 0)
(0.8744 0.00487284 0)
(0.866181 0.00466753 0)
(0.857643 0.00446498 0)
(0.849255 0.00427063 0)
(0.840591 0.00408309 0)
(0.832158 0.00390787 0)
(0.823475 0.0037403 0)
(0.815085 0.00358383 0)
(0.806446 0.00343303 0)
(0.798142 0.00329277 0)
(0.789569 0.0031571 0)
(0.781364 0.00303104 0)
(0.772854 0.00290873 0)
(0.764742 0.00279573 0)
(0.756292 0.00268456 0)
(0.748278 0.00258125 0)
(0.739897 0.00247804 0)
(0.732011 0.00238177 0)
(0.723738 0.0022851 0)
(0.716029 0.00219687 0)
(0.707902 0.00210908 0)
(0.700404 0.00203014 0)
(0.692441 0.00195014 0)
(0.685168 0.0018782 0)
(0.677366 0.00180449 0)
(0.670312 0.00173959 0)
(0.662652 0.00167256 0)
(0.655804 0.00161409 0)
(0.648271 0.00155185 0)
(0.641632 0.0014981 0)
(0.634225 0.00144 0)
(0.62781 0.00139102 0)
(0.620535 0.00133746 0)
(0.614352 0.00129353 0)
(0.607203 0.00124344 0)
(0.601263 0.00120306 0)
(0.594226 0.00115625 0)
(0.588524 0.00112022 0)
(0.581581 0.00107657 0)
(0.576119 0.00104382 0)
(0.569258 0.00100246 0)
(0.564045 0.000973352 0)
(0.557249 0.000934797 0)
(0.552295 0.000908827 0)
(0.545551 0.00087185 0)
(0.540866 0.000848841 0)
(0.534149 0.00081379 0)
(0.529745 0.00079351 0)
(0.523032 0.000759639 0)
(0.518923 0.000742311 0)
(0.512187 0.000709911 0)
(0.508394 0.000695346 0)
(0.501602 0.000663881 0)
(0.498147 0.000652067 0)
(0.491262 0.000621269 0)
(0.488176 0.000612013 0)
(0.481153 0.000581701 0)
(0.478471 0.000575273 0)
(0.471258 0.000545403 0)
(0.469023 0.000541847 0)
(0.461555 0.000512396 0)
(0.459818 0.000511542 0)
(0.452019 0.000482709 0)
(0.450839 0.00048436 0)
(0.442621 0.000457425 0)
(0.442052 0.000459814 0)
(0.43333 0.000444274 0)
(0.983422 0.0152489 0)
(0.983576 0.0206694 0)
(0.986127 0.0246884 0)
(0.990141 0.0264673 0)
(0.994465 0.0269283 0)
(0.998352 0.0267357 0)
(1.00189 0.0258388 0)
(1.00485 0.0240119 0)
(1.00715 0.021372 0)
(1.00826 0.018457 0)
(1.00833 0.0159315 0)
(1.0074 0.0141401 0)
(1.00613 0.0129949 0)
(1.00464 0.0122333 0)
(1.00334 0.0116528 0)
(1.00195 0.0111475 0)
(1.00071 0.0106821 0)
(0.999242 0.0102467 0)
(0.997807 0.00984125 0)
(0.996055 0.00946079 0)
(0.994305 0.00910419 0)
(0.992195 0.00876757 0)
(0.990089 0.00845233 0)
(0.987599 0.00815289 0)
(0.98512 0.00786861 0)
(0.982228 0.00759492 0)
(0.979346 0.00733665 0)
(0.976013 0.00709315 0)
(0.972691 0.00686849 0)
(0.968882 0.00665539 0)
(0.965087 0.00645387 0)
(0.960766 0.0062572 0)
(0.956468 0.00606867 0)
(0.951615 0.00588086 0)
(0.946815 0.00569611 0)
(0.941453 0.00550772 0)
(0.936201 0.00532279 0)
(0.930401 0.00513787 0)
(0.924793 0.00496134 0)
(0.91866 0.00478709 0)
(0.912799 0.00462199 0)
(0.906418 0.00445906 0)
(0.900376 0.0043069 0)
(0.893797 0.00415734 0)
(0.887605 0.00401889 0)
(0.880836 0.00388295 0)
(0.874493 0.00375817 0)
(0.867523 0.0036335 0)
(0.86102 0.00351798 0)
(0.853838 0.00339961 0)
(0.847184 0.00328835 0)
(0.839819 0.0031728 0)
(0.833071 0.00306611 0)
(0.82559 0.00295649 0)
(0.81883 0.00285736 0)
(0.811303 0.00275464 0)
(0.804598 0.00266266 0)
(0.797066 0.00256709 0)
(0.790442 0.00248387 0)
(0.782903 0.0023967 0)
(0.776354 0.00232155 0)
(0.76879 0.00223983 0)
(0.762312 0.00216979 0)
(0.754719 0.00209199 0)
(0.748337 0.00202655 0)
(0.740737 0.00195319 0)
(0.73449 0.0018934 0)
(0.72691 0.00182387 0)
(0.720836 0.00176863 0)
(0.713282 0.00170344 0)
(0.70739 0.00165408 0)
(0.699845 0.00159292 0)
(0.694139 0.00154776 0)
(0.68659 0.00148922 0)
(0.681085 0.00144862 0)
(0.673523 0.00139331 0)
(0.668246 0.00135669 0)
(0.660671 0.00130337 0)
(0.655646 0.00127092 0)
(0.64804 0.00122007 0)
(0.643286 0.00119143 0)
(0.635625 0.00114208 0)
(0.631161 0.0011175 0)
(0.623419 0.00106985 0)
(0.619275 0.00104912 0)
(0.611424 0.0010026 0)
(0.607634 0.000985822 0)
(0.599637 0.000940072 0)
(0.596238 0.000927053 0)
(0.588047 0.000881786 0)
(0.585082 0.000872865 0)
(0.576644 0.000827985 0)
(0.574165 0.00082328 0)
(0.565413 0.000778762 0)
(0.563481 0.000778085 0)
(0.554334 0.000734224 0)
(0.553014 0.00073724 0)
(0.543382 0.000695904 0)
(0.542735 0.000700127 0)
(0.53253 0.000673203 0)
(0.986137 0.0151324 0)
(0.986223 0.0198139 0)
(0.988367 0.0236565 0)
(0.991897 0.0256145 0)
(0.995987 0.0261335 0)
(0.999719 0.0258594 0)
(1.00317 0.0249583 0)
(1.00602 0.0233267 0)
(1.00838 0.0210236 0)
(1.0097 0.0184203 0)
(1.0102 0.0160602 0)
(1.00973 0.014297 0)
(1.00904 0.0131349 0)
(1.0081 0.0123661 0)
(1.00746 0.0117943 0)
(1.00677 0.0112991 0)
(1.00639 0.0108389 0)
(1.00582 0.0104051 0)
(1.00548 0.010004 0)
(1.00485 0.00963159 0)
(1.00442 0.0092879 0)
(1.00365 0.0089662 0)
(1.0031 0.00866839 0)
(1.00217 0.00838677 0)
(1.00148 0.00812266 0)
(1.00037 0.00787016 0)
(0.9995 0.00763598 0)
(0.998174 0.00741739 0)
(0.997082 0.00722037 0)
(0.995485 0.00703562 0)
(0.994122 0.00686524 0)
(0.992194 0.00670003 0)
(0.990494 0.00654506 0)
(0.988167 0.0063897 0)
(0.986078 0.00623787 0)
(0.983311 0.0060792 0)
(0.980813 0.00592241 0)
(0.97761 0.00576033 0)
(0.974737 0.00560388 0)
(0.97115 0.00544407 0)
(0.967967 0.00529141 0)
(0.964058 0.00513634 0)
(0.960622 0.00499176 0)
(0.95643 0.00484677 0)
(0.952769 0.00471416 0)
(0.948299 0.00458217 0)
(0.944407 0.00446371 0)
(0.939636 0.00434381 0)
(0.935481 0.00423563 0)
(0.930361 0.00412216 0)
(0.925905 0.00401701 0)
(0.920409 0.00390307 0)
(0.915657 0.00379774 0)
(0.909817 0.00368385 0)
(0.904839 0.00358034 0)
(0.898738 0.00346812 0)
(0.893631 0.00336799 0)
(0.887345 0.00326055 0)
(0.882171 0.00316867 0)
(0.875728 0.00307012 0)
(0.8705 0.00298773 0)
(0.863882 0.00289559 0)
(0.858581 0.00281893 0)
(0.851755 0.00273013 0)
(0.846379 0.00265669 0)
(0.839355 0.00257014 0)
(0.833951 0.0025006 0)
(0.826778 0.00241599 0)
(0.821418 0.0023502 0)
(0.814137 0.00226978 0)
(0.808863 0.00221087 0)
(0.801476 0.00213522 0)
(0.796294 0.00208144 0)
(0.788776 0.00200844 0)
(0.783692 0.00195954 0)
(0.776032 0.00188924 0)
(0.771081 0.00184418 0)
(0.763295 0.00177533 0)
(0.758527 0.00173509 0)
(0.750617 0.0016689 0)
(0.746065 0.00163343 0)
(0.738011 0.00156888 0)
(0.733695 0.00153839 0)
(0.725467 0.00147537 0)
(0.721424 0.00144944 0)
(0.713002 0.00138732 0)
(0.709278 0.00136633 0)
(0.700638 0.00130486 0)
(0.69728 0.00128878 0)
(0.688375 0.00122763 0)
(0.68543 0.00121681 0)
(0.676209 0.00115578 0)
(0.673735 0.0011504 0)
(0.66414 0.00108953 0)
(0.662203 0.00108944 0)
(0.652158 0.00102922 0)
(0.650828 0.00103391 0)
(0.640246 0.000976825 0)
(0.639586 0.000983162 0)
(0.628384 0.000943115 0)
(0.988248 0.0150316 0)
(0.988289 0.0191163 0)
(0.990127 0.0226571 0)
(0.993194 0.0246825 0)
(0.99702 0.0252885 0)
(1.00056 0.0250063 0)
(1.00393 0.0241282 0)
(1.00665 0.0226549 0)
(1.009 0.0206304 0)
(1.01036 0.0183076 0)
(1.01109 0.0161187 0)
(1.01083 0.0143984 0)
(1.01043 0.0132195 0)
(1.00965 0.0124324 0)
(1.00927 0.011858 0)
(1.00875 0.0113664 0)
(1.00865 0.0109069 0)
(1.00831 0.0104675 0)
(1.00834 0.0100608 0)
(1.00801 0.00968468 0)
(1.00804 0.00934174 0)
(1.00767 0.00902227 0)
(1.00768 0.00872945 0)
(1.00726 0.00845277 0)
(1.00724 0.00819563 0)
(1.00676 0.00795008 0)
(1.00671 0.00772542 0)
(1.00614 0.00751638 0)
(1.00603 0.00733172 0)
(1.00535 0.00715994 0)
(1.00515 0.00700622 0)
(1.00432 0.00685864 0)
(1.00397 0.00672509 0)
(1.00293 0.00659149 0)
(1.00237 0.00646439 0)
(1.00106 0.00632933 0)
(1.00026 0.00619734 0)
(0.998645 0.0060567 0)
(0.997603 0.0059212 0)
(0.995703 0.00577796 0)
(0.994448 0.00564142 0)
(0.992296 0.00549841 0)
(0.990859 0.00536644 0)
(0.988479 0.00523098 0)
(0.986879 0.00510965 0)
(0.984269 0.00498676 0)
(0.982499 0.0048804 0)
(0.979637 0.00477129 0)
(0.977662 0.00467796 0)
(0.974488 0.0045782 0)
(0.972241 0.00449036 0)
(0.968682 0.00439073 0)
(0.966111 0.0043012 0)
(0.962136 0.0041975 0)
(0.959261 0.00410415 0)
(0.954918 0.0039956 0)
(0.951817 0.00389968 0)
(0.947184 0.00379098 0)
(0.943933 0.00370028 0)
(0.939058 0.00359894 0)
(0.935693 0.00351816 0)
(0.93057 0.00342449 0)
(0.927067 0.0033514 0)
(0.921638 0.00326215 0)
(0.917952 0.00319208 0)
(0.912178 0.00310288 0)
(0.90832 0.00303377 0)
(0.902233 0.00294252 0)
(0.898279 0.00287381 0)
(0.891945 0.00278414 0)
(0.887973 0.0027216 0)
(0.881426 0.00263674 0)
(0.877461 0.00258045 0)
(0.870673 0.00249875 0)
(0.866699 0.00244788 0)
(0.859633 0.00236799 0)
(0.855666 0.00231982 0)
(0.848334 0.00223935 0)
(0.844438 0.00219518 0)
(0.836869 0.00211651 0)
(0.833105 0.00207755 0)
(0.825297 0.00200056 0)
(0.821686 0.00196751 0)
(0.813601 0.00189167 0)
(0.810167 0.00186338 0)
(0.801785 0.00178746 0)
(0.798584 0.00176435 0)
(0.789897 0.00168847 0)
(0.786991 0.00167111 0)
(0.777967 0.00159527 0)
(0.7754 0.00158411 0)
(0.76599 0.00150789 0)
(0.763817 0.00150294 0)
(0.753973 0.00142641 0)
(0.752266 0.00142763 0)
(0.741931 0.0013517 0)
(0.740757 0.0013585 0)
(0.729856 0.00128631 0)
(0.72927 0.0012949 0)
(0.717737 0.00124187 0)
(0.989881 0.0149378 0)
(0.989872 0.0185268 0)
(0.991473 0.0217154 0)
(0.994108 0.0237116 0)
(0.997656 0.0244007 0)
(1.00098 0.0241657 0)
(1.00427 0.0233362 0)
(1.00686 0.021994 0)
(1.00921 0.0201971 0)
(1.01056 0.0181246 0)
(1.01146 0.0161117 0)
(1.01135 0.0144571 0)
(1.01118 0.0132749 0)
(1.01051 0.0124691 0)
(1.01029 0.0118876 0)
(1.00981 0.0113983 0)
(1.00986 0.0109426 0)
(1.00956 0.0104997 0)
(1.00975 0.0100868 0)
(1.00949 0.00970401 0)
(1.0097 0.00935824 0)
(1.00941 0.00903673 0)
(1.00963 0.00874468 0)
(1.00931 0.00846813 0)
(1.00954 0.00821281 0)
(1.00919 0.00796771 0)
(1.00944 0.00774546 0)
(1.00906 0.00753775 0)
(1.00932 0.0073567 0)
(1.0089 0.00718801 0)
(1.00915 0.00704074 0)
(1.00867 0.00689973 0)
(1.0089 0.00677651 0)
(1.00831 0.00665328 0)
(1.00847 0.0065401 0)
(1.00774 0.00641815 0)
(1.00779 0.00630169 0)
(1.00688 0.00617404 0)
(1.00682 0.00605258 0)
(1.00575 0.00591985 0)
(1.00558 0.00579479 0)
(1.00436 0.00565977 0)
(1.00411 0.00553731 0)
(1.00274 0.00540838 0)
(1.00243 0.00529581 0)
(1.00091 0.00517913 0)
(1.00053 0.00508216 0)
(0.998849 0.00498083 0)
(0.998374 0.00489986 0)
(0.996494 0.00481177 0)
(0.995868 0.00474087 0)
(0.993703 0.0046567 0)
(0.99285 0.00458632 0)
(0.990333 0.0044976 0)
(0.989226 0.00442059 0)
(0.986361 0.00432224 0)
(0.985044 0.0042374 0)
(0.981882 0.00413367 0)
(0.980419 0.00405002 0)
(0.977009 0.00395072 0)
(0.975445 0.00387607 0)
(0.971798 0.00378514 0)
(0.970123 0.00372081 0)
(0.966181 0.00363731 0)
(0.964326 0.00357847 0)
(0.960007 0.00349525 0)
(0.957929 0.00343584 0)
(0.953216 0.00334684 0)
(0.950959 0.00328347 0)
(0.945907 0.00319142 0)
(0.943558 0.00313116 0)
(0.93823 0.00304226 0)
(0.935843 0.00298885 0)
(0.930227 0.00290426 0)
(0.927777 0.00285799 0)
(0.921808 0.00277547 0)
(0.919268 0.00273121 0)
(0.91292 0.0026455 0)
(0.910335 0.00260285 0)
(0.90365 0.00251635 0)
(0.901105 0.00247801 0)
(0.894111 0.00239276 0)
(0.89164 0.00236139 0)
(0.884298 0.00227742 0)
(0.881899 0.00225106 0)
(0.874168 0.00216566 0)
(0.871883 0.00214369 0)
(0.863769 0.00205678 0)
(0.861672 0.00204057 0)
(0.853169 0.00195333 0)
(0.851305 0.0019441 0)
(0.842368 0.00185606 0)
(0.840772 0.00185326 0)
(0.831358 0.00176408 0)
(0.830097 0.00176756 0)
(0.820177 0.00167884 0)
(0.819314 0.00168816 0)
(0.808835 0.00160397 0)
(0.808406 0.00161474 0)
(0.797321 0.00155129 0)
(0.991183 0.0148336 0)
(0.991107 0.0179988 0)
(0.992519 0.0208367 0)
(0.994761 0.0227358 0)
(0.998029 0.0234875 0)
(1.0011 0.0233297 0)
(1.00431 0.0225709 0)
(1.00676 0.0213472 0)
(1.0091 0.0197401 0)
(1.01042 0.0178893 0)
(1.01148 0.0160507 0)
(1.01147 0.0144797 0)
(1.01151 0.0133097 0)
(1.01092 0.0124886 0)
(1.01085 0.0118972 0)
(1.01037 0.0114083 0)
(1.01054 0.0109595 0)
(1.01023 0.0105176 0)
(1.01054 0.0101014 0)
(1.01026 0.00971198 0)
(1.0106 0.00936293 0)
(1.01029 0.00903847 0)
(1.01063 0.00874648 0)
(1.01029 0.00846909 0)
(1.01065 0.0082148 0)
(1.01029 0.00796864 0)
(1.01067 0.00774705 0)
(1.01029 0.0075382 0)
(1.0107 0.00735794 0)
(1.01028 0.00718842 0)
(1.01072 0.00704313 0)
(1.01028 0.00690313 0)
(1.01074 0.00678421 0)
(1.01025 0.00666443 0)
(1.01071 0.00655812 0)
(1.01014 0.00644182 0)
(1.01057 0.00633381 0)
(1.00991 0.00621221 0)
(1.01031 0.00609865 0)
(1.00954 0.00597066 0)
(1.00992 0.00585211 0)
(1.00906 0.00572042 0)
(1.00942 0.0056034 0)
(1.00847 0.00547694 0)
(1.00883 0.00536932 0)
(1.0078 0.00525467 0)
(1.00816 0.00516277 0)
(1.00704 0.0050642 0)
(1.00739 0.00499022 0)
(1.00616 0.00490795 0)
(1.00647 0.00484838 0)
(1.00506 0.00477455 0)
(1.00528 0.0047194 0)
(1.00362 0.00464296 0)
(1.00369 0.00458106 0)
(1.00177 0.00449269 0)
(1.0017 0.0044196 0)
(0.999548 0.0043219 0)
(0.999386 0.00424652 0)
(0.997027 0.00415016 0)
(0.996814 0.004082 0)
(0.994271 0.00399371 0)
(0.994016 0.0039379 0)
(0.991252 0.00386061 0)
(0.990893 0.00381455 0)
(0.987815 0.00374038 0)
(0.987277 0.00369483 0)
(0.983828 0.00361335 0)
(0.98311 0.00356068 0)
(0.97931 0.00347149 0)
(0.978478 0.00341759 0)
(0.974394 0.0033282 0)
(0.973522 0.00328035 0)
(0.969169 0.0031962 0)
(0.968242 0.0031581 0)
(0.963549 0.00307816 0)
(0.962506 0.00304326 0)
(0.957404 0.0029588 0)
(0.956241 0.00292296 0)
(0.95075 0.00283398 0)
(0.949551 0.00279978 0)
(0.943726 0.00271045 0)
(0.942549 0.00268387 0)
(0.93637 0.00259675 0)
(0.935193 0.00257639 0)
(0.928591 0.00248729 0)
(0.927412 0.00247012 0)
(0.920381 0.00237714 0)
(0.919272 0.00236435 0)
(0.911842 0.0022702 0)
(0.910857 0.00226491 0)
(0.902993 0.00217019 0)
(0.902135 0.00217144 0)
(0.893788 0.00207474 0)
(0.893101 0.00208126 0)
(0.884269 0.00198466 0)
(0.88381 0.00199652 0)
(0.874474 0.00190563 0)
(0.874252 0.00191827 0)
(0.864374 0.00184916 0)
(0.992283 0.0147482 0)
(0.99213 0.0175346 0)
(0.993382 0.0200386 0)
(0.995272 0.0217907 0)
(0.998271 0.0225721 0)
(1.00108 0.0224991 0)
(1.00419 0.0218295 0)
(1.0065 0.0207223 0)
(1.00882 0.0192801 0)
(1.0101 0.0176223 0)
(1.01126 0.0159493 0)
(1.01133 0.0144711 0)
(1.01155 0.0133273 0)
(1.01102 0.0124968 0)
(1.01108 0.0118943 0)
(1.01061 0.0114028 0)
(1.01086 0.0109612 0)
(1.01054 0.0105239 0)
(1.01093 0.0101078 0)
(1.01063 0.00971319 0)
(1.01106 0.00936146 0)
(1.01072 0.00903454 0)
(1.01115 0.00874324 0)
(1.01078 0.00846558 0)
(1.01122 0.00821325 0)
(1.01082 0.00796672 0)
(1.01128 0.00774616 0)
(1.01085 0.00753598 0)
(1.01134 0.00735605 0)
(1.01088 0.00718448 0)
(1.01142 0.00703944 0)
(1.01094 0.00689802 0)
(1.0115 0.00678048 0)
(1.01099 0.00666059 0)
(1.01159 0.00655735 0)
(1.01104 0.00644261 0)
(1.01165 0.00633905 0)
(1.01103 0.0062196 0)
(1.01165 0.00611045 0)
(1.01097 0.005984 0)
(1.0116 0.00586919 0)
(1.01085 0.00573826 0)
(1.0115 0.00562436 0)
(1.01069 0.00549812 0)
(1.01137 0.00539323 0)
(1.01049 0.00527826 0)
(1.0112 0.00518874 0)
(1.01027 0.00508974 0)
(1.01101 0.00501882 0)
(1.01002 0.00493772 0)
(1.01078 0.00488406 0)
(1.00969 0.00481491 0)
(1.01044 0.0047693 0)
(1.0092 0.00470013 0)
(1.0099 0.00464895 0)
(1.00848 0.00456728 0)
(1.00912 0.00450326 0)
(1.00754 0.00440987 0)
(1.00815 0.0043412 0)
(1.00642 0.00424674 0)
(1.00702 0.00418345 0)
(1.00516 0.004096 0)
(1.00578 0.00404584 0)
(1.00378 0.0039721 0)
(1.00437 0.00393597 0)
(1.00216 0.00386937 0)
(1.00266 0.00383659 0)
(1.00016 0.00376335 0)
(1.00054 0.00372233 0)
(0.997737 0.00363831 0)
(0.998023 0.00359208 0)
(0.99498 0.00350386 0)
(0.995245 0.00346161 0)
(0.99199 0.00337866 0)
(0.99224 0.0033485 0)
(0.988721 0.00327295 0)
(0.988889 0.00324903 0)
(0.985014 0.00316995 0)
(0.985049 0.00314392 0)
(0.980804 0.00305701 0)
(0.98076 0.00302896 0)
(0.976206 0.00293882 0)
(0.976156 0.00291784 0)
(0.971303 0.00283108 0)
(0.971229 0.00281854 0)
(0.965997 0.00273103 0)
(0.965846 0.00272127 0)
(0.9602 0.00262772 0)
(0.960016 0.00261969 0)
(0.954003 0.00252325 0)
(0.95385 0.00252249 0)
(0.947466 0.00242646 0)
(0.947329 0.0024329 0)
(0.940509 0.00233489 0)
(0.940382 0.00234479 0)
(0.933136 0.00224622 0)
(0.933068 0.00225984 0)
(0.925414 0.00216845 0)
(0.925402 0.0021824 0)
(0.917303 0.00211358 0)
(0.993227 0.0147112 0)
(0.992995 0.0171396 0)
(0.994106 0.0193196 0)
(0.995692 0.0208884 0)
(0.998441 0.0216593 0)
(1.00099 0.0216625 0)
(1.00398 0.0210926 0)
(1.00615 0.020102 0)
(1.00845 0.0188073 0)
(1.00967 0.0173156 0)
(1.01092 0.0157959 0)
(1.01104 0.0144142 0)
(1.0114 0.0133086 0)
(1.01093 0.0124775 0)
(1.0111 0.0118656 0)
(1.01063 0.0113691 0)
(1.01095 0.0109341 0)
(1.01061 0.0105048 0)
(1.01106 0.0100939 0)
(1.01076 0.00969772 0)
(1.01124 0.0093453 0)
(1.01089 0.00901738 0)
(1.01137 0.00872801 0)
(1.01098 0.00845105 0)
(1.01147 0.00820174 0)
(1.01104 0.00795618 0)
(1.01156 0.00773779 0)
(1.0111 0.00752723 0)
(1.01164 0.00734848 0)
(1.01114 0.00717553 0)
(1.01172 0.00703086 0)
(1.01121 0.00688783 0)
(1.01183 0.00677094 0)
(1.0113 0.00664984 0)
(1.01195 0.00654808 0)
(1.01139 0.00643321 0)
(1.01208 0.0063322 0)
(1.01148 0.00621327 0)
(1.01219 0.00610696 0)
(1.01154 0.00598096 0)
(1.01228 0.00586883 0)
(1.01157 0.00573801 0)
(1.01234 0.00562652 0)
(1.01158 0.00550009 0)
(1.01238 0.0053973 0)
(1.01156 0.00528158 0)
(1.01239 0.00519356 0)
(1.01153 0.00509325 0)
(1.01241 0.00502363 0)
(1.0115 0.00494159 0)
(1.01242 0.00489054 0)
(1.01146 0.00482244 0)
(1.01241 0.00478183 0)
(1.01136 0.00471584 0)
(1.01232 0.00467104 0)
(1.01116 0.00459284 0)
(1.01211 0.00453469 0)
(1.01084 0.00444361 0)
(1.0118 0.00437952 0)
(1.01042 0.00428588 0)
(1.0114 0.00422568 0)
(1.00994 0.00413777 0)
(1.01096 0.00409046 0)
(1.00941 0.00401758 0)
(1.01046 0.00398732 0)
(1.00878 0.00392522 0)
(1.00981 0.00390139 0)
(1.00795 0.00383441 0)
(1.00892 0.00380274 0)
(1.00684 0.00372376 0)
(1.00776 0.00368419 0)
(1.0055 0.00359759 0)
(1.00641 0.00355944 0)
(1.00401 0.00347725 0)
(1.00494 0.00345249 0)
(1.00236 0.00338069 0)
(1.00327 0.00336577 0)
(1.00044 0.0032932 0)
(1.00124 0.00327677 0)
(0.998111 0.00319462 0)
(0.998824 0.00317278 0)
(0.995451 0.00308404 0)
(0.996147 0.00306744 0)
(0.992563 0.00298267 0)
(0.993238 0.00297687 0)
(0.989376 0.0028942 0)
(0.989952 0.00289226 0)
(0.98575 0.00280277 0)
(0.986225 0.00279955 0)
(0.981728 0.00270472 0)
(0.98217 0.00270735 0)
(0.977403 0.0026141 0)
(0.977797 0.00262523 0)
(0.972692 0.00253162 0)
(0.972982 0.00254446 0)
(0.967539 0.00244959 0)
(0.967754 0.00246345 0)
(0.962021 0.00237685 0)
(0.962167 0.00239122 0)
(0.956104 0.00232829 0)
(0.994091 0.0147792 0)
(0.99378 0.016871 0)
(0.994759 0.0187393 0)
(0.996091 0.0201071 0)
(0.998607 0.0208318 0)
(1.00092 0.0208926 0)
(1.00377 0.0204197 0)
(1.00581 0.0195404 0)
(1.00806 0.0183759 0)
(1.00924 0.0170239 0)
(1.01053 0.0156377 0)
(1.0107 0.0143477 0)
(1.01117 0.013284 0)
(1.01077 0.0124566 0)
(1.01101 0.011836 0)
(1.01056 0.0113313 0)
(1.01092 0.0108992 0)
(1.01058 0.0104782 0)
(1.01106 0.0100753 0)
(1.01075 0.00967963 0)
(1.01126 0.00932592 0)
(1.01092 0.00899568 0)
(1.01143 0.00870682 0)
(1.01103 0.0084296 0)
(1.01155 0.00818247 0)
(1.01112 0.00793799 0)
(1.01165 0.00772198 0)
(1.01119 0.00751153 0)
(1.01174 0.00733415 0)
(1.01124 0.00716042 0)
(1.01183 0.00701618 0)
(1.01132 0.0068717 0)
(1.01194 0.00675514 0)