/*--------------------------------*- C++ -*----------------------------------*\
| =========                 |                                                 |
| \\      /  F ield         | OpenFOAM: The Open Source CFD Toolbox           |
|  \\    /   O peration     | Version:  5.x                                   |
|   \\  /    A nd           | Web:      www.OpenFOAM.org                      |
|    \\/     M anipulation  |                                                 |
\*---------------------------------------------------------------------------*/
FoamFile
{
    version     2.0;
    format      ascii;
    class       volScalarField;
    location    "0.8";
    object      p;
}
// * * * * * * * * * * * * * * * * * * * * * * * * * * * * * * * * * * * * * //

dimensions      [0 2 -2 0 0 0 0];

internalField   nonuniform List<scalar> 
10800
(
0.0450595
0.0399166
0.0331009
0.0272425
0.0220866
0.0169944
0.0118501
0.00725834
0.00420043
0.00309545
0.00349809
0.00457718
0.00571108
0.00660327
0.00718139
0.00749166
0.00761922
0.00764068
0.00760889
0.00755489
0.00749462
0.00743401
0.00737339
0.00731204
0.00725062
0.00719047
0.00713187
0.00707281
0.00701024
0.00694238
0.00686956
0.00679269
0.00671214
0.00662839
0.00654294
0.00645766
0.0063735
0.00629002
0.00620625
0.00612179
0.00603691
0.00595204
0.00586714
0.00578243
0.0056982
0.00561392
0.00552852
0.00544184
0.00535371
0.00526427
0.005174
0.00508369
0.00499323
0.00490249
0.00481118
0.00471974
0.00462861
0.00453833
0.00444835
0.0043582
0.00426697
0.00417487
0.00408174
0.00398783
0.00389275
0.00379666
0.003699
0.0036008
0.00350243
0.00340427
0.0033053
0.00320563
0.00310501
0.00300398
0.00290145
0.00279723
0.00269131
0.00258478
0.00247723
0.00236869
0.00225939
0.00214964
0.00203888
0.0019266
0.00181323
0.00169826
0.00158257
0.00146523
0.00134831
0.00122957
0.00111182
0.000991338
0.000872886
0.00075056
0.000632714
0.000509876
0.000395194
0.000273187
0.000165198
4.41051e-05
0.0415768
0.0384875
0.0326409
0.0269602
0.021881
0.0169564
0.0120277
0.00761383
0.00458747
0.00339811
0.00370472
0.00472142
0.005814
0.00667651
0.00723466
0.0075329
0.00765343
0.00767057
0.0076358
0.00757939
0.00751706
0.00745459
0.00739224
0.00732926
0.00726635
0.00720489
0.00714519
0.00708519
0.0070218
0.00695318
0.00687968
0.00680219
0.00672107
0.00663679
0.00655084
0.0064651
0.00638054
0.00629668
0.00621257
0.00612779
0.0060426
0.00595744
0.00587228
0.00578731
0.00570285
0.00561836
0.00553276
0.00544588
0.00535757
0.00526796
0.00517752
0.00508706
0.00499645
0.00490558
0.00481413
0.00472257
0.00463132
0.00454093
0.00445084
0.0043606
0.00426927
0.00417708
0.00408387
0.00398987
0.00389472
0.00379855
0.00370082
0.00360254
0.00350411
0.00340589
0.00330686
0.00320713
0.00310646
0.00300538
0.0029028
0.00279853
0.00269256
0.00258598
0.0024784
0.00236981
0.00226048
0.00215068
0.0020399
0.00192757
0.00181419
0.00169917
0.00158346
0.00146608
0.00134915
0.00123036
0.00111261
0.000992083
0.000873627
0.000751259
0.000633413
0.000510534
0.000395857
0.00027381
0.000165831
4.47143e-05
0.038982
0.0371839
0.0322728
0.0268018
0.0217642
0.0170054
0.0123794
0.0082525
0.00530569
0.00397429
0.00407147
0.00493723
0.00594244
0.00675363
0.00728433
0.00756992
0.00768545
0.00770069
0.00766478
0.00760709
0.00754314
0.00747882
0.00741455
0.00734963
0.00728484
0.00722158
0.00716023
0.00709879
0.00703416
0.00696447
0.00689004
0.00681174
0.00672991
0.00664499
0.00655846
0.0064722
0.00638718
0.00630291
0.00621843
0.00613331
0.00604781
0.00596237
0.00587694
0.00579172
0.00570704
0.00562234
0.00553654
0.00544947
0.00536099
0.00527121
0.00518062
0.00509001
0.00499927
0.00490827
0.00481671
0.00472502
0.00463366
0.00454317
0.004453
0.00436266
0.00427126
0.00417898
0.0040857
0.00399163
0.00389641
0.00380017
0.00370237
0.00360403
0.00350555
0.00340726
0.00330819
0.0032084
0.00310769
0.00300656
0.00290395
0.00279963
0.00269363
0.002587
0.00247939
0.00237076
0.0022614
0.00215156
0.00204076
0.00192839
0.00181499
0.00169993
0.00158421
0.0014668
0.00134985
0.00123103
0.00111327
0.000992706
0.000874246
0.000751841
0.000633994
0.000511078
0.000396403
0.000274321
0.000166338
4.51848e-05
0.0369658
0.0358672
0.0317864
0.0266377
0.0216937
0.0171052
0.0127838
0.00895468
0.00612195
0.00467846
0.00455364
0.00522917
0.00611984
0.0068705
0.00736874
0.00763622
0.00774124
0.00774991
0.00770937
0.00764786
0.00758038
0.00751273
0.00744543
0.00737777
0.0073104
0.00724463
0.00718086
0.00711724
0.00705077
0.00697957
0.00690386
0.00682444
0.00674163
0.00665584
0.00656853
0.00648152
0.00639579
0.00631087
0.00622581
0.00614019
0.00605426
0.00596843
0.00588264
0.00579708
0.00571209
0.0056271
0.00554103
0.00545372
0.00536501
0.00527501
0.00518422
0.00509342
0.0050025
0.00491132
0.00481961
0.00472779
0.0046363
0.00454569
0.0044554
0.00436496
0.00427346
0.00418108
0.00408771
0.00399355
0.00389825
0.00380193
0.00370406
0.00360564
0.00350709
0.00340874
0.00330962
0.00320977
0.00310901
0.00300783
0.00290518
0.0028008
0.00269476
0.00258808
0.00248043
0.00237176
0.00226236
0.00215249
0.00204166
0.00192925
0.00181583
0.00170073
0.00158499
0.00146753
0.00135057
0.00123171
0.00111394
0.000993345
0.000874877
0.000752434
0.00063458
0.000511627
0.000396945
0.000274835
0.000166814
4.5629e-05
0.0352495
0.0345221
0.0311447
0.0264191
0.0216491
0.0172376
0.0131858
0.00962328
0.0069118
0.00539163
0.00506871
0.00555185
0.00631911
0.00700599
0.00747209
0.00772134
0.00781445
0.00781468
0.00776781
0.00770117
0.00762914
0.00755731
0.00748625
0.00741525
0.00734477
0.00727588
0.00720896
0.0071424
0.00707341
0.00700015
0.00692269
0.00684173
0.00675757
0.00667063
0.0065823
0.0064943
0.00640756
0.00632169
0.00623579
0.00614944
0.00606288
0.0059765
0.0058902
0.00580416
0.00571872
0.00563333
0.00554689
0.00545924
0.00537022
0.00527994
0.00518887
0.0050978
0.00500662
0.0049152
0.00482328
0.00473126
0.0046396
0.00454882
0.00445838
0.00436779
0.00427616
0.00418366
0.00409017
0.00399589
0.00390048
0.00380405
0.00370608
0.00360757
0.00350894
0.0034105
0.00331131
0.00321138
0.00311056
0.00300931
0.0029066
0.00280216
0.00269606
0.00258933
0.00248164
0.00237291
0.00226347
0.00215355
0.00204269
0.00193023
0.00181678
0.00170164
0.00158587
0.00146837
0.00135138
0.00123248
0.00111469
0.000994056
0.000875569
0.000753087
0.000635213
0.000512226
0.000397517
0.000275388
0.000167274
4.60793e-05
0.0337335
0.0332009
0.030395
0.0261491
0.0216277
0.0174012
0.0135767
0.0102403
0.00764772
0.00608121
0.00559141
0.00589173
0.00653106
0.00714959
0.00758309
0.00781532
0.00789704
0.00788836
0.00783436
0.00776188
0.00768485
0.00760858
0.00753363
0.00745919
0.00738546
0.00731321
0.00724283
0.00717294
0.00710109
0.00702547
0.006946
0.00686324
0.00677752
0.00668928
0.00659979
0.00651065
0.00642271
0.00633565
0.00624866
0.00616139
0.00607403
0.00598691
0.00589993
0.00581326
0.00572723
0.0056413
0.00555437
0.00546629
0.00537689
0.00528627
0.00519487
0.00510345
0.00501192
0.00492018
0.00482797
0.0047357
0.0046438
0.00455279
0.00446213
0.00437135
0.00427955
0.00418689
0.00409325
0.00399882
0.00390325
0.00380668
0.00370858
0.00360995
0.0035112
0.00341266
0.00331336
0.00321335
0.00311244
0.00301111
0.00290832
0.0028038
0.00269763
0.00259082
0.00248307
0.00237427
0.00226478
0.0021548
0.00204389
0.00193138
0.00181788
0.00170269
0.00158688
0.00146933
0.00135231
0.00123336
0.00111554
0.000994864
0.000876346
0.000753822
0.000635912
0.00051289
0.000398128
0.000275996
0.000167712
4.65445e-05
0.0323684
0.031943
0.029593
0.0258323
0.0216158
0.0175873
0.0139555
0.0108069
0.00832669
0.00674001
0.00611538
0.00624758
0.00675684
0.00730122
0.00769984
0.00791565
0.0079868
0.00796904
0.00790705
0.00782782
0.00774513
0.00766405
0.00758501
0.00750699
0.00742988
0.00735412
0.00728009
0.00720671
0.00713187
0.00705379
0.00697221
0.00688757
0.00680023
0.00671065
0.00662
0.00652967
0.00644049
0.00635216
0.00626399
0.0061757
0.00608743
0.00599948
0.00591171
0.00582428
0.00573753
0.00565094
0.00556342
0.00547483
0.00538499
0.005294
0.00520223
0.00511043
0.00501849
0.00492637
0.00483382
0.00474125
0.00464905
0.00455774
0.00446678
0.00437575
0.00428374
0.00419089
0.00409706
0.00400245
0.0039067
0.00380995
0.00371169
0.00361291
0.00351401
0.00341532
0.00331589
0.00321577
0.00311475
0.00301331
0.00291042
0.00280581
0.00269954
0.00259264
0.0024848
0.00237592
0.00226636
0.00215631
0.00204534
0.00193276
0.0018192
0.00170394
0.00158808
0.00147047
0.0013534
0.0012344
0.00111653
0.000995804
0.000877239
0.000754667
0.000636699
0.000513644
0.000398792
0.000276677
0.000168122
4.7047e-05
0.0311197
0.0307643
0.0287794
0.0254757
0.0215966
0.0177823
0.014322
0.0113309
0.00895401
0.00736618
0.00663615
0.00661786
0.00699786
0.00746238
0.00782228
0.00802127
0.00808269
0.00805601
0.0079853
0.00789834
0.00780915
0.00772268
0.00763921
0.00755742
0.00747675
0.00739733
0.00731955
0.00724259
0.00716467
0.00708405
0.0070003
0.0069137
0.0068247
0.00673375
0.00664192
0.00655041
0.00645998
0.00637037
0.00628102
0.00619169
0.0061025
0.00601366
0.00592504
0.0058368
0.00574926
0.00566193
0.00557377
0.0054846
0.00539428
0.00530289
0.00521076
0.00511856
0.0050262
0.00493367
0.00484076
0.00474786
0.00465532
0.00456365
0.00447234
0.004381
0.00428873
0.00419566
0.00410162
0.00400681
0.00391086
0.0038139
0.00371547
0.00361652
0.00351742
0.00341854
0.00331895
0.00321869
0.00311755
0.00301598
0.00291297
0.00280825
0.00270187
0.00259485
0.0024869
0.00237792
0.00226827
0.00215813
0.00204708
0.00193442
0.00182079
0.00170545
0.00158952
0.00147183
0.0013547
0.00123563
0.00111771
0.000996916
0.000878286
0.000755659
0.000637607
0.000514519
0.00039953
0.000277456
0.000168515
4.76181e-05
0.0299671
0.0296709
0.0279819
0.0250901
0.021558
0.0179727
0.0146753
0.0118201
0.00953563
0.00795833
0.00714777
0.00699806
0.0072534
0.00763386
0.00795045
0.0081311
0.00818345
0.00814848
0.00806875
0.00797318
0.00787663
0.00778409
0.00769576
0.00760996
0.0075256
0.0074424
0.00736077
0.00728014
0.00719907
0.00711584
0.00702983
0.0069412
0.00685045
0.00675808
0.00666502
0.00657232
0.00648063
0.00638974
0.00629921
0.00620882
0.00611869
0.00602895
0.00593946
0.00585036
0.005762
0.0056739
0.00558504
0.00549526
0.00540443
0.00531262
0.00522011
0.00512752
0.00503476
0.00494183
0.00484857
0.00475534
0.00466245
0.00457039
0.0044787
0.004387
0.00429444
0.00420111
0.00410683
0.00401181
0.00391564
0.00381848
0.00371987
0.00362074
0.00352144
0.00342234
0.00332256
0.00322213
0.00312085
0.00301912
0.00291597
0.00281112
0.00270464
0.00259748
0.0024894
0.0023803
0.00227055
0.00216029
0.00204915
0.0019364
0.00182268
0.00170724
0.00159123
0.00147345
0.00135625
0.00123709
0.0011191
0.000998232
0.000879519
0.000756828
0.000638663
0.000515543
0.000400363
0.000278355
0.000168906
4.82846e-05
0.0288967
0.0286592
0.0272165
0.0246879
0.0214948
0.0181483
0.0150127
0.0122795
0.0100767
0.00851603
0.00764493
0.00738282
0.00752157
0.00781619
0.00808493
0.00824464
0.00828804
0.00824576
0.00815722
0.00805243
0.00794765
0.00784832
0.00775462
0.00766453
0.00757635
0.00748927
0.00740366
0.00731928
0.00723496
0.00714901
0.00706065
0.0069699
0.00687733
0.00678346
0.00668913
0.00659519
0.00650222
0.00641002
0.00631827
0.00622681
0.00613573
0.00604506
0.00595466
0.00586468
0.00577548
0.00568658
0.00559701
0.00550658
0.00541522
0.00532296
0.00523007
0.00513708
0.00504392
0.0049506
0.004857
0.00476346
0.00467022
0.00457776
0.00448567
0.00439359
0.00430072
0.00420709
0.00411255
0.0040173
0.00392093
0.00382355
0.00372478
0.00362547
0.00352597
0.00342663
0.00332665
0.00322603
0.00312458
0.00302267
0.00291937
0.0028144
0.00270781
0.0026005
0.0024923
0.00238305
0.00227318
0.00216278
0.00205155
0.00193868
0.00182489
0.00170933
0.00159324
0.00147534
0.00135805
0.00123879
0.00112072
0.000999764
0.000880955
0.00075819
0.000639885
0.000516731
0.000401306
0.000279388
0.000169317
4.90566e-05
0.0278961
0.0277221
0.0264923
0.0242811
0.0214063
0.0183014
0.0153297
0.012711
0.0105817
0.00904041
0.00812421
0.00776746
0.00779989
0.00800955
0.00822669
0.00836215
0.00839588
0.00834724
0.00825054
0.00813618
0.00802236
0.00791549
0.00781586
0.00772114
0.00762899
0.00753795
0.00744826
0.00736001
0.00727236
0.0071836
0.00709278
0.00699981
0.00690534
0.00680989
0.00671421
0.00661897
0.00652467
0.00643113
0.00633814
0.00624557
0.0061535
0.00606187
0.00597054
0.00587965
0.00578958
0.00569986
0.00560955
0.00551845
0.00542652
0.00533379
0.00524051
0.00514711
0.00505354
0.00495983
0.00486591
0.00477204
0.00467846
0.0045856
0.0044931
0.00440063
0.00430744
0.00421348
0.00411867
0.00402318
0.00392659
0.00382899
0.00373007
0.0036306
0.00353091
0.00343133
0.00333114
0.0032303
0.00312868
0.00302656
0.00292311
0.00281799
0.00271131
0.00260386
0.00249553
0.00238613
0.00227614
0.00216557
0.00205423
0.00194123
0.00182736
0.00171168
0.00159551
0.00147748
0.00136011
0.00124072
0.00112256
0.0010015
0.000882591
0.000759744
0.000641274
0.000518088
0.000402362
0.000280552
0.000169765
4.99222e-05
0.0269604
0.026857
0.0258168
0.023881
0.0212958
0.0184272
0.0156209
0.0131138
0.0110533
0.00953305
0.00858341
0.00814782
0.00808513
0.00821317
0.0083764
0.00848406
0.00850643
0.0084519
0.00834795
0.0082241
0.00810061
0.0079855
0.00787939
0.00777969
0.0076834
0.00758834
0.0074945
0.00740229
0.00731123
0.00721958
0.00712619
0.00703092
0.00693445
0.00683734
0.00674023
0.00664363
0.00654795
0.00645304
0.00635875
0.00626504
0.00617195
0.00607934
0.00598704
0.00589521
0.00580425
0.00571369
0.00562262
0.00553081
0.00543829
0.00534508
0.00525137
0.00515755
0.00506357
0.00496946
0.0048752
0.00478102
0.00468709
0.00459382
0.00450092
0.00440804
0.00431451
0.00422022
0.00412512
0.00402936
0.00393256
0.00383473
0.00373567
0.00363603
0.00353616
0.00343634
0.00333594
0.00323488
0.00313307
0.00303072
0.00292712
0.00282185
0.00271508
0.00260747
0.00249904
0.00238948
0.00227938
0.00216862
0.00205717
0.00194401
0.00183007
0.00171425
0.00159802
0.00147985
0.00136239
0.00124286
0.0011246
0.00100343
0.000884403
0.000761473
0.000642817
0.000519602
0.000403526
0.000281833
0.00017026
5.08495e-05
0.026097
0.0260698
0.0251991
0.0235004
0.0211712
0.0185256
0.0158837
0.0134882
0.011495
0.00999715
0.00902265
0.0085217
0.00837491
0.00842619
0.00853468
0.00861116
0.00861962
0.00855893
0.00844873
0.00831599
0.00818252
0.00805852
0.00794539
0.00784028
0.00773956
0.00764038
0.00754232
0.00744607
0.0073515
0.00725689
0.00716085
0.00706317
0.00696461
0.00686576
0.00676716
0.00666914
0.00657204
0.00647571
0.00638009
0.00628521
0.00619107
0.00609744
0.00600413
0.00591134
0.00581946
0.00572804
0.00563618
0.00554366
0.00545052
0.00535679
0.00526265
0.00516839
0.00507398
0.00497946
0.00488486
0.00479034
0.00469606
0.00460237
0.00450906
0.00441577
0.00432189
0.00422725
0.00413185
0.00403582
0.00393879
0.00384073
0.00374153
0.00364172
0.00354167
0.0034416
0.003341
0.00323971
0.00313771
0.00303512
0.00293135
0.00282591
0.00271905
0.00261129
0.00250276
0.00239304
0.00228283
0.00217187
0.00206031
0.00194698
0.00183297
0.00171701
0.00160071
0.0014824
0.00136485
0.00124517
0.00112681
0.00100551
0.000886361
0.00076335
0.000644491
0.000521254
0.000404783
0.000283209
0.000170807
5.17978e-05
0.0253123
0.0253645
0.0246451
0.0231479
0.0210398
0.0185982
0.0161167
0.0138338
0.0119092
0.0104365
0.00944406
0.00888871
0.00866817
0.00864815
0.0087023
0.00874498
0.00873654
0.00866867
0.00855309
0.00841244
0.008269
0.00813543
0.00801457
0.00790349
0.00779792
0.00769438
0.00759203
0.00749164
0.00739346
0.00729579
0.00719698
0.00709676
0.006996
0.00689532
0.00679512
0.00669562
0.00659703
0.00649923
0.00640224
0.00630614
0.0062109
0.00611621
0.00602185
0.00592806
0.00583524
0.00574294
0.00565026
0.005557
0.00546322
0.00536896
0.00527435
0.00517963
0.00508478
0.00498983
0.00489487
0.00480001
0.00470536
0.00461125
0.00451751
0.0044238
0.00432957
0.00423457
0.00413885
0.00404254
0.00394528
0.00384697
0.00374761
0.00364763
0.0035474
0.00344709
0.00334629
0.00324475
0.00314256
0.00303971
0.00293578
0.00283016
0.00272322
0.00261528
0.00250667
0.00239678
0.00228647
0.00217531
0.00206363
0.00195011
0.00183602
0.00171991
0.00160355
0.0014851
0.00136747
0.00124763
0.00112915
0.00100772
0.000888435
0.000765352
0.000646266
0.000523022
0.000406117
0.000284656
0.000171403
5.273e-05
0.0245836
0.0247312
0.0241503
0.0228225
0.0209
0.0186405
0.0163131
0.0141441
0.0122914
0.0108481
0.00984478
0.00924507
0.00896027
0.00887503
0.00887695
0.00888479
0.00885694
0.00878029
0.00865978
0.00851247
0.00835947
0.0082158
0.00808651
0.00796901
0.00785826
0.00775013
0.00764342
0.00753891
0.00743703
0.00733621
0.00723456
0.00713169
0.00702861
0.00692601
0.00682414
0.00672308
0.00662295
0.00652363
0.0064252
0.00632783
0.00623146
0.00613566
0.00604022
0.0059454
0.00585161
0.00575839
0.00566489
0.00557085
0.00547641
0.00538158
0.00528649
0.00519129
0.00509597
0.00500059
0.00490524
0.00481002
0.004715
0.00462045
0.00452627
0.00443214
0.00433754
0.00424217
0.00414612
0.00404952
0.00395202
0.00385345
0.00375393
0.00365376
0.00355335
0.00345279
0.00335178
0.00325
0.00314761
0.0030445
0.00294039
0.00283458
0.00272755
0.00261945
0.00251073
0.00240068
0.00229026
0.00217889
0.00206709
0.00195339
0.0018392
0.00172294
0.00160652
0.00148793
0.00137021
0.00125022
0.00113161
0.00101005
0.000890603
0.00076746
0.000648124
0.000524885
0.000407515
0.000286155
0.000172046
5.36202e-05
0.0239244
0.0241835
0.0237238
0.022531
0.0207576
0.0186547
0.0164717
0.014416
0.0126386
0.0112298
0.0102226
0.00958768
0.00924783
0.00910364
0.00905644
0.00902969
0.00898048
0.00889293
0.0087671
0.00861428
0.00845267
0.0082988
0.00816053
0.00803625
0.00792009
0.00780714
0.00769598
0.00758739
0.00748182
0.00737779
0.00727325
0.00716768
0.0070622
0.00695761
0.00685402
0.00675134
0.00664964
0.00654876
0.00644886
0.0063502
0.00625266
0.00615574
0.00605918
0.0059633
0.00586852
0.00577438
0.00568002
0.00558519
0.00549005
0.00539464
0.00529906
0.00520336
0.00510756
0.00501171
0.00491598
0.00482039
0.00472497
0.00462997
0.00453535
0.00444078
0.00434581
0.00425005
0.00415367
0.00405677
0.00395901
0.00386018
0.00376049
0.00366013
0.00355952
0.0034587
0.00335747
0.00325544
0.00315285
0.00304948
0.00294518
0.00283918
0.00273205
0.00262377
0.00251495
0.00240474
0.0022942
0.00218262
0.00207069
0.0019568
0.00184252
0.0017261
0.00160961
0.00149089
0.00137305
0.00125292
0.00113416
0.00101248
0.000892852
0.000769662
0.000650048
0.000526829
0.000408966
0.00028769
0.000172732
5.44551e-05
0.0233805
0.0237545
0.0233866
0.0222924
0.0206332
0.0186603
0.0166071
0.0146599
0.0129582
0.0115884
0.0105833
0.00992074
0.00953367
0.00933628
0.0092428
0.009182
0.00910995
0.00900891
0.00887636
0.00871865
0.00854962
0.00838576
0.0082379
0.00810629
0.00798441
0.0078663
0.00775038
0.00763761
0.00752835
0.007421
0.00731344
0.0072051
0.0070971
0.00699039
0.00688498
0.00678063
0.00667727
0.00657479
0.00647337
0.00637336
0.00627462
0.00617653
0.00607881
0.00598183
0.00588603
0.00579094
0.0056957
0.00560006
0.0055042
0.00540818
0.00531207
0.00521587
0.00511956
0.00502324
0.0049271
0.00483111
0.00473528
0.00463982
0.00454475
0.00444974
0.00435438
0.00425822
0.00416149
0.00406429
0.00396627
0.00386716
0.00376728
0.00366672
0.00356592
0.00346483
0.00336338
0.00326109
0.00315829
0.00305464
0.00295015
0.00284396
0.00273671
0.00262826
0.00251933
0.00240895
0.00229829
0.0021865
0.00207442
0.00196035
0.00184595
0.00172939
0.0016128
0.00149396
0.001376
0.00125573
0.0011368
0.00101502
0.000895178
0.000771953
0.000652035
0.000528843
0.000410466
0.000289251
0.000173462
5.52307e-05
0.022918
0.0234203
0.0231268
0.0221027
0.0205282
0.0186592
0.0167199
0.0148746
0.0132482
0.0119212
0.010925
0.0102427
0.00981652
0.00957176
0.0094347
0.00934068
0.00924517
0.00912868
0.0089877
0.00882522
0.00865003
0.00847682
0.00831888
0.00817925
0.00805131
0.00792779
0.00780677
0.00768962
0.00757666
0.00746595
0.00735525
0.00724404
0.00713343
0.00702446
0.00691714
0.00681102
0.00670595
0.0066018
0.0064988
0.00639739
0.00629739
0.00619808
0.00609915
0.00600104
0.00590419
0.00580812
0.00571198
0.00561549
0.00551888
0.00542222
0.00532557
0.00522883
0.00513199
0.00503518
0.00493861
0.00484221
0.00474596
0.00465002
0.00455449
0.00445902
0.00436326
0.0042667
0.00416961
0.00407209
0.00397379
0.0038744
0.00377432
0.00367355
0.00357254
0.00347118
0.0033695
0.00326695
0.00316392
0.00306001
0.00295531
0.00284892
0.00274155
0.00263293
0.00252387
0.00241332
0.00230252
0.00219053
0.0020783
0.00196404
0.00184951
0.00173281
0.00161611
0.00149715
0.00137905
0.00125866
0.00113953
0.00101765
0.000897577
0.000774331
0.000654082
0.000530919
0.000412015
0.000290829
0.000174237
5.59485e-05
0.0224738
0.0231148
0.0229012
0.02194
0.0204348
0.0186491
0.0168066
0.0150555
0.0135034
0.0122231
0.011243
0.0105491
0.0100918
0.00980571
0.00962803
0.00950227
0.00938402
0.0092512
0.00910004
0.00893218
0.0087519
0.00857048
0.00840247
0.00825419
0.00811992
0.00799094
0.00786459
0.00774281
0.00762617
0.00751218
0.0073983
0.00728413
0.00717089
0.00705959
0.00695024
0.00684232
0.00673548
0.0066296
0.006525
0.00642215
0.00632087
0.0062203
0.00612014
0.00602086
0.00592295
0.00582587
0.0057288
0.00563146
0.00553407
0.00543675
0.00533953
0.00524223
0.00514485
0.00504753
0.00495051
0.00485368
0.004757
0.00466056
0.00456456
0.00446863
0.00437246
0.00427548
0.00417803
0.00408017
0.0039816
0.0038819
0.00378162
0.00368063
0.00357939
0.00347776
0.00337583
0.00327302
0.00316977
0.00306558
0.00296066
0.00285407
0.00274657
0.00263776
0.00252857
0.00241785
0.0023069
0.00219471
0.00208231
0.00196788
0.0018532
0.00173636
0.00161954
0.00150046
0.00138221
0.00126169
0.00114236
0.00102039
0.000900053
0.000776792
0.000656191
0.000533054
0.000413616
0.000292419
0.000175055
5.66126e-05
0.0220336
0.0228187
0.0226954
0.0217988
0.0203551
0.0186365
0.0168738
0.0152072
0.0137268
0.0124952
0.011537
0.0108391
0.0103585
0.0100374
0.00982267
0.0096667
0.00952662
0.0093772
0.00921414
0.00903961
0.00885478
0.0086665
0.00848886
0.00833138
0.00819033
0.00805592
0.00792416
0.00779742
0.00767695
0.00755981
0.00744275
0.00732549
0.00720954
0.00709585
0.00698438
0.00687457
0.00676594
0.00665828
0.00655201
0.00644769
0.00634509
0.00624324
0.0061418
0.00604133
0.00594231
0.00584421
0.0057462
0.00564797
0.00554978
0.00545177
0.00535397
0.0052561
0.00515815
0.00506029
0.00496282
0.00486555
0.00476841
0.00467147
0.00457498
0.00447859
0.00438199
0.00428458
0.00418675
0.00408855
0.00398968
0.00388969
0.00378917
0.00368796
0.00358649
0.00348458
0.0033824
0.00327931
0.00317582
0.00307135
0.00296621
0.00285942
0.00275177
0.00264278
0.00253343
0.00242255
0.00231144
0.00219905
0.00208646
0.00197186
0.00185702
0.00174005
0.00162308
0.0015039
0.00138546
0.00126484
0.00114527
0.00102323
0.000902608
0.000779336
0.000658368
0.000535243
0.000415271
0.000294018
0.000175917
5.72287e-05
0.0216009
0.0225305
0.0225056
0.0216775
0.0202912
0.0186283
0.0169297
0.0153364
0.0139228
0.0127395
0.0118072
0.0111121
0.0106156
0.0102663
0.0100188
0.00983406
0.00967287
0.00950707
0.00933088
0.00914808
0.00895859
0.00876471
0.00857829
0.00841129
0.00826288
0.00812298
0.00798587
0.00785385
0.00772921
0.0076089
0.00748876
0.00736829
0.00724949
0.00713337
0.00701969
0.00690789
0.00679742
0.00668793
0.00657993
0.00647409
0.00637013
0.00626695
0.00616419
0.00606249
0.00596235
0.00586319
0.00576421
0.00566507
0.00556606
0.00546733
0.00536892
0.00527045
0.00517191
0.0050735
0.00497555
0.00487781
0.00478021
0.00468275
0.00458576
0.00448889
0.00439186
0.00429401
0.00419579
0.00409724
0.00399806
0.00389776
0.003797
0.00369554
0.00359384
0.00349164
0.00338919
0.00328583
0.00318209
0.00307735
0.00297197
0.00286496
0.00275715
0.00264798
0.00253847
0.00242742
0.00231614
0.00220355
0.00209076
0.00197599
0.00186097
0.00174388
0.00162674
0.00150747
0.00138882
0.00126811
0.00114828
0.00102617
0.000905247
0.000781961
0.000660614
0.000537483
0.000416984
0.000295624
0.00017682
5.7803e-05
0.0211818
0.0222529
0.0223296
0.0215725
0.0202416
0.018627
0.0169798
0.0154475
0.0140942
0.0129574
0.0120532
0.0113669
0.0108616
0.0104911
0.0102155
0.0100038
0.0098221
0.00964049
0.0094506
0.00925793
0.0090631
0.00886449
0.00867041
0.00849392
0.00833752
0.00819191
0.0080496
0.00791213
0.00778285
0.00765924
0.00753617
0.00741251
0.00729071
0.00717209
0.00705618
0.00694228
0.00682989
0.00671854
0.00660875
0.00650133
0.00639598
0.00629142
0.00618732
0.00608434
0.00598305
0.00588281
0.00578284
0.00568275
0.00558289
0.00548342
0.00538438
0.00528529
0.00518614
0.00508716
0.00498871
0.00489049
0.0047924
0.00469441
0.00459691
0.00449956
0.00440208
0.00430377
0.00420515
0.00410625
0.00400675
0.00390612
0.0038051
0.0037034
0.00360144
0.00349895
0.00339623
0.00329259
0.00318859
0.00308356
0.00297794
0.00287072
0.00276273
0.00265338
0.00254369
0.00243247
0.002321
0.00220821
0.00209522
0.00198028
0.00186507
0.00174785
0.00163052
0.00151116
0.0013923
0.00127149
0.00115139
0.00102921
0.000907975
0.000784666
0.000662937
0.000539771
0.000418758
0.000297236
0.000177762
5.83418e-05
0.0207792
0.0219872
0.0221651
0.0214796
0.0202032
0.0186328
0.0170272
0.0155435
0.0142427
0.0131501
0.0122754
0.0116023
0.0110949
0.0107099
0.0104113
0.0101749
0.0099735
0.00977677
0.00957314
0.0093693
0.009168
0.00896502
0.00876444
0.00857893
0.00841407
0.00826236
0.00811503
0.00797217
0.00783789
0.00771069
0.00758484
0.00745814
0.00733319
0.00721194
0.00709379
0.00697771
0.00686329
0.00675006
0.00663845
0.00652938
0.00642259
0.00631664
0.00621115
0.00610688
0.00600439
0.00590306
0.00580208
0.00570103
0.00560028
0.00550005
0.00540036
0.00530062
0.00520085
0.00510127
0.0050023
0.00490359
0.00480499
0.00470645
0.00460843
0.0045106
0.00441265
0.00431387
0.00421485
0.00411557
0.00401574
0.00391478
0.00381349
0.00371153
0.00360931
0.00350652
0.00340351
0.00329959
0.00319532
0.00309001
0.00298412
0.00287669
0.00276851
0.00265897
0.00254909
0.0024377
0.00232603
0.00221305
0.00209983
0.00198472
0.00186931
0.00175196
0.00163444
0.00151499
0.00139589
0.00127499
0.0011546
0.00103235
0.000910795
0.000787449
0.000665338
0.000542106
0.000420593
0.000298857
0.000178741
5.88514e-05
0.0203937
0.0217335
0.0220105
0.021396
0.0201732
0.0186447
0.0170736
0.0156276
0.0143709
0.0133194
0.0124745
0.011818
0.0113139
0.0109207
0.0106045
0.0103464
0.0101262
0.00991509
0.00969813
0.00948225
0.00927324
0.00906581
0.00885974
0.008666
0.00849251
0.00833424
0.00818194
0.008034
0.00789452
0.00776331
0.00763463
0.00750508
0.00737694
0.00725286
0.00713243
0.00701419
0.00689762
0.00678245
0.00666902
0.00655826
0.00644999
0.00634262
0.00623572
0.0061301
0.0060264
0.00592395
0.00582194
0.0057199
0.00561824
0.00551722
0.00541685
0.00531646
0.00521603
0.00511585
0.00501634
0.00491711
0.004818
0.00471889
0.00462034
0.00452201
0.00442358
0.00432433
0.00422489
0.00412523
0.00402504
0.00392376
0.00382217
0.00371995
0.00361745
0.00351435
0.00341104
0.00330684
0.00320228
0.00309669
0.00299053
0.00288288
0.0027745
0.00266477
0.00255467
0.00244312
0.00233123
0.00221806
0.0021046
0.00198934
0.00187369
0.00175623
0.00163849
0.00151895
0.0013996
0.00127861
0.00115793
0.00103559
0.000913714
0.000790309
0.000667822
0.000544487
0.000422492
0.000300487
0.000179751
5.93376e-05
0.0200251
0.021492
0.0218652
0.02132
0.0201492
0.0186605
0.0171192
0.0157022
0.0144813
0.0134669
0.0126518
0.0120139
0.0115173
0.0111214
0.0107933
0.0105171
0.0102794
0.0100548
0.00982526
0.009597
0.00937909
0.00916674
0.00895585
0.00875476
0.00857279
0.00840756
0.0082502
0.00809748
0.00795284
0.00781716
0.00768539
0.00755317
0.00742195
0.00729487
0.00717207
0.00705173
0.00693299
0.00681575
0.00670049
0.00658799
0.00647817
0.00636938
0.00626102
0.00615403
0.00604909
0.0059455
0.00584243
0.00573938
0.00563678
0.00553496
0.00543389
0.00533282
0.00523171
0.00513089
0.00503083
0.00493108
0.00483142
0.00473174
0.00463264
0.00453382
0.00443488
0.00433515
0.00423528
0.00413523
0.00403467
0.00393305
0.00383116
0.00372865
0.00362587
0.00352246
0.00341883
0.00331434
0.00320949
0.00310361
0.00299716
0.0028893
0.0027807
0.00267078
0.00256046
0.00244874
0.00233661
0.00222325
0.00210955
0.00199412
0.00187824
0.00176065
0.00164269
0.00152304
0.00140344
0.00128234
0.00116137
0.00103893
0.000916736
0.000793246
0.000670392
0.000546913
0.000424453
0.00030213
0.00018079
5.98055e-05
0.0196734
0.0212626
0.0217291
0.0212506
0.0201289
0.0186777
0.0171634
0.0157692
0.0145763
0.0135944
0.0128082
0.0121903
0.0117043
0.0113103
0.0109758
0.0106858
0.0104325
0.0101953
0.00995428
0.00971367
0.00948578
0.00926771
0.00905228
0.00884467
0.00865467
0.00848227
0.00831962
0.00816233
0.00801274
0.00787231
0.00773708
0.00760228
0.00746825
0.00733808
0.0072127
0.00709029
0.00696941
0.00685
0.00673281
0.00661857
0.00650714
0.00639688
0.00628707
0.00617865
0.00607244
0.00596771
0.00586355
0.00575947
0.00565591
0.00555326
0.00545147
0.0053497
0.00524789
0.00514642
0.00504578
0.00494549
0.00484527
0.004745
0.00464535
0.00454602
0.00444657
0.00434634
0.00424603
0.00414557
0.00404464
0.00394267
0.00384045
0.00373765
0.00363457
0.00353085
0.00342689
0.00332211
0.00321696
0.00311079
0.00300404
0.00289596
0.00278712
0.002677
0.00256645
0.00245455
0.00234219
0.00222863
0.00211466
0.00199907
0.00188294
0.00176523
0.00164703
0.00152728
0.00140742
0.0012862
0.00116493
0.00104238
0.000919863
0.00079626
0.000673049
0.000549386
0.000426475
0.000303787
0.000181854
6.02596e-05
0.0193386
0.0210455
0.0216017
0.0211867
0.0201104
0.0186941
0.0172049
0.0158297
0.0146585
0.013704
0.0129451
0.0123483
0.011875
0.0114866
0.0111506
0.0108513
0.0105847
0.010336
0.0100846
0.009832
0.0095932
0.00936851
0.00914865
0.00893526
0.00873784
0.00855828
0.00839006
0.0082283
0.0080741
0.00792889
0.00778978
0.00765231
0.00751573
0.00738254
0.0072543
0.00712969
0.0070068
0.0068852
0.00676595
0.00664996
0.0065369
0.00642511
0.00631386
0.00620399
0.00609647
0.00599059
0.00588533
0.00578018
0.00567564
0.00557213
0.00546959
0.00536711
0.00526458
0.00516244
0.0050612
0.00496035
0.00485956
0.00475868
0.00465846
0.00455862
0.00445864
0.00435791
0.00425715
0.00415627
0.00405494
0.00395263
0.00385005
0.00374696
0.00364357
0.00353953
0.00343522
0.00333015
0.00322468
0.00311822
0.00301116
0.00290285
0.00279377
0.00268345
0.00257264
0.00246057
0.00234795
0.00223419
0.00211996
0.0020042
0.00188781