/*--------------------------------*- C++ -*----------------------------------*\
| =========                 |                                                 |
| \\      /  F ield         | OpenFOAM: The Open Source CFD Toolbox           |
|  \\    /   O peration     | Version:  5.x                                   |
|   \\  /    A nd           | Web:      www.OpenFOAM.org                      |
|    \\/     M anipulation  |                                                 |
\*---------------------------------------------------------------------------*/
FoamFile
{
    version     2.0;
    format      ascii;
    class       surfaceScalarField;
    location    "0.8";
    object      phi;
}
// * * * * * * * * * * * * * * * * * * * * * * * * * * * * * * * * * * * * * //

dimensions      [0 3 -1 0 0 0 0];

internalField   nonuniform List<scalar> 
21390
(
7.41122e-08
6.72686e-09
-8.0839e-08
6.57348e-08
8.37736e-09
5.7504e-08
8.2308e-09
4.95021e-08
8.00195e-09
4.1742e-08
7.7601e-09
3.45436e-08
7.19839e-09
2.84033e-08
6.14026e-09
2.37236e-08
4.67974e-09
2.05647e-08
3.15888e-09
1.85845e-08
1.98018e-09
1.73283e-08
1.25623e-09
1.64784e-08
8.49919e-10
1.58498e-08
6.2854e-10
1.533e-08
5.19835e-10
1.48546e-08
4.75428e-10
1.4397e-08
4.57534e-10
1.39517e-08
4.45342e-10
1.35212e-08
4.30514e-10
1.31098e-08
4.11367e-10
1.27207e-08
3.89067e-10
1.23553e-08
3.65408e-10
1.20133e-08
3.42038e-10
1.16933e-08
3.19948e-10
1.13939e-08
2.99402e-10
1.11136e-08
2.80372e-10
1.08507e-08
2.62895e-10
1.06035e-08
2.47209e-10
1.03699e-08
2.33517e-10
1.01482e-08
2.21733e-10
9.93689e-09
2.11319e-10
9.73504e-09
2.01855e-10
9.5419e-09
1.93135e-10
9.35669e-09
1.85215e-10
9.17885e-09
1.77843e-10
9.00798e-09
1.70863e-10
8.84389e-09
1.6409e-10
8.68613e-09
1.57767e-10
8.5342e-09
1.51927e-10
8.38751e-09
1.46685e-10
8.24577e-09
1.41748e-10
8.10863e-09
1.37132e-10
7.97601e-09
1.32622e-10
7.84756e-09
1.28452e-10
7.72323e-09
1.24326e-10
7.60276e-09
1.2047e-10
7.48598e-09
1.16786e-10
7.37245e-09
1.13532e-10
7.26214e-09
1.1031e-10
7.15469e-09
1.07446e-10
7.05014e-09
1.04551e-10
6.94825e-09
1.01887e-10
6.84917e-09
9.90814e-11
6.75254e-09
9.66308e-11
6.65841e-09
9.41262e-11
6.56641e-09
9.19997e-11
6.47673e-09
8.96835e-11
6.38911e-09
8.76227e-11
6.3038e-09
8.53086e-11
6.22039e-09
8.34119e-11
6.13904e-09
8.13461e-11
6.05928e-09
7.97654e-11
5.98141e-09
7.78641e-11
5.90503e-09
7.63792e-11
5.83047e-09
7.45624e-11
5.75725e-09
7.32193e-11
5.68572e-09
7.15284e-11
5.61531e-09
7.04092e-11
5.54656e-09
6.87503e-11
5.47899e-09
6.75724e-11
5.41309e-09
6.59041e-11
5.34815e-09
6.49385e-11
5.28473e-09
6.34213e-11
5.22219e-09
6.25377e-11
5.16121e-09
6.09774e-11
5.10095e-09
6.02585e-11
5.04207e-09
5.8886e-11
4.98379e-09
5.82795e-11
4.927e-09
5.67921e-11
4.87074e-09
5.62551e-11
4.81588e-09
5.48635e-11
4.76148e-09
5.44e-11
4.70854e-09
5.29326e-11
4.65593e-09
5.26187e-11
4.60468e-09
5.1246e-11
4.55364e-09
5.10354e-11
4.50399e-09
4.96544e-11
4.45443e-09
4.95602e-11
4.40625e-09
4.81771e-11
4.35812e-09
4.81294e-11
4.31136e-09
4.67586e-11
4.26454e-09
4.68234e-11
4.21902e-09
4.55198e-11
4.17334e-09
4.56763e-11
4.12883e-09
4.45103e-11
4.08417e-09
4.46603e-11
4.04044e-09
4.37293e-11
3.99666e-09
4.37897e-11
3.95328e-09
4.33774e-11
3.91023e-09
4.30479e-11
4.52687e-11
8.53929e-08
6.15744e-09
-8.48235e-08
8.4496e-08
9.27428e-09
8.26386e-08
1.00882e-08
8.02496e-08
1.03909e-08
7.73197e-08
1.069e-08
7.38755e-08
1.06426e-08
7.00687e-08
9.94712e-09
6.61662e-08
8.58222e-09
6.24801e-08
6.84496e-09
5.9203e-08
5.25727e-09
5.63213e-08
4.13793e-09
5.37477e-08
3.4235e-09
5.14319e-08
2.94443e-09
4.93465e-08
2.6052e-09
4.74597e-08
2.36218e-09
4.5743e-08
2.1743e-09
4.41721e-08
2.01617e-09
4.27275e-08
1.8752e-09
4.13929e-08
1.74592e-09
4.01555e-08
1.62645e-09
3.90043e-08
1.51659e-09
3.793e-08
1.41642e-09
3.69245e-08
1.32538e-09
3.59819e-08
1.24202e-09
3.50969e-08
1.1654e-09
3.42645e-08
1.09526e-09
3.34795e-08
1.03224e-09
3.27366e-08
9.76424e-10
3.2031e-08
9.27296e-10
3.13592e-08
8.83147e-10
3.07181e-08
8.42947e-10
3.01054e-08
8.05873e-10
2.95187e-08
7.71927e-10
2.89563e-08
7.40175e-10
2.84168e-08
7.10394e-10
2.78989e-08
6.82023e-10
2.74008e-08
6.55837e-10
2.69211e-08
6.3161e-10
2.64581e-08
6.09688e-10
2.60109e-08
5.88997e-10
2.55783e-08
5.69723e-10
2.51599e-08
5.51029e-10
2.47546e-08
5.33677e-10
2.43623e-08
5.16698e-10
2.39818e-08
5.00964e-10
2.36127e-08
4.85814e-10
2.32541e-08
4.7216e-10
2.29057e-08
4.58681e-10
2.25667e-08
4.4649e-10
2.2237e-08
4.34203e-10
2.1916e-08
4.2294e-10
2.16037e-08
4.11388e-10
2.12991e-08
4.0122e-10
2.10024e-08
3.90869e-10
2.07125e-08
3.8187e-10
2.04299e-08
3.72221e-10
2.01539e-08
3.63683e-10
1.98848e-08
3.54379e-10
1.96216e-08
3.46631e-10
1.93647e-08
3.38211e-10
1.9113e-08
3.31458e-10
1.88673e-08
3.23585e-10
1.86264e-08
3.17317e-10
1.83911e-08
3.09845e-10
1.81601e-08
3.04188e-10
1.79344e-08
2.97218e-10
1.77126e-08
2.9227e-10
1.74959e-08
2.85432e-10
1.72829e-08
2.80582e-10
1.70749e-08
2.73915e-10
1.687e-08
2.69805e-10
1.66699e-08
2.63549e-10
1.64726e-08
2.59805e-10
1.628e-08
2.53567e-10
1.60898e-08
2.50469e-10
1.5904e-08
2.44686e-10
1.57203e-08
2.41984e-10
1.55411e-08
2.35962e-10
1.53637e-08
2.33676e-10
1.51907e-08
2.27864e-10
1.50192e-08
2.25945e-10
1.48521e-08
2.19971e-10
1.46861e-08
2.18678e-10
1.45245e-08
2.12859e-10
1.43634e-08
2.12051e-10
1.4207e-08
2.06127e-10
1.40507e-08
2.05871e-10
1.3899e-08
1.99802e-10
1.37472e-08
1.9999e-10
1.36001e-08
1.93809e-10
1.34523e-08
1.94648e-10
1.33094e-08
1.88426e-10
1.31651e-08
1.89924e-10
1.30259e-08
1.83765e-10
1.28848e-08
1.85767e-10
1.27486e-08
1.79909e-10
1.26101e-08
1.82316e-10
1.24759e-08
1.77521e-10
1.23395e-08
1.79531e-10
1.82163e-10
8.92238e-08
5.67818e-09
-8.87445e-08
8.96649e-08
8.83313e-09
8.96223e-08
1.01308e-08
8.94003e-08
1.0613e-08
8.90492e-08
1.10411e-08
8.84282e-08
1.12636e-08
8.74196e-08
1.09557e-08
8.60256e-08
9.97625e-09
8.43677e-08
8.50278e-09
8.26258e-08
6.99921e-09
8.08987e-08
5.86509e-09
7.9185e-08
5.13712e-09
7.74723e-08
4.65714e-09
7.57696e-08
4.30796e-09
7.40905e-08
4.04129e-09
7.24426e-08
3.82219e-09
7.08304e-08
3.62829e-09
6.92573e-08
3.44839e-09
6.77252e-08
3.278e-09
6.6236e-08
3.1156e-09
6.47909e-08
2.96168e-09
6.33906e-08
2.81677e-09
6.20352e-08
2.68074e-09
6.07255e-08
2.55177e-09
5.94618e-08
2.42908e-09
5.82443e-08
2.31271e-09
5.70721e-08
2.2045e-09
5.59434e-08
2.10513e-09
5.48561e-08
2.01458e-09
5.38087e-08
1.93055e-09
5.27994e-08
1.85226e-09
5.18267e-08
1.77857e-09
5.08887e-08
1.70991e-09
4.99842e-08
1.64464e-09
4.91117e-08
1.5829e-09
4.827e-08
1.52369e-09
4.74571e-08
1.46875e-09
4.66712e-08
1.41748e-09
4.59101e-08
1.37085e-09
4.51724e-08
1.32671e-09
4.44564e-08
1.28573e-09
4.37614e-08
1.246e-09
4.3086e-08
1.20907e-09
4.24298e-08
1.17291e-09
4.17913e-08
1.13942e-09
4.11703e-08
1.10682e-09
4.05654e-08
1.07712e-09
3.99764e-08
1.0476e-09
3.94023e-08
1.02065e-09
3.88431e-08
9.93325e-10
3.82978e-08
9.68263e-10
3.77666e-08
9.4265e-10
3.72477e-08
9.20048e-10
3.67416e-08
8.97016e-10
3.62466e-08
8.76895e-10
3.57634e-08
8.55401e-10
3.52906e-08
8.36493e-10
3.48289e-08
8.16005e-10
3.43767e-08
7.98853e-10
3.39348e-08
7.80088e-10
3.35015e-08
7.64777e-10
3.30781e-08
7.47031e-10
3.26626e-08
7.32825e-10
3.22565e-08
7.15954e-10
3.18576e-08
7.03103e-10
3.14674e-08
6.87325e-10
3.10838e-08
6.75907e-10
3.07088e-08
6.60464e-10
3.03398e-08
6.49577e-10
2.9979e-08
6.34645e-10
2.96236e-08
6.2524e-10
2.92762e-08
6.10999e-10
2.89335e-08
6.02447e-10
2.85987e-08
5.88376e-10
2.8268e-08
5.81209e-10
2.79448e-08
5.67864e-10
2.76252e-08
5.61599e-10
2.73132e-08
5.4793e-10
2.70042e-08
5.42696e-10
2.67028e-08
5.293e-10
2.64037e-08
5.24986e-10
2.61124e-08
5.11305e-10
2.58227e-08
5.08395e-10
2.55407e-08
4.94826e-10
2.52596e-08
4.93111e-10
2.49866e-08
4.79208e-10
2.47136e-08
4.78841e-10
2.44489e-08
4.64454e-10
2.41836e-08
4.65358e-10
2.39269e-08
4.50492e-10
2.36684e-08
4.53085e-10
2.34191e-08
4.3776e-10
2.31669e-08
4.42163e-10
2.29242e-08
4.26446e-10
2.26774e-08
4.32545e-10
2.24405e-08
4.16788e-10
2.21983e-08
4.24555e-10
2.19657e-08
4.10159e-10
2.17272e-08
4.1799e-10
4.16812e-10
9.30043e-08
5.46623e-09
-9.27924e-08
9.35514e-08
8.28606e-09
9.38333e-08
9.84889e-09
9.40212e-08
1.04251e-08
9.42787e-08
1.07835e-08
9.45287e-08
1.10136e-08
9.46214e-08
1.0863e-08
9.4457e-08
1.01406e-08
9.40252e-08
8.93465e-09
9.34187e-08
7.60565e-09
9.27403e-08
6.54352e-09
9.20178e-08
5.85964e-09
9.12401e-08
5.43486e-09
9.04074e-08
5.1406e-09
8.95316e-08
4.91712e-09
8.86211e-08
4.73265e-09
8.76807e-08
4.5687e-09
8.67136e-08
4.41552e-09
8.57223e-08
4.26927e-09
8.47099e-08
4.12802e-09
8.36793e-08
3.99229e-09
8.26337e-08
3.86237e-09
8.1576e-08
3.73844e-09
8.05095e-08
3.61824e-09
7.94373e-08
3.50126e-09
7.83627e-08
3.3873e-09
7.72882e-08
3.27909e-09
7.6216e-08
3.17733e-09
7.51479e-08
3.08262e-09
7.40865e-08
2.99198e-09
7.30336e-08
2.90514e-09
7.19917e-08
2.82044e-09
7.09626e-08
2.73906e-09
6.99486e-08
2.65861e-09
6.89514e-08
2.58008e-09
6.79731e-08
2.50209e-09
6.70139e-08
2.42795e-09
6.60745e-08
2.35683e-09
6.51541e-08
2.29123e-09
6.42527e-08
2.22811e-09
6.33691e-08
2.16933e-09
6.25033e-08
2.11183e-09
6.16539e-08
2.05846e-09
6.08212e-08
2.00566e-09
6.00037e-08
1.95686e-09
5.9202e-08
1.90858e-09
5.84147e-08
1.86435e-09
5.76429e-08
1.81947e-09
5.68853e-08
1.77818e-09
5.61433e-08
1.73533e-09
5.54158e-08
1.6958e-09
5.47038e-08
1.65468e-09
5.40055e-08
1.61831e-09
5.33218e-08
1.58075e-09
5.26506e-08
1.54809e-09
5.19931e-08
1.51291e-09
5.13472e-08
1.48234e-09
5.07143e-08
1.44893e-09
5.0092e-08
1.42119e-09
4.94818e-08
1.39029e-09
4.88815e-08
1.36509e-09
4.82931e-08
1.33536e-09
4.77142e-08
1.31171e-09
4.71471e-08
1.28307e-09
4.65888e-08
1.26141e-09
4.60417e-08
1.23441e-09
4.55026e-08
1.21499e-09
4.49746e-08
1.18853e-09
4.44539e-08
1.17027e-09
4.39438e-08
1.14472e-09
4.34402e-08
1.1288e-09
4.29471e-08
1.1041e-09
4.246e-08
1.08955e-09
4.19833e-08
1.06509e-09
4.15118e-08
1.05278e-09
4.10504e-08
1.0292e-09
4.05936e-08
1.01845e-09
4.0147e-08
9.94463e-10
3.97042e-08
9.85585e-10
3.92716e-08
9.61811e-10
3.8842e-08
9.54594e-10
3.8423e-08
9.30297e-10
3.8006e-08
9.2548e-10
3.75997e-08
9.01077e-10
3.71944e-08
8.98452e-10
3.68003e-08
8.73316e-10
3.64059e-08
8.73165e-10
3.60234e-08
8.46973e-10
3.56395e-08
8.49296e-10
3.5268e-08
8.21973e-10
3.48936e-08
8.2746e-10
3.45324e-08
7.98933e-10
3.41667e-08
8.07895e-10
3.3815e-08
7.78146e-10
3.3457e-08
7.90575e-10
3.31137e-08
7.60076e-10
3.27623e-08
7.75996e-10
3.24254e-08
7.47042e-10
3.20796e-08
7.63728e-10
7.54047e-10
9.70089e-08
5.38541e-09
-9.69281e-08
9.74999e-08
7.79502e-09
9.78743e-08
9.47456e-09
9.81277e-08
1.01716e-08
9.84424e-08
1.04688e-08
9.88227e-08
1.06333e-08
9.91643e-08
1.05214e-08
9.93599e-08
9.94501e-09
9.93593e-08
8.93526e-09
9.92059e-08
7.75904e-09
9.89872e-08
6.76227e-09
9.87449e-08
6.10196e-09
9.84733e-08
5.70647e-09
9.81642e-08
5.4497e-09
9.78214e-08
5.25989e-09
9.74502e-08
5.10386e-09
9.70523e-08
4.9666e-09
9.66274e-08
4.84036e-09
9.61743e-08
4.7224e-09
9.56922e-08
4.61015e-09
9.51806e-08
4.50391e-09
9.46399e-08
4.40306e-09
9.40703e-08
4.30803e-09
9.34726e-08
4.21588e-09
9.28474e-08
4.1265e-09
9.21957e-08
4.03898e-09
9.15181e-08
3.95668e-09
9.08158e-08
3.87965e-09
9.00894e-08
3.80908e-09
8.93404e-08
3.74092e-09
8.85702e-08
3.67536e-09
8.7781e-08
3.60959e-09
8.69748e-08
3.54531e-09
8.61548e-08
3.47863e-09
8.53236e-08
3.41121e-09
8.44853e-08
3.3404e-09
8.36423e-08
3.27098e-09
8.27978e-08
3.2013e-09
8.19532e-08
3.13586e-09
8.11106e-08
3.0707e-09
8.02702e-08
3.00973e-09
7.94334e-08
2.94865e-09
7.85994e-08
2.89246e-09
7.77692e-08
2.83583e-09
7.69417e-08
2.78436e-09
7.61179e-08
2.73238e-09
7.52969e-08
2.68542e-09
7.44802e-08
2.63612e-09
7.36674e-08
2.59097e-09
7.2861e-08
2.54171e-09
7.20609e-08
2.49596e-09
7.12696e-08
2.44592e-09
7.04865e-08
2.4015e-09
6.97135e-08
2.35367e-09
6.89491e-08
2.31248e-09
6.81953e-08
2.26675e-09
6.74497e-08
2.22795e-09
6.67142e-08
2.18446e-09
6.59859e-08
2.14945e-09
6.52671e-08
2.10908e-09
6.45551e-08
2.07712e-09
6.38529e-08
2.03755e-09
6.31577e-08
2.00688e-09
6.24731e-08
1.96767e-09
6.17958e-08
1.93869e-09
6.11295e-08
1.9008e-09
6.04701e-08
1.87438e-09
5.98218e-08
1.83683e-09
5.91799e-08
1.81212e-09
5.85488e-08
1.77581e-09
5.79233e-08
1.75434e-09
5.73085e-08
1.71883e-09
5.6699e-08
1.69906e-09
5.61007e-08
1.66346e-09
5.55069e-08
1.64655e-09
5.49245e-08
1.61157e-09
5.43462e-08
1.59675e-09
5.37796e-08
1.56107e-09
5.32161e-08
1.54908e-09
5.26646e-08
1.51337e-09
5.21153e-08
1.50386e-09
5.15784e-08
1.46715e-09
5.10429e-08
1.46107e-09
5.05202e-08
1.4237e-09
4.99977e-08
1.42093e-09
4.94889e-08
1.38218e-09
4.89788e-08
1.38322e-09
4.84832e-08
1.34257e-09
4.7985e-08
1.34754e-09
4.75022e-08
1.30477e-09
4.7015e-08
1.31466e-09
4.65443e-08
1.26958e-09
4.60673e-08
1.28496e-09
4.56079e-08
1.23749e-09
4.514e-08
1.25849e-09
4.46909e-08
1.20924e-09
4.4231e-08
1.23587e-09
4.37898e-08
1.18827e-09
4.33369e-08
1.21659e-09
1.1938e-09
1.01185e-07
5.35609e-09
-1.01156e-07
1.0159e-07
7.39035e-09
1.02002e-07
9.06236e-09
1.02297e-07
9.87623e-09
1.026e-07
1.01666e-08
1.02962e-07
1.02705e-08
1.03327e-07
1.01568e-08
1.03596e-07
9.67616e-09
1.03711e-07
8.81992e-09
1.03691e-07
7.77898e-09
1.03612e-07
6.84182e-09
1.03524e-07
6.19003e-09
1.03432e-07
5.79825e-09
1.03326e-07
5.55522e-09
1.03206e-07
5.38045e-09
1.03074e-07
5.23581e-09
1.02932e-07
5.10818e-09
1.02781e-07
4.99189e-09
1.02617e-07
4.8863e-09
1.02438e-07
4.78854e-09
1.02243e-07
4.69894e-09
1.02031e-07
4.61576e-09
1.01799e-07
4.53985e-09
1.01547e-07
4.46752e-09
1.01274e-07
4.39944e-09
1.00979e-07
4.33389e-09
1.00661e-07
4.27508e-09
1.00318e-07
4.22211e-09
9.99504e-08
4.17713e-09
9.95564e-08
4.13494e-09
9.91352e-08
4.09659e-09
9.8687e-08
4.05776e-09
9.82114e-08
4.0209e-09
9.77099e-08
3.98018e-09
9.71831e-08
3.93795e-09
9.66341e-08
3.88944e-09
9.60645e-08
3.84059e-09
9.54778e-08
3.78793e-09
9.48757e-08
3.73798e-09
9.42612e-08
3.68526e-09
9.36348e-08
3.63612e-09
9.29987e-08
3.5847e-09
9.23524e-08
3.53877e-09
9.16973e-08
3.49099e-09
9.10318e-08
3.44982e-09
9.03571e-08
3.40713e-09
8.96713e-08
3.37121e-09
8.89758e-08
3.33154e-09
8.82694e-08
3.29738e-09
8.75547e-08
3.25642e-09
8.68315e-08
3.21922e-09
8.61036e-08
3.17374e-09
8.53713e-08
3.13384e-09
8.46386e-08
3.08639e-09
8.39047e-08
3.04637e-09
8.31732e-08
2.99823e-09
8.24421e-08
2.95907e-09
8.17141e-08
2.91246e-09
8.0986e-08
2.87757e-09
8.02603e-08
2.8347e-09
7.95337e-08
2.80374e-09
7.88098e-08
2.76149e-09
7.80852e-08
2.73144e-09
7.73649e-08
2.68804e-09
7.66455e-08
2.65801e-09
7.59325e-08
2.61387e-09
7.52217e-08
2.58518e-09
7.45187e-08
2.53984e-09
7.38182e-08
2.5126e-09
7.31256e-08
2.46837e-09
7.24347e-08
2.44528e-09
7.17517e-08
2.40183e-09
7.107e-08
2.38077e-09
7.0397e-08
2.33642e-09
6.97253e-08
2.31827e-09
6.90635e-08
2.2734e-09
6.84031e-08
2.25714e-09
6.77536e-08
2.21061e-09
6.71047e-08
2.19795e-09
6.64672e-08
2.15089e-09
6.58295e-08
2.14155e-09
6.52039e-08
2.09277e-09
6.45771e-08
2.08778e-09
6.39636e-08
2.03726e-09
6.33481e-08
2.03643e-09
6.27469e-08
1.98341e-09
6.21424e-08
1.9877e-09
6.15533e-08
1.93164e-09
6.09594e-08
1.94141e-09
6.03823e-08
1.88191e-09
5.97986e-08
1.89837e-09
5.92331e-08
1.83506e-09
5.8659e-08
1.85907e-09
5.81046e-08
1.79188e-09
5.75393e-08
1.82377e-09
5.6995e-08
1.75357e-09
5.64376e-08
1.79326e-09
5.59012e-08
1.72464e-09
5.53507e-08
1.76712e-09
1.72791e-09
1.05499e-07
5.33817e-09
-1.05481e-07
1.05821e-07
7.06817e-09
1.06235e-07
8.64774e-09
1.0657e-07
9.54172e-09
1.0687e-07
9.8662e-09
1.07207e-07
9.93417e-09
1.07556e-07
9.80723e-09
1.07837e-07
9.39529e-09
1.0799e-07
8.66712e-09
1.08016e-07
7.75296e-09
1.07977e-07
6.88112e-09
1.07928e-07
6.23833e-09
1.07887e-07
5.8399e-09
1.07844e-07
5.59782e-09
1.07796e-07
5.42881e-09
1.07744e-07
5.2877e-09
1.07691e-07
5.16106e-09
1.07638e-07
5.04448e-09
1.07585e-07
4.94017e-09
1.07528e-07
4.8453e-09
1.07466e-07
4.76083e-09
1.07398e-07
4.68358e-09
1.07323e-07
4.61514e-09
1.0724e-07
4.5508e-09
1.07147e-07
4.49235e-09
1.07043e-07
4.43709e-09
1.06928e-07
4.39049e-09
1.068e-07
4.35052e-09
1.06656e-07
4.32077e-09
1.06496e-07
4.29479e-09
1.06318e-07
4.27514e-09
1.0612e-07
4.25581e-09
1.059e-07
4.24061e-09
1.05658e-07
4.22155e-09
1.05394e-07
4.20222e-09
1.05108e-07
4.17526e-09
1.04801e-07
4.14794e-09
1.04475e-07
4.11422e-09
1.0413e-07
4.08267e-09
1.0377e-07
4.04564e-09
1.03394e-07
4.01219e-09
1.03004e-07
3.97422e-09
1.026e-07
3.94272e-09
1.02183e-07
3.90787e-09
1.01751e-07
3.88158e-09
1.01306e-07
3.85288e-09
1.00843e-07
3.83376e-09
1.00364e-07
3.81027e-09
9.98665e-08
3.79534e-09
9.93507e-08
3.77218e-09
9.88152e-08
3.75469e-09
9.82635e-08
3.72543e-09
9.76952e-08
3.70219e-09
9.71152e-08
3.66638e-09
9.65233e-08
3.63827e-09
9.59245e-08
3.59705e-09
9.53172e-08
3.5663e-09
9.47056e-08
3.52415e-09
9.40861e-08
3.497e-09
9.3462e-08
3.45882e-09
9.28286e-08
3.43712e-09
9.21894e-08
3.40074e-09
9.15397e-08
3.3811e-09
9.08847e-08
3.34309e-09
9.02207e-08
3.32195e-09
8.95545e-08
3.28012e-09
8.88822e-08
3.2574e-09
8.82113e-08
3.21079e-09
8.75365e-08
3.18741e-09
8.68644e-08
3.14041e-09
8.61881e-08
3.12159e-09
8.55144e-08
3.07557e-09
8.48354e-08
3.05978e-09
8.41594e-08
3.01242e-09
8.34781e-08
2.99952e-09
8.28018e-08
2.94974e-09
8.21215e-08
2.93743e-09
8.14484e-08
2.88365e-09
8.07717e-08
2.87471e-09
8.01032e-08
2.81933e-09
7.94303e-08
2.81452e-09
7.87663e-08
2.75676e-09
7.80968e-08
2.75726e-09
7.74378e-08
2.69626e-09
7.6773e-08
2.70124e-09
7.61206e-08
2.63584e-09
7.54616e-08
2.6467e-09
7.48165e-08
2.5767e-09
7.41634e-08
2.59453e-09
7.35257e-08
2.51962e-09
7.28783e-08
2.54571e-09
7.22483e-08
2.46513e-09
7.16069e-08
2.50044e-09
7.09846e-08
2.41416e-09
7.0349e-08
2.45935e-09
6.97338e-08
2.36874e-09
6.91035e-08
2.42361e-09
6.84936e-08
2.33451e-09
6.78677e-08
2.39303e-09
2.33693e-09
1.09938e-07
5.3158e-09
-1.09915e-07
1.10193e-07
6.81316e-09
1.10587e-07
8.2539e-09
1.10948e-07
9.18039e-09
1.11259e-07
9.5554e-09
1.11579e-07
9.61379e-09
1.1191e-07
9.47687e-09
1.1219e-07
9.11459e-09
1.12364e-07
8.49318e-09
1.1242e-07
7.69679e-09
1.12403e-07
6.89814e-09
1.1237e-07
6.27197e-09
1.12344e-07
5.86607e-09
1.12322e-07
5.61905e-09
1.12299e-07
5.45219e-09
1.12273e-07
5.31329e-09
1.12248e-07
5.1865e-09
1.12225e-07
5.067e-09
1.12205e-07
4.96014e-09
1.12187e-07
4.86342e-09
1.12169e-07
4.77909e-09
1.1215e-07
4.70232e-09
1.1213e-07
4.63565e-09
1.12108e-07
4.57293e-09
1.12083e-07
4.51738e-09
1.12055e-07
4.4649e-09
1.12023e-07
4.42262e-09
1.11986e-07
4.38702e-09
1.11943e-07
4.36354e-09
1.11894e-07
4.34426e-09
1.11835e-07
4.33377e-09
1.11767e-07
4.32421e-09
1.11686e-07
4.32131e-09
1.11593e-07
4.31476e-09
1.11485e-07
4.31006e-09
1.11363e-07
4.29702e-09
1.11227e-07
4.28474e-09
1.11077e-07
4.26412e-09
1.10913e-07
4.24617e-09
1.10738e-07
4.22046e-09
1.10551e-07
4.19912e-09
1.10355e-07
4.17115e-09
1.10146e-07
4.1511e-09
1.09928e-07
4.12604e-09
1.09698e-07
4.11175e-09
1.09457e-07
4.09393e-09
1.09202e-07
4.08893e-09
1.08933e-07
4.07915e-09
1.08646e-07
4.0822e-09
1.08341e-07
4.07667e-09
1.08015e-07
4.08071e-09
1.0767e-07
4.07087e-09
1.07303e-07
4.06913e-09
1.06919e-07
4.05031e-09
1.06517e-07
4.04004e-09
1.06103e-07
4.0112e-09
1.05675e-07
3.99419e-09
1.05239e-07
3.96092e-09
1.0479e-07
3.9457e-09
1.04333e-07
3.91571e-09
1.03863e-07
3.90732e-09
1.03382e-07
3.88138e-09
1.02885e-07
3.87837e-09
1.02375e-07
3.85301e-09
1.01847e-07
3.84941e-09
1.01309e-07
3.81852e-09
1.00756e-07
3.81057e-09
1.00196e-07
3.77035e-09
9.96259e-08
3.75783e-09
9.90527e-08
3.71364e-09
9.84697e-08
3.70457e-09
9.78841e-08
3.66117e-09
9.72869e-08
3.65695e-09
9.66861e-08
3.61325e-09
9.60723e-08
3.61325e-09
9.54562e-08
3.56593e-09
9.48287e-08
3.5649e-09
9.42024e-08
3.50996e-09
9.35667e-08
3.51037e-09
9.29346e-08
3.4514e-09
9.2293e-08
3.45618e-09
9.16553e-08
3.39441e-09
9.10065e-08
3.40606e-09
9.03627e-08
3.34007e-09
8.97077e-08
3.35629e-09
8.90602e-08
3.28326e-09
8.8402e-08
3.30498e-09
8.77536e-08
3.22504e-09
8.70934e-08
3.25471e-09
8.64445e-08
3.16861e-09
8.57821e-08
3.20805e-09
8.51328e-08
3.11445e-09
8.44692e-08
3.16401e-09
8.38208e-08
3.06256e-09
8.3157e-08
3.12314e-09
8.25095e-08
3.01622e-09
8.18454e-08
3.08777e-09
8.11973e-08
2.98261e-09
8.05323e-08
3.05799e-09
2.98854e-09
1.14507e-07
5.28715e-09
-1.14479e-07
1.14714e-07
6.60693e-09
1.15074e-07
7.89408e-09
1.15446e-07
8.80814e-09
1.15772e-07
9.22946e-09
1.16085e-07
9.30036e-09
1.16398e-07
9.16415e-09
1.16673e-07
8.83937e-09
1.16861e-07
8.30527e-09
1.16943e-07
7.61438e-09
1.16948e-07
6.89373e-09
1.16926e-07
6.29327e-09
1.16909e-07
5.88372e-09
1.16899e-07
5.62909e-09
1.16889e-07
5.46215e-09
1.16876e-07
5.32571e-09
1.16863e-07
5.2004e-09
1.16851e-07
5.07888e-09
1.16841e-07
4.96928e-09
1.16835e-07
4.86957e-09
1.1683e-07
4.78411e-09
1.16826e-07
4.70628e-09
1.16822e-07
4.63984e-09
1.16818e-07
4.57681e-09
1.16814e-07
4.52202e-09
1.16809e-07
4.46955e-09
1.16803e-07
4.42843e-09
1.16797e-07
4.39328e-09
1.16789e-07
4.37172e-09
1.16779e-07
4.35396e-09
1.16766e-07
4.34704e-09
1.16749e-07
4.34093e-09
1.16727e-07
4.34379e-09
1.16699e-07
4.34276e-09
1.16663e-07
4.34583e-09
1.1662e-07
4.33973e-09
1.16569e-07
4.33599e-09
1.16511e-07
4.32211e-09
1.16445e-07
4.31203e-09
1.16373e-07
4.29206e-09
1.16295e-07
4.27778e-09
1.16211e-07
4.25479e-09
1.16121e-07
4.24147e-09
1.16026e-07
4.22123e-09
1.15923e-07
4.21396e-09
1.15816e-07
4.20148e-09
1.157e-07
4.20489e-09
1.15576e-07
4.2026e-09
1.15441e-07
4.2175e-09
1.15294e-07
4.2236e-09
1.15131e-07
4.24421e-09
1.14952e-07
4.24979e-09
1.14754e-07
4.26705e-09
1.1454e-07
4.26372e-09
1.1431e-07
4.27086e-09
1.14066e-07
4.25435e-09
1.13809e-07
4.25147e-09
1.13543e-07
4.22721e-09
1.13265e-07
4.22386e-09
1.12979e-07
4.20134e-09
1.12681e-07
4.20531e-09
1.12374e-07
4.18886e-09
1.1205e-07
4.20243e-09
1.11712e-07
4.19101e-09
1.11353e-07
4.2079e-09
1.10979e-07
4.19218e-09
1.10586e-07
4.20411e-09
1.10181e-07
4.17568e-09
1.09759e-07
4.17897e-09
1.09331e-07
4.1417e-09
1.0889e-07
4.14544e-09
1.08444e-07
4.10745e-09
1.07983e-07
4.1177e-09
1.07515e-07
4.08175e-09
1.07028e-07
4.09968e-09
1.06533e-07
4.06136e-09
1.0602e-07
4.07829e-09
1.05501e-07
4.02906e-09
1.04967e-07
4.04422e-09
1.04431e-07
3.98684e-09
1.03882e-07
4.00501e-09
1.03333e-07
3.94415e-09
1.02767e-07
3.97139e-09
1.022e-07
3.90698e-09
1.01617e-07
3.93992e-09
1.01034e-07
3.86622e-09
1.00436e-07
3.90317e-09
9.98415e-08
3.81919e-09
9.92325e-08
3.86377e-09
9.86285e-08
3.77261e-09
9.80079e-08
3.8286e-09
9.73932e-08
3.72917e-09
9.67616e-08
3.79568e-09
9.6138e-08
3.68616e-09
9.54978e-08
3.7633e-09
9.48666e-08
3.64744e-09
9.42185e-08
3.73587e-09
9.3578e-08
3.62308e-09
9.29213e-08
3.71467e-09
3.63964e-09
1.19222e-07
5.25644e-09
-1.19192e-07
1.19395e-07
6.43416e-09
1.19716e-07
7.57267e-09
1.20085e-07
8.43921e-09
1.20425e-07
8.89006e-09
1.20737e-07
8.98848e-09
1.21035e-07
8.86571e-09
1.21301e-07
8.57305e-09
1.21497e-07
8.10992e-09
1.21601e-07
7.5104e-09
1.21627e-07
6.86787e-09
1.21619e-07
6.30141e-09
1.21608e-07
5.89409e-09
1.21606e-07
5.63154e-09
1.21605e-07
5.46241e-09
1.21603e-07
5.32812e-09
1.21597e-07
5.20609e-09
1.21592e-07
5.08449e-09
1.21588e-07
4.97326e-09
1.21587e-07
4.87064e-09
1.21587e-07
4.78393e-09
1.21588e-07
4.70483e-09
1.2159e-07
4.63858e-09
1.21591e-07
4.57507e-09
1.21592e-07
4.52088e-09
1.21594e-07
4.46793e-09
1.21595e-07
4.42733e-09
1.21597e-07
4.39153e-09
1.21598e-07
4.37048e-09
1.216e-07
4.35221e-09
1.21601e-07
4.34646e-09
1.21601e-07
4.34078e-09
1.21598e-07
4.34607e-09
1.21594e-07
4.34674e-09
1.21587e-07
4.35361e-09
1.21576e-07
4.35028e-09
1.21561e-07
4.35104e-09
1.21543e-07
4.3399e-09
1.21521e-07
4.33398e-09
1.21497e-07
4.31612e-09
1.21469e-07
4.30555e-09
1.2144e-07
4.28417e-09
1.21407e-07
4.27434e-09
1.21373e-07
4.25548e-09
1.21335e-07
4.25168e-09
1.21296e-07
4.2405e-09
1.21253e-07
4.24785e-09
1.21208e-07
4.2478e-09
1.21157e-07
4.26874e-09
1.211e-07
4.28008e-09
1.21034e-07
4.31071e-09
1.20958e-07
4.32535e-09
1.2087e-07
4.35584e-09
1.2077e-07
4.36303e-09
1.20658e-07
4.38339e-09
1.20536e-07
4.37581e-09
1.20404e-07
4.38412e-09
1.20264e-07
4.36631e-09
1.20116e-07
4.3722e-09
1.19963e-07
4.35431e-09
1.19801e-07
4.36704e-09
1.19634e-07
4.35614e-09
1.19455e-07
4.3819e-09
1.19265e-07
4.38083e-09
1.19057e-07
4.41536e-09
1.18836e-07
4.41361e-09
1.18595e-07
4.44502e-09
1.18341e-07
4.42954e-09
1.1807e-07
4.44973e-09
1.17791e-07
4.42092e-09
1.17499e-07
4.43755e-09
1.17201e-07
4.40508e-09
1.16891e-07
4.4286e-09
1.16572e-07
4.40056e-09
1.16235e-07
4.43646e-09
1.15886e-07
4.40994e-09
1.15517e-07
4.44761e-09
1.15137e-07
4.40921e-09
1.14739e-07
4.44235e-09
1.14335e-07
4.39093e-09
1.13916e-07
4.42378e-09
1.13493e-07
4.36704e-09
1.13054e-07
4.41084e-09
1.12608e-07
4.35296e-09
1.12142e-07
4.4056e-09
1.1167e-07
4.33841e-09
1.11179e-07
4.39365e-09
1.10686e-07
4.3123e-09
1.10177e-07
4.37281e-09
1.09667e-07
4.28295e-09
1.09139e-07
4.35632e-09
1.08609e-07
4.25939e-09
1.0806e-07
4.34415e-09
1.07511e-07
4.23582e-09
1.06945e-07
4.32905e-09
1.06379e-07
4.21358e-09
1.05798e-07
4.31698e-09
1.05213e-07
4.20739e-09
1.04615e-07
4.31311e-09
4.24305e-09
1.24099e-07
5.23039e-09
-1.24073e-07
1.2425e-07
6.28392e-09
1.24535e-07
7.28703e-09
1.24891e-07
8.08349e-09
1.25237e-07
8.54354e-09
1.25551e-07
8.67525e-09
1.25839e-07
8.57784e-09
1.26095e-07
8.31702e-09
1.26292e-07
7.91265e-09
1.26412e-07
7.39065e-09
1.26457e-07
6.82202e-09
1.26463e-07
6.29597e-09
1.2646e-07
5.89727e-09
1.26463e-07
5.62868e-09
1.26469e-07
5.4556e-09
1.26475e-07
5.32229e-09
1.26477e-07
5.20459e-09
1.26476e-07
5.08487e-09
1.26476e-07
4.97357e-09
1.26478e-07
4.86858e-09
1.26481e-07
4.78067e-09
1.26486e-07
4.70034e-09
1.2649e-07
4.63447e-09
1.26494e-07
4.57071e-09
1.26498e-07
4.5174e-09
1.26502e-07
4.46421e-09
1.26505e-07
4.42423e-09
1.26508e-07
4.38769e-09
1.26512e-07
4.36687e-09
1.26517e-07
4.34752e-09
1.26521e-07
4.34203e-09
1.26526e-07
4.33555e-09
1.26531e-07
4.34171e-09
1.26535e-07
4.34224e-09
1.26538e-07
4.3509e-09
1.2654e-07
4.34824e-09
1.2654e-07
4.35144e-09
1.26538e-07
4.34112e-09
1.26535e-07
4.33758e-09
1.26531e-07
4.32024e-09
1.26524e-07
4.31186e-09
1.26518e-07
4.29071e-09
1.26509e-07
4.28293e-09
1.26501e-07
4.26406e-09
1.2649e-07
4.26213e-09
1.2648e-07
4.25052e-09
1.26468e-07
4.25958e-09
1.26457e-07
4.25913e-09
1.26443e-07
4.28258e-09
1.26428e-07
4.29504e-09
1.26408e-07
4.33071e-09
1.26384e-07
4.34924e-09
1.26353e-07
4.38745e-09
1.26316e-07
4.40021e-09
1.2627e-07
4.42901e-09
1.26219e-07
4.42648e-09
1.26161e-07
4.44225e-09
1.261e-07
4.42801e-09
1.26032e-07
4.44003e-09
1.25962e-07
4.42412e-09
1.25887e-07
4.44198e-09
1.2581e-07
4.43285e-09
1.25727e-07
4.46559e-09
1.25637e-07
4.46992e-09
1.25536e-07
4.51644e-09
1.25426e-07
4.52441e-09
1.253e-07
4.5709e-09
1.25163e-07
4.56604e-09
1.25012e-07
4.6006e-09
1.24854e-07
4.57952e-09
1.24684e-07
4.6068e-09
1.24511e-07
4.57849e-09
1.24328e-07
4.61161e-09
1.2414e-07
4.58908e-09
1.23937e-07
4.63881e-09
1.23724e-07
4.62287e-09
1.23493e-07
4.67919e-09
1.23249e-07
4.65334e-09
1.22987e-07
4.70417e-09
1.22716e-07
4.66135e-09
1.22433e-07
4.7075e-09
1.22143e-07
4.65619e-09
1.21841e-07
4.71367e-09
1.21529e-07
4.66424e-09
1.212e-07
4.73525e-09
1.20859e-07
4.6796e-09
1.20499e-07
4.75339e-09
1.2013e-07
4.68069e-09
1.19748e-07
4.75563e-09
1.19358e-07
4.67215e-09
1.18954e-07
4.76029e-09
1.18541e-07
4.67272e-09
1.18111e-07
4.77451e-09
1.1767e-07
4.67662e-09
1.17215e-07
4.78362e-09
1.16751e-07
4.67781e-09
1.16276e-07
4.79186e-09
1.15788e-07
4.69575e-09
1.15289e-07
4.81225e-09
4.75786e-09
1.29152e-07
5.21926e-09
-1.29141e-07
1.29288e-07
6.14772e-09
1.29544e-07
7.03083e-09
1.29881e-07
7.74615e-09
1.30227e-07
8.19753e-09
1.30543e-07
8.36011e-09
1.30823e-07
8.29704e-09
1.3107e-07
8.07072e-09
1.31265e-07
7.71713e-09
1.31395e-07
7.26067e-09
1.31458e-07
6.75879e-09
1.31478e-07
6.27684e-09
1.31482e-07
5.89302e-09
1.31489e-07
5.62171e-09
1.315e-07
5.44392e-09
1.31513e-07
5.31005e-09
1.31521e-07
5.19666e-09
1.31525e-07
5.08041e-09
1.31528e-07
4.97072e-09
1.31532e-07
4.86424e-09
1.31538e-07
4.7752e-09
1.31544e-07
4.69364e-09
1.31551e-07
4.62824e-09
1.31557e-07
4.56448e-09
1.31562e-07
4.51228e-09
1.31567e-07
4.45916e-09
1.31571e-07
4.42001e-09
1.31576e-07
4.38291e-09
1.31581e-07
4.3623e-09
1.31586e-07
4.34182e-09
1.31592e-07
4.33623e-09
1.31599e-07
4.32849e-09
1.31606e-07
4.33471e-09
1.31614e-07
4.3343e-09
1.31621e-07
4.34362e-09
1.31629e-07
4.34067e-09
1.31635e-07
4.3452e-09
1.31641e-07
4.33494e-09
1.31646e-07
4.33297e-09
1.31651e-07
4.31574e-09
1.31653e-07
4.309e-09
1.31656e-07
4.28784e-09
1.31658e-07
4.28166e-09
1.31659e-07
4.26263e-09
1.31659e-07
4.2621e-09
1.3166e-07
4.24985e-09
1.31659e-07
4.25987e-09
1.3166e-07
4.25835e-09
1.3166e-07
4.28272e-09
1.31661e-07
4.29452e-09
1.31659e-07
4.33228e-09
1.31657e-07
4.35166e-09
1.3165e-07
4.39371e-09
1.31642e-07
4.40868e-09
1.31629e-07
4.44216e-09
1.31613e-07
4.44195e-09
1.31593e-07
4.46216e-09
1.31572e-07
4.44957e-09
1.31546e-07
4.46534e-09
1.3152e-07
4.45003e-09
1.31492e-07
4.47058e-09
1.31463e-07
4.46125e-09
1.31432e-07
4.4971e-09
1.31399e-07
4.50316e-09
1.31359e-07
4.55621e-09
1.31314e-07
4.56953e-09
1.31259e-07
4.62546e-09
1.31198e-07
4.62764e-09
1.31126e-07
4.67218e-09
1.31049e-07
4.65701e-09
1.30964e-07
4.69166e-09
1.30876e-07
4.6661e-09
1.30783e-07
4.70472e-09
1.30687e-07
4.68512e-09
1.30583e-07
4.743e-09
1.30471e-07
4.73451e-09
1.30346e-07
4.80403e-09
1.3021e-07
4.78947e-09
1.3006e-07
4.85439e-09
1.299e-07
4.82086e-09
1.29731e-07
4.87701e-09
1.29556e-07
4.83128e-09
1.29372e-07
4.89737e-09
1.29181e-07
4.85579e-09
1.28976e-07
4.9401e-09
1.28758e-07
4.89773e-09
1.28524e-07
4.98698e-09
1.28278e-07
4.927e-09
1.28021e-07
5.01281e-09
1.27754e-07
4.93892e-09
1.27478e-07
5.03645e-09
1.27188e-07
4.96193e-09
1.26886e-07
5.07654e-09
1.26567e-07
4.99599e-09
1.26238e-07
5.11288e-09
1.25892e-07
5.02399e-09
1.2554e-07
5.14293e-09
1.25169e-07
5.06697e-09
1.24791e-07
5.19004e-09
5.15921e-09
1.34396e-07
5.19793e-09
-1.34375e-07
1.34523e-07
6.02067e-09
1.34756e-07
6.79854e-09
1.35074e-07
7.42818e-09
1.35413e-07
7.85823e-09
1.35728e-07
8.04535e-09
1.36004e-07
8.02076e-09
1.36242e-07
7.83243e-09
1.36434e-07
7.52493e-09
1.3657e-07
7.12465e-09
1.36647e-07
6.68174e-09
1.3668e-07
6.24427e-09
1.36692e-07
5.88097e-09
1.36703e-07
5.6109e-09
1.36718e-07
5.42885e-09
1.36735e-07
5.29318e-09
1.36748e-07
5.18312e-09
1.36758e-07
5.07126e-09
1.36763e-07
4.9648e-09
1.3677e-07
4.85807e-09
1.36777e-07
4.76808e-09
1.36785e-07
4.68531e-09
1.36793e-07
4.62031e-09
1.36801e-07
4.55676e-09
1.36807e-07
4.50571e-09