/*--------------------------------*- C++ -*----------------------------------*\
| =========                 |                                                 |
| \\      /  F ield         | OpenFOAM: The Open Source CFD Toolbox           |
|  \\    /   O peration     | Version:  5.x                                   |
|   \\  /    A nd           | Web:      www.OpenFOAM.org                      |
|    \\/     M anipulation  |                                                 |
\*---------------------------------------------------------------------------*/
FoamFile
{
    version     2.0;
    format      ascii;
    class       volVectorField;
    location    "0.8";
    object      U;
}
// * * * * * * * * * * * * * * * * * * * * * * * * * * * * * * * * * * * * * //

dimensions      [0 1 -1 0 0 0 0];

internalField   nonuniform List<vector> 
10800
(
(0.911861 0.00997712 0)
(0.818646 0.0137594 0)
(0.725949 0.0136838 0)
(0.631892 0.0127713 0)
(0.537845 0.011798 0)
(0.447212 0.0103044 0)
(0.366104 0.00801009 0)
(0.301645 0.00480326 0)
(0.257351 0.00175105 0)
(0.22944 -5.18066e-06 0)
(0.211419 -0.000547163 0)
(0.199215 -0.000574856 0)
(0.190545 -0.000449442 0)
(0.183817 -0.000276563 0)
(0.177984 -0.000109056 0)
(0.17251 1.70106e-05 0)
(0.167211 9.53191e-05 0)
(0.162057 0.000135544 0)
(0.157103 0.000150512 0)
(0.152386 0.000150947 0)
(0.147943 0.000144159 0)
(0.143771 0.000134793 0)
(0.139874 0.000125266 0)
(0.13622 0.000116332 0)
(0.132808 0.00010791 0)
(0.129603 9.99372e-05 0)
(0.126602 9.26092e-05 0)
(0.123765 8.6231e-05 0)
(0.121086 8.08096e-05 0)
(0.118528 7.60331e-05 0)
(0.116098 7.16461e-05 0)
(0.113762 6.76075e-05 0)
(0.111537 6.39726e-05 0)
(0.109389 6.05943e-05 0)
(0.10734 5.73319e-05 0)
(0.105357 5.41062e-05 0)
(0.103467 5.10769e-05 0)
(0.101631 4.83222e-05 0)
(0.0998789 4.58889e-05 0)
(0.0981676 4.36311e-05 0)
(0.0965324 4.15201e-05 0)
(0.0949301 3.9474e-05 0)
(0.0934012 3.75881e-05 0)
(0.0918977 3.57227e-05 0)
(0.0904663 3.39693e-05 0)
(0.0890528 3.23387e-05 0)
(0.0877083 3.09145e-05 0)
(0.0863721 2.95279e-05 0)
(0.0851034 2.83068e-05 0)
(0.0838351 2.70986e-05 0)
(0.0826354 2.59657e-05 0)
(0.08143 2.4786e-05 0)
(0.0802959 2.37473e-05 0)
(0.0791482 2.27231e-05 0)
(0.078073 2.18499e-05 0)
(0.0769761 2.0931e-05 0)
(0.075956 2.0085e-05 0)
(0.0749077 1.91664e-05 0)
(0.0739416 1.8393e-05 0)
(0.0729379 1.76016e-05 0)
(0.0720203 1.69798e-05 0)
(0.0710547 1.6277e-05 0)
(0.070182 1.56956e-05 0)
(0.0692512 1.50406e-05 0)
(0.0684215 1.45176e-05 0)
(0.0675221 1.39276e-05 0)
(0.0667322 1.3504e-05 0)
(0.0658599 1.29449e-05 0)
(0.0651096 1.24912e-05 0)
(0.0642643 1.19375e-05 0)
(0.0635534 1.15656e-05 0)
(0.0627304 1.10893e-05 0)
(0.0620566 1.07463e-05 0)
(0.0612536 1.02656e-05 0)
(0.0606169 9.9768e-06 0)
(0.0598295 9.58549e-06 0)
(0.0592276 9.33543e-06 0)
(0.0584529 8.91961e-06 0)
(0.0578877 8.68378e-06 0)
(0.0571228 8.32127e-06 0)
(0.0565944 8.10205e-06 0)
(0.0558364 7.73131e-06 0)
(0.0553466 7.54758e-06 0)
(0.054591 7.22955e-06 0)
(0.0541401 7.06545e-06 0)
(0.0533819 6.7672e-06 0)
(0.0529721 6.62275e-06 0)
(0.0522064 6.34854e-06 0)
(0.051841 6.19756e-06 0)
(0.0510626 5.95063e-06 0)
(0.0507454 5.80794e-06 0)
(0.0499469 5.60504e-06 0)
(0.0496822 5.4602e-06 0)
(0.0488544 5.31998e-06 0)
(0.0486478 5.14207e-06 0)
(0.04778 5.0828e-06 0)
(0.047639 4.84617e-06 0)
(0.0467171 4.92381e-06 0)
(0.0466504 4.56433e-06 0)
(0.0456519 5.12477e-06 0)
(0.967032 0.0190086 0)
(0.960403 0.0267771 0)
(0.947844 0.0279481 0)
(0.926836 0.0274588 0)
(0.896913 0.0269045 0)
(0.859106 0.0257325 0)
(0.816115 0.023379 0)
(0.771592 0.0193787 0)
(0.729317 0.0144534 0)
(0.691035 0.0100315 0)
(0.656349 0.00693296 0)
(0.624884 0.00494876 0)
(0.596626 0.00368344 0)
(0.571409 0.00291113 0)
(0.548838 0.00245587 0)
(0.528451 0.00217573 0)
(0.509905 0.00197933 0)
(0.492881 0.0018189 0)
(0.477194 0.00167387 0)
(0.462646 0.00153798 0)
(0.449141 0.00141076 0)
(0.43653 0.00129319 0)
(0.424758 0.00118571 0)
(0.413706 0.00108794 0)
(0.40336 0.000999641 0)
(0.393614 0.0009207 0)
(0.384462 0.000851164 0)
(0.375786 0.000790572 0)
(0.367591 0.000737823 0)
(0.359764 0.000690859 0)
(0.352337 0.000648326 0)
(0.345208 0.000609395 0)
(0.338425 0.000573982 0)
(0.331886 0.000541196 0)
(0.325659 0.000510641 0)
(0.319637 0.000481781 0)
(0.313899 0.00045518 0)
(0.308326 0.000430673 0)
(0.303007 0.000408431 0)
(0.297812 0.000387596 0)
(0.292852 0.00036823 0)
(0.28799 0.00034975 0)
(0.283352 0.000332682 0)
(0.278788 0.000316271 0)
(0.274443 0.00030107 0)
(0.270147 0.000286714 0)
(0.266064 0.000273739 0)
(0.262004 0.000261215 0)
(0.258153 0.000249836 0)
(0.254304 0.000238706 0)
(0.250669 0.000228425 0)
(0.247014 0.000218189 0)
(0.243577 0.000208996 0)
(0.240097 0.000199944 0)
(0.236839 0.000191889 0)
(0.233514 0.000183686 0)
(0.230425 0.000176245 0)
(0.227245 0.00016857 0)
(0.224316 0.0001619 0)
(0.221267 0.000155097 0)
(0.218483 0.000149331 0)
(0.215551 0.000143163 0)
(0.212904 0.000137904 0)
(0.210078 0.000132224 0)
(0.207563 0.000127508 0)
(0.204832 0.00012234 0)
(0.202439 0.000118219 0)
(0.199793 0.000113362 0)
(0.197521 0.000109428 0)
(0.194954 0.000104853 0)
(0.192799 0.000101455 0)
(0.190299 9.7312e-05 0)
(0.188257 9.42261e-05 0)
(0.185817 9.02633e-05 0)
(0.183886 8.75923e-05 0)
(0.181494 8.40506e-05 0)
(0.179671 8.1668e-05 0)
(0.177319 7.81745e-05 0)
(0.175607 7.6044e-05 0)
(0.173284 7.28263e-05 0)
(0.171685 7.09175e-05 0)
(0.169382 6.77818e-05 0)
(0.167899 6.61779e-05 0)
(0.165603 6.32818e-05 0)
(0.164238 6.19023e-05 0)
(0.161936 5.91266e-05 0)
(0.160697 5.79738e-05 0)
(0.158373 5.53092e-05 0)
(0.157269 5.43078e-05 0)
(0.154907 5.17652e-05 0)
(0.153949 5.09704e-05 0)
(0.151527 4.85839e-05 0)
(0.15073 4.79669e-05 0)
(0.148221 4.57788e-05 0)
(0.147602 4.52494e-05 0)
(0.144976 4.3328e-05 0)
(0.144557 4.28233e-05 0)
(0.141774 4.13779e-05 0)
(0.14158 4.06851e-05 0)
(0.138587 4.14499e-05 0)
(0.971377 0.0174293 0)
(0.972672 0.0254874 0)
(0.975823 0.0282383 0)
(0.977367 0.0289216 0)
(0.975529 0.0293455 0)
(0.969715 0.0292788 0)
(0.959964 0.0279632 0)
(0.946651 0.0248739 0)
(0.930671 0.020559 0)
(0.913031 0.0162999 0)
(0.894323 0.0130814 0)
(0.875 0.0109264 0)
(0.855634 0.00945262 0)
(0.836568 0.00838675 0)
(0.817956 0.00756515 0)
(0.799751 0.0068895 0)
(0.781996 0.00630379 0)
(0.76463 0.00577932 0)
(0.747725 0.00530226 0)
(0.731234 0.00486614 0)
(0.715246 0.00446867 0)
(0.699697 0.00410832 0)
(0.684674 0.00378204 0)
(0.670102 0.0034847 0)
(0.656076 0.00321313 0)
(0.642507 0.00296623 0)
(0.62949 0.0027451 0)
(0.616904 0.00254887 0)
(0.604839 0.00237522 0)
(0.593158 0.00221931 0)
(0.581968 0.00207833 0)
(0.571117 0.00194966 0)
(0.560727 0.00183264 0)
(0.550633 0.0017246 0)
(0.540978 0.00162485 0)
(0.531581 0.00153185 0)
(0.5226 0.00144684 0)
(0.513828 0.00136869 0)
(0.505438 0.0012977 0)
(0.497204 0.0012313 0)
(0.489329 0.00116979 0)
(0.481568 0.00111127 0)
(0.474153 0.00105711 0)
(0.466818 0.00100533 0)
(0.459824 0.000957485 0)
(0.452873 0.000912048 0)
(0.446263 0.000870582 0)
(0.439661 0.000830632 0)
(0.433403 0.000794058 0)
(0.427121 0.000758376 0)
(0.421194 0.000725529 0)
(0.415211 0.000693224 0)
(0.409594 0.000664095 0)
(0.403879 0.000635461 0)
(0.398541 0.000609709 0)
(0.393067 0.000583695 0)
(0.387992 0.000560164 0)
(0.38274 0.00053621 0)
(0.377912 0.000515186 0)
(0.372861 0.000493747 0)
(0.368264 0.000475201 0)
(0.363396 0.000455643 0)
(0.359019 0.000438825 0)
(0.354319 0.000420868 0)
(0.350153 0.000405797 0)
(0.345604 0.000389426 0)
(0.341636 0.000376027 0)
(0.337223 0.000360686 0)
(0.33345 0.000348248 0)
(0.32916 0.000333967 0)
(0.325576 0.000323054 0)
(0.321393 0.000309931 0)
(0.317994 0.000300059 0)
(0.313905 0.000287675 0)
(0.310687 0.000279055 0)
(0.306674 0.000267713 0)
(0.303637 0.00025999 0)
(0.299687 0.000249019 0)
(0.296832 0.00024219 0)
(0.292928 0.00023193 0)
(0.29026 0.000225875 0)
(0.286386 0.000215987 0)
(0.283909 0.000210884 0)
(0.280045 0.000201568 0)
(0.277767 0.000197232 0)
(0.27389 0.000188246 0)
(0.271822 0.000184684 0)
(0.267908 0.000175963 0)
(0.266065 0.00017306 0)
(0.262086 0.000164609 0)
(0.260489 0.00016248 0)
(0.256409 0.000154313 0)
(0.25508 0.000152924 0)
(0.250858 0.000145074 0)
(0.249828 0.000144292 0)
(0.245413 0.000136884 0)
(0.244718 0.000136634 0)
(0.240048 0.000130114 0)
(0.239726 0.000129883 0)
(0.234734 0.000128385 0)
(0.975862 0.0160143 0)
(0.976615 0.0232349 0)
(0.980397 0.0267648 0)
(0.984982 0.0279749 0)
(0.988876 0.0285659 0)
(0.991589 0.0287148 0)
(0.992951 0.0278147 0)
(0.992566 0.025403 0)
(0.990126 0.0218468 0)
(0.985534 0.0181324 0)
(0.979137 0.0151882 0)
(0.971381 0.0132232 0)
(0.962896 0.0119405 0)
(0.953967 0.0110208 0)
(0.944823 0.0102855 0)
(0.935377 0.00965066 0)
(0.925711 0.00907789 0)
(0.915704 0.00854822 0)
(0.90548 0.00805194 0)
(0.894944 0.00758341 0)
(0.884254 0.00714171 0)
(0.873315 0.00672657 0)
(0.8623 0.00633711 0)
(0.8511 0.00596873 0)
(0.839902 0.00561937 0)
(0.828579 0.00528846 0)
(0.817331 0.00497984 0)
(0.806003 0.00469442 0)
(0.794806 0.00443194 0)
(0.783566 0.00418719 0)
(0.772513 0.00395853 0)
(0.761451 0.00374332 0)
(0.750631 0.0035424 0)
(0.739834 0.00335231 0)
(0.729337 0.0031735 0)
(0.71889 0.00300399 0)
(0.708789 0.00284704 0)
(0.698742 0.00270111 0)
(0.689061 0.00256778 0)
(0.67941 0.00244273 0)
(0.670131 0.00232696 0)
(0.66085 0.00221668 0)
(0.651947 0.00211435 0)
(0.64301 0.00201612 0)
(0.634459 0.00192505 0)
(0.625838 0.00183775 0)
(0.617621 0.00175736 0)
(0.609302 0.00167936 0)
(0.601411 0.00160746 0)
(0.59339 0.00153692 0)
(0.585829 0.00147185 0)
(0.578107 0.00140785 0)
(0.570877 0.00135003 0)
(0.563439 0.00129317 0)
(0.556519 0.00124196 0)
(0.549339 0.00119027 0)
(0.542713 0.0011436 0)
(0.535772 0.00109611 0)
(0.529422 0.00105426 0)
(0.522696 0.0010114 0)
(0.516609 0.000973995 0)
(0.510084 0.000934597 0)
(0.504257 0.000900614 0)
(0.497922 0.000864344 0)
(0.49235 0.000833813 0)
(0.48619 0.000800684 0)
(0.480864 0.000773376 0)
(0.474862 0.000742355 0)
(0.46978 0.000717236 0)
(0.463919 0.000688399 0)
(0.459073 0.000666151 0)
(0.453335 0.000639431 0)
(0.448725 0.00061929 0)
(0.443096 0.000594139 0)
(0.438721 0.000576446 0)
(0.433181 0.000553166 0)
(0.429043 0.000537315 0)
(0.423574 0.000514954 0)
(0.419676 0.000500959 0)
(0.414258 0.000479886 0)
(0.410608 0.000467522 0)
(0.405218 0.000447249 0)
(0.401825 0.000436788 0)
(0.396438 0.000417518 0)
(0.393314 0.000408681 0)
(0.387901 0.000390028 0)
(0.385062 0.00038282 0)
(0.37959 0.00036462 0)
(0.37706 0.000358904 0)
(0.371491 0.000341125 0)
(0.369296 0.000337087 0)
(0.363585 0.000319695 0)
(0.361758 0.000317317 0)
(0.355849 0.000300303 0)
(0.354432 0.000299427 0)
(0.348259 0.000282969 0)
(0.347301 0.0002835 0)
(0.340785 0.000268395 0)
(0.340333 0.000269277 0)
(0.333398 0.000262336 0)
(0.979869 0.0154673 0)
(0.980255 0.0217641 0)
(0.983373 0.0256728 0)
(0.987783 0.0272124 0)
(0.992208 0.0277341 0)
(0.996125 0.0277124 0)
(0.999558 0.026833 0)
(1.00221 0.0247599 0)
(1.00376 0.0217195 0)
(1.00375 0.0184475 0)
(1.00233 0.0157369 0)
(0.999751 0.0138897 0)
(0.996643 0.0127158 0)
(0.993206 0.0119107 0)
(0.989725 0.0112785 0)
(0.986024 0.0107285 0)
(0.982217 0.0102284 0)
(0.978065 0.00976497 0)
(0.973723 0.0093317 0)
(0.968975 0.00892193 0)
(0.964025 0.00853408 0)
(0.958657 0.00816623 0)
(0.95311 0.00781784 0)
(0.947151 0.00748345 0)
(0.941038 0.00716174 0)
(0.934518 0.00685129 0)
(0.927872 0.00655729 0)
(0.920822 0.0062803 0)
(0.91368 0.00602134 0)
(0.906141 0.00577394 0)
(0.898551 0.00553754 0)
(0.890579 0.0053084 0)
(0.882609 0.00508866 0)
(0.874289 0.00487342 0)
(0.866046 0.00466466 0)
(0.857498 0.00445959 0)
(0.849113 0.00426436 0)
(0.840465 0.00407737 0)
(0.832056 0.00390331 0)
(0.8234 0.00373692 0)
(0.815037 0.0035816 0)
(0.806422 0.003432 0)
(0.798135 0.00329275 0)
(0.789572 0.00315775 0)
(0.781368 0.00303231 0)
(0.772853 0.00291046 0)
(0.764729 0.00279743 0)
(0.756264 0.00268584 0)
(0.748235 0.00258189 0)
(0.739842 0.00247788 0)
(0.73195 0.00238094 0)
(0.723676 0.00228402 0)
(0.715971 0.00219592 0)
(0.707851 0.00210839 0)
(0.700362 0.00202962 0)
(0.692406 0.00194969 0)
(0.685139 0.00187785 0)
(0.677341 0.00180435 0)
(0.670287 0.00173968 0)
(0.662624 0.00167275 0)
(0.655772 0.00161421 0)
(0.648236 0.00155182 0)
(0.641594 0.00149798 0)
(0.634187 0.00143984 0)
(0.627772 0.00139092 0)
(0.620498 0.00133744 0)
(0.614319 0.00129344 0)
(0.607172 0.00124325 0)
(0.601232 0.00120289 0)
(0.594197 0.00115616 0)
(0.588494 0.00112017 0)
(0.58155 0.00107648 0)
(0.576088 0.00104369 0)
(0.569227 0.0010024 0)
(0.564013 0.000973393 0)
(0.557218 0.000934821 0)
(0.552265 0.000908778 0)
(0.545521 0.000871791 0)
(0.540837 0.000848803 0)
(0.53412 0.000813713 0)
(0.529716 0.000793395 0)
(0.523003 0.000759566 0)
(0.518895 0.000742291 0)
(0.512159 0.000709901 0)
(0.508366 0.000695338 0)
(0.501574 0.000663876 0)
(0.49812 0.000652043 0)
(0.491235 0.000621214 0)
(0.488149 0.000611953 0)
(0.481127 0.00058166 0)
(0.478445 0.000575246 0)
(0.471232 0.000545395 0)
(0.468997 0.000541848 0)
(0.461529 0.00051238 0)
(0.459792 0.000511516 0)
(0.451994 0.000482678 0)
(0.450814 0.000484327 0)
(0.442596 0.000457415 0)
(0.442026 0.000459815 0)
(0.433305 0.000444264 0)
(0.98322 0.0152562 0)
(0.983439 0.0206848 0)
(0.986024 0.024659 0)
(0.989976 0.0264673 0)
(0.994253 0.0269788 0)
(0.998144 0.0268001 0)
(1.0017 0.0258905 0)
(1.00467 0.0240506 0)
(1.00696 0.0214029 0)
(1.00805 0.0184813 0)
(1.00809 0.0159458 0)
(1.00713 0.0141415 0)
(1.00586 0.0129835 0)
(1.00437 0.0122111 0)
(1.00307 0.0116213 0)
(1.0017 0.0111084 0)
(1.00047 0.0106389 0)
(0.999021 0.0102042 0)
(0.997619 0.009803 0)
(0.995906 0.00942861 0)
(0.994199 0.00907929 0)
(0.992136 0.00875065 0)
(0.990076 0.00844233 0)
(0.987631 0.00814739 0)
(0.985189 0.00786579 0)
(0.982325 0.00759478 0)
(0.97946 0.00734066 0)
(0.976132 0.00710229 0)
(0.972803 0.00688174 0)
(0.968974 0.00667048 0)
(0.965148 0.00646895 0)
(0.960786 0.00627113 0)
(0.956441 0.00608005 0)
(0.951541 0.005888 0)
(0.946699 0.00569802 0)
(0.941305 0.00550479 0)
(0.936034 0.00531656 0)
(0.930233 0.00513 0)
(0.924638 0.00495306 0)
(0.91853 0.00477913 0)
(0.912702 0.00461504 0)
(0.906357 0.00445385 0)
(0.900347 0.00430368 0)
(0.893796 0.00415606 0)
(0.887623 0.00401965 0)
(0.880862 0.00388551 0)
(0.874517 0.00376172 0)
(0.867533 0.00363722 0)
(0.861009 0.00352111 0)
(0.853804 0.00340143 0)
(0.847129 0.00328865 0)
(0.839748 0.00317193 0)
(0.832994 0.00306458 0)
(0.825514 0.00295472 0)
(0.818764 0.00285557 0)
(0.81125 0.00275299 0)
(0.80456 0.00266145 0)
(0.79704 0.00256656 0)
(0.790423 0.00248405 0)
(0.782887 0.00239734 0)
(0.776333 0.00232224 0)
(0.768763 0.00224031 0)
(0.762277 0.00216998 0)
(0.754677 0.00209189 0)
(0.748292 0.00202632 0)
(0.740692 0.00195293 0)
(0.734449 0.00189302 0)
(0.726874 0.00182343 0)
(0.720804 0.00176834 0)
(0.713253 0.00170336 0)
(0.707362 0.00165412 0)
(0.699816 0.00159291 0)
(0.694108 0.00154767 0)
(0.686557 0.00148918 0)
(0.68105 0.00144864 0)
(0.673489 0.00139327 0)
(0.668213 0.00135657 0)
(0.66064 0.00130327 0)
(0.655615 0.00127087 0)
(0.648011 0.00121999 0)
(0.643256 0.00119131 0)
(0.635595 0.001142 0)
(0.63113 0.00111746 0)
(0.623389 0.00106982 0)
(0.619245 0.00104909 0)
(0.611395 0.00100258 0)
(0.607605 0.000985787 0)
(0.599608 0.000940002 0)
(0.596209 0.000926976 0)
(0.588019 0.000881728 0)
(0.585054 0.000872823 0)
(0.576616 0.000827968 0)
(0.574138 0.000823275 0)
(0.565386 0.000778738 0)
(0.563454 0.000778048 0)
(0.554308 0.000734181 0)
(0.552987 0.000737194 0)
(0.543356 0.000695887 0)
(0.542708 0.000700123 0)
(0.532504 0.000673185 0)
(0.985913 0.0151226 0)
(0.986046 0.0198304 0)
(0.988238 0.0236346 0)
(0.991728 0.0256152 0)
(0.995779 0.0261845 0)
(0.999514 0.0259301 0)
(1.00299 0.0250193 0)
(1.00586 0.023373 0)
(1.00821 0.0210594 0)
(1.00951 0.0184479 0)
(1.00999 0.0160773 0)
(1.00952 0.0142999 0)
(1.00883 0.0131231 0)
(1.00789 0.0123425 0)
(1.00727 0.0117609 0)
(1.00658 0.0112575 0)
(1.00621 0.0107923 0)
(1.00565 0.010358 0)
(1.00533 0.00996007 0)
(1.00472 0.00959284 0)
(1.00432 0.00925554 0)
(1.00358 0.00894118 0)
(1.00306 0.00865014 0)
(1.00217 0.00837353 0)
(1.00151 0.00811325 0)
(1.00043 0.00786503 0)
(0.999583 0.00763684 0)
(0.998271 0.0074254 0)
(0.997183 0.00723466 0)
(0.99558 0.00705396 0)
(0.994198 0.00688558 0)
(0.992238 0.00672078 0)
(0.990499 0.00656415 0)
(0.988128 0.00640467 0)
(0.985993 0.00624686 0)
(0.983185 0.00608174 0)
(0.980656 0.00591935 0)
(0.977436 0.00575305 0)
(0.974562 0.00559377 0)
(0.970989 0.00543238 0)
(0.967833 0.00527949 0)
(0.963957 0.00512569 0)
(0.960559 0.00498332 0)
(0.956403 0.00484107 0)
(0.952774 0.00471178 0)
(0.948328 0.00458318 0)
(0.94445 0.00446743 0)
(0.939678 0.00434932 0)
(0.93551 0.00424177 0)
(0.930366 0.00412752 0)
(0.925879 0.0040206 0)
(0.920353 0.00390458 0)
(0.915577 0.00379732 0)
(0.909725 0.00368187 0)
(0.904747 0.0035773 0)
(0.898657 0.00346458 0)
(0.893567 0.00336475 0)
(0.887302 0.00325833 0)
(0.882147 0.00316782 0)
(0.875718 0.00307055 0)
(0.870494 0.00298892 0)
(0.863873 0.00289703 0)
(0.858561 0.0028202 0)
(0.851722 0.00273085 0)
(0.846334 0.00265686 0)
(0.839303 0.00256983 0)
(0.833898 0.00249978 0)
(0.82673 0.00241495 0)
(0.821377 0.00234937 0)
(0.814105 0.0022694 0)
(0.808837 0.00221089 0)
(0.801451 0.00213538 0)
(0.796267 0.0020816 0)
(0.788745 0.00200862 0)
(0.783656 0.00195967 0)
(0.775994 0.00188915 0)
(0.771043 0.00184391 0)
(0.763259 0.00177508 0)
(0.758494 0.00173495 0)
(0.750587 0.00166878 0)
(0.746036 0.00163332 0)
(0.737981 0.00156884 0)
(0.733664 0.00153838 0)
(0.725435 0.00147532 0)
(0.721391 0.00144938 0)
(0.712971 0.00138726 0)
(0.709248 0.00136626 0)
(0.700608 0.00130477 0)
(0.69725 0.0012887 0)
(0.688346 0.00122757 0)
(0.6854 0.00121676 0)
(0.67618 0.00115575 0)
(0.673706 0.00115038 0)
(0.664111 0.00108949 0)
(0.662175 0.00108939 0)
(0.65213 0.00102916 0)
(0.6508 0.00103385 0)
(0.640218 0.000976799 0)
(0.639558 0.000983149 0)
(0.628357 0.000943088 0)
(0.988011 0.0150327 0)
(0.988082 0.0191439 0)
(0.989975 0.0226443 0)
(0.993027 0.0246807 0)
(0.996826 0.0253323 0)
(1.00037 0.025075 0)
(1.00377 0.0241913 0)
(1.00652 0.022702 0)
(1.00887 0.0206646 0)
(1.01021 0.0183327 0)
(1.01093 0.0161345 0)
(1.01067 0.0144009 0)
(1.01027 0.0132069 0)
(1.00951 0.0124071 0)
(1.00913 0.011823 0)
(1.00861 0.0113232 0)
(1.00852 0.0108583 0)
(1.00819 0.0104178 0)
(1.00822 0.0100138 0)
(1.00791 0.00964231 0)
(1.00796 0.00930508 0)
(1.00761 0.00899235 0)
(1.00763 0.00870596 0)
(1.00723 0.00843429 0)
(1.00724 0.00818137 0)
(1.00678 0.00794081 0)
(1.00674 0.00772305 0)
(1.00619 0.00752234 0)
(1.00609 0.00734553 0)
(1.00542 0.00717965 0)
(1.00521 0.00702985 0)
(1.00436 0.0068844 0)
(1.00398 0.0067505 0)
(1.0029 0.00661354 0)
(1.00231 0.00648047 0)
(1.00096 0.00633811 0)
(1.00013 0.00619883 0)
(0.998491 0.00605175 0)
(0.997441 0.0059111 0)
(0.995545 0.00576419 0)
(0.994306 0.00562579 0)
(0.992179 0.00548296 0)
(0.990774 0.00535273 0)
(0.988427 0.00522007 0)
(0.986861 0.00510265 0)
(0.984281 0.00498424 0)
(0.982536 0.00488212 0)
(0.979687 0.00477668 0)
(0.977711 0.00468589 0)
(0.974522 0.00458694 0)
(0.972248 0.00449817 0)
(0.968653 0.00439639 0)
(0.966049 0.00430398 0)
(0.962048 0.00419723 0)
(0.959158 0.00410118 0)
(0.954817 0.00399073 0)
(0.951727 0.00389417 0)
(0.947116 0.00378612 0)
(0.94389 0.003697 0)
(0.939039 0.00359767 0)
(0.935692 0.00351872 0)
(0.930576 0.00342641 0)
(0.927068 0.00335401 0)
(0.921624 0.00326451 0)
(0.91792 0.00319367 0)
(0.912129 0.00310342 0)
(0.90826 0.00303303 0)
(0.902171 0.00294089 0)
(0.898224 0.00287204 0)
(0.891902 0.00278283 0)
(0.887942 0.00272101 0)
(0.881405 0.00263677 0)
(0.877442 0.00258089 0)
(0.87065 0.00249944 0)
(0.866669 0.00244849 0)
(0.859595 0.00236814 0)
(0.855624 0.00231949 0)
(0.848291 0.00223885 0)
(0.844399 0.00219474 0)
(0.836836 0.00211618 0)
(0.833076 0.0020774 0)
(0.825269 0.00200062 0)
(0.821657 0.00196764 0)
(0.813569 0.00189171 0)
(0.810133 0.00186331 0)
(0.80175 0.00178733 0)
(0.798551 0.00176419 0)
(0.789866 0.00168832 0)
(0.786961 0.00167102 0)
(0.777937 0.00159523 0)
(0.77537 0.00158407 0)
(0.765959 0.00150785 0)
(0.763786 0.00150289 0)
(0.753943 0.00142635 0)
(0.752236 0.00142757 0)
(0.741902 0.00135163 0)
(0.740727 0.00135843 0)
(0.729827 0.00128627 0)
(0.729241 0.00129487 0)
(0.717709 0.00124184 0)
(0.989636 0.0149438 0)
(0.989642 0.0185531 0)
(0.991303 0.0217067 0)
(0.993945 0.0237073 0)
(0.997478 0.0244357 0)
(1.00081 0.0242273 0)
(1.00413 0.0233951 0)
(1.00675 0.0220367 0)
(1.00911 0.0202258 0)
(1.01045 0.0181445 0)
(1.01135 0.016124 0)
(1.01124 0.0144577 0)
(1.01107 0.0132602 0)
(1.01041 0.0124407 0)
(1.0102 0.0118494 0)
(1.00972 0.0113526 0)
(1.00977 0.0108916 0)
(1.00947 0.0104474 0)
(1.00967 0.0100371 0)
(1.00941 0.00965872 0)
(1.00963 0.00931827 0)
(1.00934 0.00900305 0)
(1.00958 0.00871718 0)
(1.00926 0.00844554 0)
(1.00951 0.0081945 0)
(1.00918 0.00795465 0)
(1.00944 0.00773977 0)
(1.00907 0.0075411 0)
(1.00934 0.00736895 0)
(1.00892 0.00720756 0)
(1.00917 0.00706575 0)
(1.00868 0.00692836 0)
(1.00889 0.00680611 0)
(1.00828 0.00668044 0)
(1.00842 0.00656168 0)
(1.00766 0.00643212 0)
(1.00769 0.00630732 0)
(1.00676 0.00617164 0)
(1.00669 0.00604324 0)
(1.00562 0.00590516 0)
(1.00546 0.00577681 0)
(1.00425 0.00564091 0)
(1.00403 0.00551949 0)
(1.00268 0.005393 0)
(1.00239 0.00528432 0)
(1.0009 0.00517255 0)
(1.00054 0.00508074 0)
(0.998884 0.00498452 0)
(0.998418 0.00490795 0)
(0.996533 0.00482261 0)
(0.995889 0.00475236 0)
(0.993695 0.00466682 0)
(0.992808 0.00459335 0)
(0.99026 0.00450049 0)
(0.989132 0.0044192 0)
(0.986257 0.00431727 0)
(0.984943 0.00423035 0)
(0.981796 0.00412627 0)
(0.980355 0.00404372 0)
(0.976973 0.00394657 0)
(0.975434 0.00387455 0)
(0.971806 0.00378627 0)
(0.970136 0.00372406 0)
(0.966187 0.00364139 0)
(0.964312 0.0035822 0)
(0.959971 0.00349769 0)
(0.957873 0.00343626 0)
(0.953149 0.00334536 0)
(0.95089 0.00328094 0)
(0.945848 0.00318879 0)
(0.943515 0.00312923 0)
(0.938204 0.00304139 0)
(0.935827 0.00298907 0)
(0.930214 0.00290539 0)
(0.927757 0.00285942 0)
(0.921777 0.0027764 0)
(0.919226 0.00273129 0)
(0.912872 0.00264494 0)
(0.910288 0.00260199 0)
(0.90361 0.0025155 0)
(0.901073 0.0024775 0)
(0.894085 0.00239277 0)
(0.891614 0.00236172 0)
(0.884269 0.00227774 0)
(0.881865 0.00225117 0)
(0.874131 0.00216552 0)
(0.871845 0.00214338 0)
(0.863734 0.00205646 0)
(0.861641 0.0020404 0)
(0.85314 0.00195331 0)
(0.851276 0.00194413 0)
(0.842336 0.00185607 0)
(0.840739 0.0018532 0)
(0.831325 0.00176396 0)
(0.830066 0.00176744 0)
(0.820147 0.00167875 0)
(0.819284 0.0016881 0)
(0.808805 0.00160394 0)
(0.808375 0.0016147 0)
(0.797291 0.00155123 0)
(0.990936 0.0148385 0)
(0.990866 0.018031 0)
(0.992338 0.0208466 0)
(0.994603 0.0227456 0)
(0.997867 0.0235271 0)
(1.00095 0.0233932 0)
(1.00419 0.0226338 0)
(1.00667 0.0213947 0)
(1.00904 0.0197729 0)
(1.01035 0.0179121 0)
(1.0114 0.0160657 0)
(1.01139 0.0144838 0)
(1.01144 0.0132983 0)
(1.01086 0.0124621 0)
(1.01079 0.0118602 0)
(1.01031 0.0113643 0)
(1.01047 0.0109104 0)
(1.01016 0.0104665 0)
(1.01047 0.010052 0)
(1.01019 0.00966646 0)
(1.01053 0.00932216 0)
(1.01022 0.00900337 0)
(1.01057 0.00871713 0)
(1.01024 0.00844443 0)
(1.0106 0.00819429 0)
(1.01024 0.00795337 0)
(1.01064 0.00773927 0)
(1.01025 0.00753968 0)
(1.01067 0.00736875 0)
(1.01026 0.00720725 0)
(1.01071 0.00706837 0)
(1.01026 0.00693301 0)
(1.01072 0.00681601 0)
(1.01022 0.00669458 0)
(1.01066 0.00658318 0)
(1.01008 0.00645927 0)
(1.0105 0.00634239 0)
(1.00982 0.00621179 0)
(1.01021 0.00609012 0)
(1.00944 0.00595566 0)
(1.00982 0.00583286 0)
(1.00897 0.00569951 0)
(1.00935 0.00558296 0)
(1.00841 0.0054585 0)
(1.00879 0.00535449 0)
(1.00777 0.00524472 0)
(1.00815 0.00515831 0)
(1.00705 0.00506564 0)
(1.00741 0.00499739 0)
(1.00618 0.00491954 0)
(1.00649 0.00486228 0)
(1.00506 0.00478825 0)
(1.00525 0.00473041 0)
(1.00357 0.00464934 0)
(1.00361 0.00458202 0)
(1.00168 0.00448862 0)
(1.00161 0.00441202 0)
(0.99946 0.00431278 0)
(0.999313 0.0042376 0)
(0.996976 0.00414296 0)
(0.996788 0.00407764 0)
(0.994269 0.00399293 0)
(0.994027 0.00394069 0)
(0.991265 0.00386572 0)
(0.990892 0.00382034 0)
(0.987794 0.00374521 0)
(0.987233 0.00369728 0)
(0.983766 0.00361302 0)
(0.983037 0.00355814 0)
(0.97924 0.0034678 0)
(0.978421 0.00341398 0)
(0.974357 0.00332569 0)
(0.973503 0.00327955 0)
(0.96916 0.00319722 0)
(0.968233 0.00316025 0)
(0.96353 0.00308022 0)
(0.962472 0.00304436 0)
(0.957356 0.00295873 0)
(0.956188 0.00292193 0)
(0.950701 0.00283246 0)
(0.949512 0.00279852 0)
(0.943698 0.00271 0)
(0.942527 0.00268421 0)
(0.936347 0.00259745 0)
(0.935163 0.00257696 0)
(0.928554 0.00248741 0)
(0.92737 0.00246975 0)
(0.920342 0.00237655 0)
(0.919238 0.00236391 0)
(0.911813 0.00227008 0)
(0.910829 0.00226503 0)
(0.902962 0.00217036 0)
(0.902101 0.00217146 0)
(0.893753 0.00207457 0)
(0.893067 0.00208104 0)
(0.884238 0.0019845 0)
(0.883781 0.00199647 0)
(0.874443 0.00190565 0)
(0.87422 0.00191824 0)
(0.864343 0.00184908 0)
(0.992037 0.0147047 0)
(0.99188 0.0175419 0)
(0.993189 0.0200414 0)
(0.995112 0.0217962 0)
(0.998114 0.0226033 0)
(1.00093 0.022554 0)
(1.00407 0.0218891 0)
(1.00641 0.0207703 0)
(1.00877 0.0193141 0)
(1.01004 0.017646 0)
(1.0112 0.0159654 0)
(1.01127 0.0144779 0)
(1.0115 0.0133201 0)
(1.01098 0.0124744 0)
(1.01103 0.0118607 0)
(1.01056 0.0113625 0)
(1.0108 0.0109162 0)
(1.01048 0.0104763 0)
(1.01086 0.0100611 0)
(1.01057 0.00966995 0)
(1.01099 0.00932271 0)
(1.01065 0.00900106 0)
(1.01108 0.00871516 0)
(1.01071 0.00844195 0)
(1.01115 0.0081935 0)
(1.01075 0.00795186 0)
(1.01122 0.00773845 0)
(1.01079 0.00753721 0)
(1.01129 0.0073664 0)
(1.01084 0.00720289 0)
(1.01137 0.00706459 0)
(1.0109 0.00692827 0)
(1.01147 0.00681318 0)
(1.01096 0.00669219 0)
(1.01155 0.00658431 0)
(1.01099 0.00646216 0)
(1.01159 0.00634958 0)
(1.01097 0.00622067 0)
(1.01159 0.0061028 0)
(1.0109 0.00596926 0)
(1.01153 0.00584962 0)
(1.01079 0.00571655 0)
(1.01144 0.00560273 0)
(1.01064 0.00547815 0)
(1.01132 0.00537654 0)
(1.01046 0.00526619 0)
(1.01117 0.00518211 0)
(1.01025 0.00508927 0)
(1.01101 0.00502477 0)
(1.01002 0.00494919 0)
(1.01078 0.00489914 0)
(1.00968 0.00483092 0)
(1.01042 0.00478323 0)
(1.00916 0.00470938 0)
(1.00984 0.00465212 0)
(1.00841 0.00456444 0)
(1.00905 0.00449583 0)
(1.00746 0.0043999 0)
(1.00808 0.00433056 0)
(1.00636 0.00423715 0)
(1.00698 0.00417643 0)
(1.00514 0.00409294 0)
(1.00578 0.00404741 0)
(1.00378 0.00397741 0)
(1.00437 0.00394321 0)
(1.00214 0.00387636 0)
(1.00263 0.00384126 0)
(1.00011 0.00376475 0)
(1.00047 0.00372058 0)
(0.997666 0.00363419 0)
(0.99796 0.00358704 0)
(0.994933 0.0034995 0)
(0.995217 0.0034592 0)
(0.991977 0.00337886 0)
(0.992234 0.00335086 0)
(0.98871 0.00327606 0)
(0.988863 0.0032515 0)
(0.984972 0.00317096 0)
(0.984996 0.00314324 0)
(0.980749 0.00305504 0)
(0.980713 0.00302675 0)
(0.976172 0.00293747 0)
(0.976134 0.00291776 0)
(0.971285 0.00283198 0)
(0.971205 0.00281971 0)
(0.965964 0.00273174 0)
(0.965805 0.00272114 0)
(0.960156 0.00262691 0)
(0.959976 0.00261881 0)
(0.953971 0.0025228 0)
(0.953824 0.00252257 0)
(0.947439 0.00242686 0)
(0.947296 0.00243316 0)
(0.940472 0.00233478 0)
(0.940345 0.00234445 0)
(0.933102 0.00224587 0)
(0.933038 0.00225971 0)
(0.925385 0.00216855 0)
(0.92537 0.00218243 0)
(0.91727 0.00211349 0)
(0.993006 0.0145879 0)
(0.992759 0.0170897 0)
(0.993917 0.0192831 0)
(0.995541 0.0208611 0)
(0.998297 0.0216581 0)
(1.00085 0.0216861 0)
(1.00386 0.0211263 0)
(1.00607 0.0201294 0)
(1.0084 0.0188233 0)
(1.00963 0.0173232 0)
(1.01087 0.0157979 0)
(1.01099 0.0144098 0)
(1.01136 0.0132933 0)
(1.0109 0.0124485 0)
(1.01107 0.0118256 0)
(1.0106 0.0113233 0)
(1.0109 0.0108851 0)
(1.01056 0.0104542 0)
(1.011 0.0100446 0)
(1.01069 0.00965231 0)
(1.01117 0.00930483 0)
(1.01082 0.00898232 0)
(1.0113 0.00869828 0)
(1.0109 0.00842584 0)
(1.0114 0.00818052 0)
(1.01097 0.00793982 0)
(1.01148 0.00772845 0)
(1.01102 0.00752671 0)
(1.01156 0.00735694 0)
(1.01108 0.007192 0)
(1.01166 0.00705419 0)
(1.01116 0.00691651 0)
(1.01178 0.00680242 0)
(1.01125 0.00668069 0)
(1.01192 0.00657481 0)
(1.01135 0.00645295 0)
(1.01204 0.00634316 0)
(1.01144 0.00621482 0)
(1.01215 0.00609969 0)
(1.0115 0.00596644 0)
(1.01223 0.0058493 0)
(1.01153 0.00571616 0)
(1.01229 0.00560458 0)
(1.01153 0.00547961 0)
(1.01233 0.00537984 0)
(1.01152 0.00526847 0)
(1.01235 0.00518567 0)
(1.0115 0.00509145 0)
(1.01238 0.00502847 0)
(1.01148 0.00495249 0)
(1.0124 0.00490583 0)
(1.01144 0.00483948 0)
(1.01238 0.00479738 0)
(1.01132 0.00472689 0)
(1.01227 0.00467578 0)
(1.0111 0.00459105 0)
(1.01205 0.00452767 0)
(1.01078 0.00443342 0)
(1.01174 0.00436804 0)
(1.01037 0.00427484 0)
(1.01136 0.00421678 0)
(1.00991 0.00413279 0)
(1.01095 0.00409064 0)
(1.0094 0.00402252 0)
(1.01046 0.00399529 0)
(1.00877 0.00393371 0)
(1.00979 0.00390788 0)
(1.00791 0.0038375 0)
(1.00886 0.00380211 0)
(1.00678 0.00371981 0)
(1.0077 0.00367828 0)
(1.00545 0.00359167 0)
(1.00638 0.00355533 0)
(1.00399 0.00347624 0)
(1.00493 0.00345451 0)
(1.00235 0.00338443 0)
(1.00325 0.00336954 0)
(1.0004 0.00329555 0)
(1.00119 0.00327692 0)
(0.998056 0.00319263 0)
(0.998772 0.00316978 0)
(0.995411 0.00308159 0)
(0.99612 0.00306652 0)
(0.992545 0.00298341 0)
(0.993219 0.00297856 0)
(0.989348 0.00289571 0)
(0.989913 0.00289273 0)
(0.985705 0.00280199 0)
(0.986182 0.00279821 0)
(0.981692 0.00270371 0)
(0.982143 0.00270714 0)
(0.977379 0.00261466 0)
(0.977768 0.00262588 0)
(0.972657 0.00253176 0)
(0.972943 0.00254411 0)
(0.967501 0.002449 0)
(0.967722 0.00246308 0)
(0.961993 0.00237701 0)
(0.962135 0.0023914 0)
(0.95607 0.00232824 0)
(0.993895 0.0146562 0)
(0.99356 0.0168235 0)
(0.994574 0.0187124 0)
(0.995945 0.0200886 0)
(0.998471 0.0208352 0)
(1.00079 0.0209161 0)
(1.00365 0.0204531 0)
(1.00573 0.0195695 0)
(1.00801 0.0183938 0)
(1.0092 0.0170331 0)
(1.01049 0.015641 0)
(1.01066 0.0143448 0)
(1.01114 0.0132716 0)
(1.01074 0.0124313 0)
(1.01098 0.0117991 0)
(1.01053 0.0112883 0)
(1.01087 0.0108538 0)
(1.01053 0.0104318 0)
(1.011 0.0100297 0)
(1.01069 0.00963687 0)
(1.0112 0.00928737 0)
(1.01085 0.00896194 0)
(1.01135 0.00867786 0)
(1.01096 0.00840484 0)
(1.01147 0.00816163 0)
(1.01103 0.00792191 0)
(1.01157 0.00771264 0)
(1.0111 0.00751064 0)
(1.01166 0.00734184 0)
(1.01117 0.00717572 0)
(1.01176 0.00703807 0)
(1.01126 0.00689886 0)