/*--------------------------------*- C++ -*----------------------------------*\
| =========                 |                                                 |
| \\      /  F ield         | OpenFOAM: The Open Source CFD Toolbox           |
|  \\    /   O peration     | Version:  5.x                                   |
|   \\  /    A nd           | Web:      www.OpenFOAM.org                      |
|    \\/     M anipulation  |                                                 |
\*---------------------------------------------------------------------------*/
FoamFile
{
    version     2.0;
    format      ascii;
    class       volScalarField;
    location    "0.5";
    object      p;
}
// * * * * * * * * * * * * * * * * * * * * * * * * * * * * * * * * * * * * * //

dimensions      [0 2 -2 0 0 0 0];

internalField   nonuniform List<scalar> 
21600
(
0.018378125
0.015921839
0.0125687
0.0097884639
0.0075943872
0.0056612343
0.0038385215
0.0021970237
0.00090852302
9.526618e-05
-0.00025593556
-0.00026417511
-7.810541e-05
0.00018143657
0.00043770442
0.00065165941
0.00081130474
0.00092077646
0.00099114362
0.0010343279
0.0010602966
0.0010763249
0.0010872073
0.0010957999
0.0011036018
0.0011112537
0.0011189087
0.0011264819
0.0011338039
0.0011407043
0.0011470489
0.0011527494
0.0011577609
0.0011620744
0.0011657065
0.0011686912
0.0011710722
0.0011728978
0.001174216
0.0011750729
0.0011755104
0.001175566
0.0011752723
0.0011746579
0.0011737467
0.0011725596
0.001171114
0.0011694255
0.0011675074
0.0011653718
0.0011630293
0.0011604899
0.0011577624
0.0011548553
0.001151776
0.0011485319
0.0011451296
0.0011415758
0.0011378762
0.0011340365
0.0011300616
0.0011259565
0.0011217254
0.001117373
0.0011129027
0.0011083188
0.0011036241
0.0010988221
0.0010939154
0.0010889073
0.0010837999
0.0010785962
0.0010732976
0.0010679069
0.0010624253
0.0010568555
0.0010511982
0.0010454562
0.0010396296
0.001033721
0.0010277305
0.0010216607
0.0010155111
0.0010092841
0.0010029792
0.00099659872
0.00099014185
0.00098361108
0.00097700502
0.00097032622
0.00096357299
0.00095674804
0.00094984936
0.00094287982
0.00093583709
0.00092872408
0.00092153805
0.00091428211
0.0009069531
0.00089955437
0.00089208252
0.00088454109
0.00087692607
0.00086924159
0.00086148301
0.00085365452
0.00084575148
0.00083777841
0.00082972956
0.00082161067
0.00081341499
0.0008051483
0.00079680423
0.00078838856
0.00077989388
0.00077132768
0.00076268069
0.00075396135
0.00074516021
0.0007362856
0.00072732802
0.00071829619
0.00070917976
0.00069998835
0.00069071058
0.00068135729
0.00067191577
0.00066239823
0.00065279081
0.00064310656
0.0006333311
0.000623478
0.0006135325
0.00060350853
0.00059339106
0.00058319467
0.00057290373
0.00056253385
0.00055206843
0.0005415244
0.0005308841
0.00052016603
0.00050935144
0.00049846014
0.000487473
0.0004764104
0.00046525355
0.00045402319
0.00044270111
0.00043130814
0.00041982744
0.00040827929
0.00039664883
0.00038495539
0.00037318704
0.00036136095
0.0003494702
0.00033752807
0.00032553424
0.00031349721
0.00030142455
0.00028931849
0.00027719714
0.00026505357
0.00025292003
0.00024077706
0.00022867521
0.00021657851
0.00020456058
0.00019256466
0.00018069219
0.00016886136
0.00015720607
0.00014561504
0.00013426041
0.00012299468
0.00011203639
0.00010119296
9.0738591e-05
8.0426069e-05
7.0595009e-05
6.0932713e-05
5.1856687e-05
4.2974975e-05
3.4799044e-05
2.6840058e-05
1.9723891e-05
1.2841433e-05
6.9590921e-06
1.3175794e-06
-3.1422189e-06
-7.3674006e-06
-1.0192481e-05
-1.2806159e-05
-1.3739318e-05
-1.4507879e-05
-1.3204911e-05
-1.1842633e-05
-7.7797112e-06
-4.0485259e-06
0.015854126
0.014532147
0.012078615
0.0095997729
0.0074792377
0.0056317863
0.0039309624
0.0024039934
0.0011845123
0.00037770713
-7.6738259e-06
-6.1796749e-05
8.0962041e-05
0.00030298183
0.00052928473
0.00072061055
0.00086433053
0.00096320379
0.0010266402
0.0010652029
0.0010879303
0.0011015139
0.0011104067
0.0011172813
0.0011235484
0.0011298108
0.0011362049
0.0011426353
0.0011489237
0.0011548907
0.0011603912
0.0011653269
0.001169643
0.0011733217
0.0011763718
0.001178821
0.0011807073
0.0011820743
0.0011829662
0.0011834258
0.0011834921
0.0011832003
0.001182581
0.0011816608
0.001180462
0.0011790042
0.0011773034
0.0011753741
0.0011732284
0.0011708775
0.0011683312
0.0011655987
0.0011626879
0.0011596067
0.001156362
0.0011529605
0.0011494084
0.0011457117
0.0011418759
0.0011379063
0.0011338072
0.0011295834
0.0011252388
0.0011207777
0.0011162034
0.0011115197
0.0011067294
0.0011018356
0.0010968408
0.0010917481
0.0010865594
0.0010812775
0.0010759037
0.0010704406
0.0010648892
0.0010592523
0.0010535303
0.0010477258
0.001041839
0.0010358723
0.0010298258
0.0010237018
0.0010174998
0.0010112223
0.0010048684
0.00099844062
0.00099193798
0.0009853629
0.00097871395
0.00097199358
0.0009652001
0.00095833611
0.00095139963
0.0009443934
0.00093731512
0.00093016757
0.00092294806
0.00091565958
0.00090829901
0.00090086957
0.00089336794
0.00088579753
0.00087815438
0.00087044249
0.00086265733
0.00085480291
0.00084687469
0.00083887708
0.00083080438
0.0008226622
0.00081444394
0.00080615514
0.00079778964
0.00078935299
0.00078083794
0.0007722518
0.00076358547
0.00075484713
0.0007460276
0.0007371349
0.0007281598
0.00071911073
0.00070997762
0.00070076976
0.00069147607
0.00068210708
0.00067265037
0.00066311781
0.00065349589
0.00064379725
0.00063400794
0.00062414105
0.00061418231
0.00060414509
0.00059401494
0.00058380584
0.00057350275
0.00056312064
0.00055264355
0.00054208775
0.00053143624
0.00052070681
0.00050988145
0.00049897916
0.00048798166
0.00047690843
0.00046574159
0.00045450091
0.0004431692
0.0004317662
0.00042027619
0.00040871828
0.00039707881
0.00038537583
0.00037359875
0.00036176333
0.00034986411
0.00033791283
0.00032591077
0.00031386473
0.00030178406
0.00028966913
0.00027753997
0.00026538764
0.00025324646
0.00024109482
0.00022898552
0.00021688021
0.000204855
0.00019285054
0.00018097091
0.00016913161
0.00015746931
0.00014586985
0.00013450835
0.00012323425
0.00011226925
0.00010141751
9.0956593e-05
8.0635833e-05
7.079844e-05
6.1128006e-05
5.2045891e-05
4.3156176e-05
3.4974458e-05
2.7007637e-05
1.9886064e-05
1.2996005e-05
7.1087319e-06
1.45995e-06
-3.0041758e-06
-7.2361763e-06
-1.0064816e-05
-1.2684721e-05
-1.3620453e-05
-1.4394464e-05
-1.3092642e-05
-1.1735056e-05
-7.6704568e-06
-3.9435994e-06
0.0141847
0.01340511
0.011626672
0.0094838598
0.0074685348
0.0057013177
0.0041339454
0.0027553933
0.0016296277
0.00083137853
0.00038526077
0.0002422458
0.00030240762
0.00046019583
0.00063761298
0.00079490517
0.00091749274
0.001004574
0.0010618677
0.0010971925
0.0011179473
0.0011299829
0.001137378
0.0011426782
0.0011472891
0.0011518604
0.0011565882
0.0011614278
0.0011662355
0.0011708493
0.0011751281
0.0011789686
0.0011823064
0.0011851119
0.0011873819
0.0011891323
0.0011903904
0.0011911903
0.001191568
0.0011915593
0.0011911973
0.0011905123
0.0011895307
0.0011882755
0.0011867663
0.0011850198
0.0011830502
0.0011808698
0.0011784894
0.0011759187
0.0011731661
0.0011702396
0.0011671464
0.0011638932
0.0011604861
0.0011569312
0.0011532339
0.0011493998
0.0011454336
0.0011413402
0.0011371235
0.0011327878
0.0011283366
0.0011237739
0.0011191027
0.0011143266
0.0011094479
0.0011044697
0.001099394
0.001094224
0.0010889611
0.0010836081
0.001078166
0.0010726374
0.0010670232
0.0010613258
0.0010555457
0.0010496853
0.0010437446
0.0010377261
0.0010316296
0.0010254575
0.0010192091
0.0010128867
0.0010064896
0.00100002
0.00099347706
0.00098686299
0.00098017633
0.0009734195
0.00096659074
0.00095969262
0.00095272307
0.00094568484
0.00093857553
0.00093139793
0.00092414926
0.00091683252
0.00090944453
0.0009019885
0.00089446104
0.00088686557
0.00087919806
0.00087146254
0.0008636544
0.00085577764
0.00084782769
0.00083980899
0.00083171573
0.00082355357
0.00081531587
0.00080700814
0.00079862419
0.00079016962
0.00078163707
0.0007730339
0.00076435097
0.00075559644
0.00074676113
0.00073785304
0.00072886294
0.00071979922
0.00071065182
0.00070143
0.00069212269
0.00068274039
0.00067327071
0.00066372542
0.00065409111
0.00064438032
0.00063457918
0.00062470064
0.00061473059
0.00060468222
0.00059454124
0.00058432143
0.00057400795
0.00056361556
0.00055312852
0.00054256282
0.00053190174
0.00052116278
0.00051032823
0.00049941673
0.00048841037
0.00047732823
0.00046615287
0.00045490355
0.0004435636
0.00043215219
0.00042065423
0.00040908814
0.00039744098
0.00038572998
0.00037394546
0.00036210217
0.00035019574
0.00033823673
0.00032622765
0.00031417399
0.0003020865
0.00028996402
0.00027782824
0.0002656684
0.00025352078
0.00024136166
0.00022924608
0.0002171333
0.00020510196
0.00019309002
0.00018120442
0.00016935762
0.0001576895
0.00014608252
0.00013471536
0.00012343369
0.00011246321
0.00010160387
9.1137675e-05
8.0809277e-05
7.0966846e-05
6.1288749e-05
5.2201875e-05
4.3304486e-05
3.5118352e-05
2.7143845e-05
2.001829e-05
1.3120566e-05
7.2298363e-06
1.5734509e-06
-2.8934827e-06
-7.1330029e-06
-9.9636641e-06
-1.2591005e-05
-1.3527806e-05
-1.4309179e-05
-1.3007136e-05
-1.1656924e-05
-7.5910327e-06
-3.8721116e-06
0.013017841
0.012447781
0.011113789
0.0093098227
0.0074640039
0.0058013561
0.0043541326
0.0031068544
0.002076688
0.0013069598
0.00082388163
0.00060513623
0.0005820081
0.00066830168
0.000792205
0.00091145592
0.0010077973
0.0010772098
0.0011227262
0.0011500712
0.001165162
0.0011728819
0.0011767177
0.0011788794
0.0011806051
0.001182475
0.0011846728
0.0011871725
0.0011898472
0.0011925386
0.0011950978
0.0011974054
0.0011993778
0.0012009652
0.0012021453
0.0012029164
0.0012032908
0.0012032895
0.0012029373
0.001202261
0.0012012861
0.0012000366
0.0011985338
0.0011967963
0.0011948399
0.0011926783
0.0011903227
0.0011877831
0.001185068
0.0011821851
0.001179141
0.0011759421
0.001172594
0.001169102
0.001165471
0.0011617058
0.0011578109
0.0011537908
0.0011496493
0.0011453905
0.0011410177
0.0011365344
0.0011319436
0.0011272486
0.001122452
0.0011175568
0.001112565
0.0011074793
0.0011023013
0.0010970338
0.0010916781
0.0010862365
0.0010807098
0.0010751005
0.001069409
0.0010636378
0.001057787
0.0010518588
0.0010458532
0.0010397725
0.0010336162
0.0010273867
0.0010210832
0.0010147079
0.0010082599
0.0010017414
0.00099515118
0.00098849168
0.00098176121
0.00097496219
0.0009680927
0.00096115532
0.00095414785
0.00094707302
0.00093992834
0.00093271657
0.00092543483
0.00091808613
0.00091066721
0.00090318125
0.00089562479
0.00088800128
0.00088030656
0.00087254468
0.00086471099
0.00085680946
0.00084883545
0.00084079345
0.00083267753
0.00082449338
0.00081623433
0.00080790586
0.00079950172
0.0007910276
0.00078247596
0.00077385427
0.00076515331
0.00075638124
0.00074752885
0.00073860415
0.00072959785
0.00072051836
0.00071135559
0.0007021188
0.00069279689
0.00068340035
0.0006739168
0.00066435795
0.00065471044
0.00064498673
0.00063517301
0.00062528214
0.00061530009
0.00060523994
0.00059508749
0.00058485643
0.00057453199
0.00056412881
0.00055363128
0.00054305524
0.00053238411
0.0005216352
0.00051079102
0.00049986993
0.00048885432
0.00047776293
0.00046657866
0.0004553204
0.00044397188
0.0004325518
0.00042104557
0.00040947104
0.00039781589
0.00038609664
0.00037430442
0.00036245305
0.00035053914
0.0003385722
0.00032655587
0.0003144944
0.00030239986
0.00029026965
0.000278127
0.00026595947
0.00025380519
0.00024163839
0.00022951631
0.00021739585
0.00020535816
0.00019333853
0.00018144671
0.00016959219
0.00015791797
0.00014630323
0.0001349301
0.00012364062
0.00011266431
0.0001017971
9.1325234e-05
8.0988905e-05
7.1140994e-05
6.1454919e-05
5.2362778e-05
4.3457372e-05
3.5266236e-05
2.7283663e-05
2.0153451e-05
1.3247637e-05
7.3526567e-06
1.6881884e-06
-2.782513e-06
-7.0301221e-06
-9.8640114e-06
-1.24995e-05
-1.3438973e-05
-1.4228638e-05
-1.2928636e-05
-1.1586738e-05
-7.5249995e-06
-3.8138383e-06
0.012084365
0.011597498
0.010543925
0.0090522179
0.0074206004
0.0058912061
0.0045549031
0.0034155534
0.0024706003
0.0017384929
0.0012394238
0.00096587121
0.00087291051
0.00089427009
0.000967407
0.0010496311
0.0011193359
0.0011695919
0.0012013599
0.0012188069
0.0012266265
0.0012287717
0.0012280696
0.0012263032
0.0012244647
0.001223018
0.0012221096
0.0012217125
0.0012217095
0.0012219478
0.0012222752
0.0012225615
0.0012227073
0.0012226449
0.0012223337
0.0012217548
0.0012209043
0.0012197883
0.001218419
0.0012168116
0.001214982
0.0012129458
0.001210717
0.0012083081
0.0012057294
0.0012029902
0.0012000975
0.0011970578
0.0011938763
0.001190558
0.0011871069
0.0011835273
0.0011798225
0.0011759962
0.0011720514
0.0011679914
0.0011638193
0.0011595383
0.001155151
0.0011506605
0.001146069
0.0011413791
0.001136593
0.0011317134
0.001126742
0.0011216812
0.0011165323
0.0011112977
0.0011059783
0.0011005764
0.0010950929
0.0010895298
0.0010838874
0.0010781679
0.0010723714
0.0010665
0.0010605537
0.0010545343
0.0010484415
0.0010422774
0.0010360414
0.0010297357
0.0010233591
0.0010169138
0.0010103986
0.0010038158
0.00099716384
0.00099044506
0.00098365764
0.00097680389
0.00096988179
0.00096289381
0.00095583766
0.00094871596
0.00094152612
0.00093427085
0.00092694717
0.00091955804
0.00091210011
0.00090457651
0.00089698371
0.00088932511
0.00088159648
0.00087380183
0.00086593645
0.00085800429
0.0008500006
0.00084192994
0.00083378623
0.00082557517
0.00081729006
0.00080893635
0.0008005077
0.00079200988
0.0007834352
0.00077479118
0.00076606855
0.00075727543
0.00074840261
0.00073945807
0.00073043249
0.00072133426
0.00071215329
0.00070289878
0.00069355966
0.00068414635
0.00067464651
0.00066507178
0.00065540883
0.00064567005
0.00063584169
0.00062593651
0.00061594054
0.0006058668
0.00059570112
0.00058545711
0.00057512008
0.00056470457
0.00055419504
0.00054360721
0.00053292464
0.00052216446
0.00051130935
0.00050037746
0.0004893514
0.00047824964
0.00046705536
0.00045578712
0.00044442899
0.00043299929
0.00042148383
0.00040989998
0.00039823596
0.00038650765
0.00037470689
0.00036284667
0.00035092452
0.00033894895
0.00032692463
0.00031485468
0.0003027524
0.00029061382
0.00027846366
0.00026628783
0.00025412623
0.00024195117
0.00022982196
0.00021769324
0.00020564857
0.00019362068
0.00018172199
0.00016985917
0.00015817819
0.0001465551
0.00013517528
0.00012387739
0.00011289448
0.00010201876
9.1540377e-05
8.1195453e-05
7.1341112e-05
6.1646356e-05
5.2547877e-05
4.3633699e-05
3.5436352e-05
2.7444891e-05
2.0308637e-05
1.3393833e-05
7.4929907e-06
1.8194515e-06
-2.6569361e-06
-6.9137409e-06
-9.7532079e-06
-1.2398124e-05
-1.3343262e-05
-1.4142767e-05
-1.2848858e-05
-1.1516803e-05
-7.4677926e-06
-3.764611e-06
0.011288761
0.010843425
0.0099749587
0.0087437569
0.007337783
0.0059615801
0.0047330702
0.0036827532
0.0028093955
0.0021174856
0.0016174425
0.0013070084
0.0011583362
0.0011229013
0.0011487039
0.0011952535
0.0012389368
0.0012702151
0.001288062
0.0012952367
0.0012953707
0.0012915873
0.0012860877
0.0012802172
0.0012746942
0.0012698361
0.0012657266
0.0012623208
0.0012595037
0.0012571288
0.0012550453
0.0012531176
0.001251236
0.0012493192
0.0012473119
0.0012451801
0.0012429057
0.0012404817
0.001237908
0.0012351892
0.0012323314
0.001229342
0.0012262277
0.0012229947
0.0012196479
0.0012161916
0.0012126289
0.0012089622
0.0012051936
0.0012013248
0.0011973574
0.0011932928
0.0011891324
0.0011848776
0.0011805294
0.0011760895
0.0011715592
0.0011669403
0.0011622339
0.0011574419
0.0011525652
0.0011476056
0.0011425641
0.0011374424
0.0011322415
0.001126963
0.0011216074
0.0011161764
0.0011106704
0.001105091
0.0010994386
0.0010937147
0.0010879192
0.0010820537
0.001076118
0.0010701139
0.0010640408
0.0010579005
0.0010516922
0.0010454177
0.0010390761
0.0010326694
0.0010261962
0.0010196584
0.0010130546
0.0010063869
0.00099965357
0.00099285675
0.00098599446
0.00097906886
0.0009720778
0.00096502358
0.0009579038
0.00095072092
0.00094347229
0.00093616044
0.00092878233
0.00092134079
0.00091383243
0.00090626023
0.00089862061
0.00089091688
0.00088314475
0.00087530811
0.00086740225
0.00085943101
0.00085138959
0.0008432825
0.00083510359
0.00082685851
0.00081854052
0.00081015504
0.00080169561
0.00079316808
0.0007845646
0.00077589272
0.00076714313
0.00075832388
0.00074942575
0.0007404567
0.00073140734
0.00072228607
0.00071308276
0.00070380657
0.00069444643
0.00068501271
0.00067549308
0.00066589909
0.0006562175
0.00064646055
0.00063661458
0.00062669225
0.00061667965
0.00060658969
0.00059640828
0.00058614892
0.000575797
0.00056536694
0.00055484331
0.00054424169
0.00053354575
0.00052277245
0.00051190465
0.00050096027
0.00048992214
0.00047880847
0.00046760271
0.00045632309
0.00044495402
0.00043351343
0.00042198752
0.0004103932
0.0003987192
0.00038698078
0.00037517047
0.00036330048
0.00035136916
0.00033938411
0.00032735095
0.00031527176
0.00030316096
0.00029101331
0.00027885491
0.00026667013
0.00025450056
0.00024231662
0.00023017963
0.00021804208
0.00020598978
0.00019395306
0.00018204685
0.00017017517
0.00015848673
0.00014685472
0.00013546746
0.00012416055
0.00011317018
0.00010228531
9.1799444e-05
8.144518e-05
7.1583303e-05
6.1879024e-05
5.2772913e-05
4.3849007e-05
3.5643922e-05
2.7642468e-05
2.0498355e-05
1.3573287e-05
7.6643801e-06
1.9803006e-06
-2.5044794e-06
-6.7721811e-06
-9.6206199e-06
-1.2276971e-05
-1.3232161e-05
-1.4043953e-05
-1.2762193e-05
-1.1442449e-05
-7.4184314e-06
-3.7249315e-06
0.010593783
0.010179149
0.0094431667
0.0084197164
0.007223233
0.006006392
0.0048865925
0.0039153221
0.0031025283
0.0024488696
0.0019568883
0.0016241639
0.0014330715
0.0013494185
0.0013318972
0.0013443346
0.0013627532
0.0013755494
0.0013797178
0.0013765874
0.0013688037
0.0013587773
0.0013481767
0.0013379589
0.0013285787
0.0013201943
0.0013128061
0.0013063331
0.0013006508
0.0012956125
0.0012910669
0.0012868733
0.0012829117
0.0012790873
0.0012753299
0.0012715905
0.0012678365
0.0012640478
0.0012602121
0.0012563231
0.0012523775
0.0012483743
0.001244313
0.0012401936
0.0012360158
0.001231779
0.0012274823
0.0012231248
0.0012187051
0.0012142224
0.0012096755
0.0012050636
0.0012003858
0.0011956416
0.0011908304
0.001185952
0.0011810061
0.0011759931
0.001170913
0.0011657661
0.0011605525
0.0011552726
0.0011499266
0.0011445153
0.0011390388
0.0011334978
0.0011278922
0.0011222229
0.0011164897
0.0011106936
0.0011048344
0.001098913
0.001092929
0.0010868833
0.0010807755
0.0010746068
0.0010683763
0.0010620853
0.0010557329
0.0010493203
0.0010428466
0.0010363131
0.0010297185
0.0010230643
0.0010163488
0.001009574
0.0010027379
0.00099584241
0.00098888538
0.00098186874
0.00097479024
0.00096765195
0.00096045139
0.00095319077
0.00094586741
0.0009384836
0.0009310363
0.00092352809
0.0009159556
0.00090832157
0.00090062243
0.00089286129
0.00088503388
0.00087714387
0.0008691866
0.00086116574
0.00085307646
0.00084492316
0.00083669969
0.00082841151
0.00082005197
0.0008116263
0.00080312806
0.00079456302
0.00078592332
0.00077721635
0.00076843291
0.00075958084
0.00075065103
0.00074165127
0.00073257225
0.00072342221
0.0007141911
0.00070488794
0.00069550174
0.00068604271
0.00067649865
0.00066688089
0.00065717635
0.00064739707
0.00063752955
0.00062758622
0.00061755334
0.00060744364
0.00059724314
0.0005869652
0.00057659531
0.00056614775
0.00055560719
0.00054498906
0.00053427718
0.00052348828
0.00051260546
0.00050164633
0.00049059402
0.0004794664
0.00046824724
0.00045695441
0.00044557265
0.00043411953
0.00042258161
0.00041097536
0.00039928998
0.00038754014
0.00037571905
0.00036383812
0.00035189653
0.00033990097
0.00032785801
0.00031576867
0.00030364849
0.00029149098
0.00027932357
0.00026712914
0.00025495087
0.00024275744
0.00023061201
0.00021846506
0.00020640449
0.00019435841
0.00018244403
0.00017056296
0.00015886638
0.00014722489
0.00013582943
0.0001245129
0.00011351419
0.00010261945
9.212506e-05
8.1760628e-05
7.1889939e-05
6.217515e-05
5.3059847e-05
4.4125026e-05
3.5910285e-05
2.7897414e-05
2.0743063e-05
1.3806028e-05
7.8860805e-06
2.1894432e-06
-2.3074834e-06
-6.588461e-06
-9.4506578e-06
-1.212128e-05
-1.3092771e-05
-1.3920259e-05
-1.2659454e-05
-1.1355445e-05
-7.3731701e-06
-3.6926469e-06
0.0099811681
0.009594977
0.0089601106
0.0081000103
0.0070845983
0.0060212295
0.0050111052
0.0041155116
0.0033568143
0.0027385149
0.0022594243
0.0019153043
0.0016936736
0.001570647
0.0015146981
0.0014951944
0.0014893314
0.001484242
0.0014751041
0.0014617801
0.0014459437
0.0014293837
0.0014133439
0.0013984709
0.001384992
0.001372908
0.0013621214
0.0013524978
0.0013438882
0.0013361365
0.0013290861
0.0013225888
0.0013165135
0.0013107511
0.0013052159
0.0012998431
0.0012945854
0.0012894088
0.0012842889
0.0012792082
0.0012741539
0.0012691163
0.0012640878
0.0012590617
0.0012540324
0.0012489946
0.0012439431
0.0012388733
0.0012337809
0.0012286619
0.0012235127
0.0012183302
0.0012131112
0.0012078533
0.0012025542
0.001197212
0.001191825
0.0011863921
0.001180912
0.0011753838
0.0011698066
0.0011641798
0.0011585026
0.001152775
0.0011469962
0.0011411661
0.0011352841
0.0011293501
0.0011233638
0.0011173251
0.0011112337
0.0011050896
0.0010988921
0.0010926418
0.0010863378
0.0010799807
0.0010735695
0.0010671049
0.0010605859
0.0010540132
0.0010473858
0.0010407045
0.0010339678
0.0010271769
0.0010203302
0.0010134289
0.0010064713
0.00099945869
0.00099238905
0.00098526389
0.00097808099
0.00097084204
0.0009635446
0.00095619053
0.0009487772
0.00094130656
0.00093377565
0.00092618671
0.00091853647
0.00091082733
0.00090305581
0.00089522472
0.00088732991
0.0008793747
0.00087135462
0.000863273
0.00085512513
0.00084691513
0.00083863702
0.00083029588
0.00082188531
0.0008134102
0.00080486425
0.00079625301
0.00078756873
0.00077881852
0.00076999341
0.00076110089
0.00075213209
0.00074309449
0.00073397896
0.00072479348
0.00071552819
0.00070619182
0.00069677362
0.00068728346
0.00067770943
0.00066806247
0.00065832985
0.00064852319
0.00063862934
0.00062866035
0.00061860277
0.00060846899
0.00059824533
0.00058794481
0.0005775532
0.00056708444
0.00055652352
0.00054588549
0.00053515451
0.00052434692
0.0005134462
0.00050246951
0.0004914004
0.00048025628
0.00046902136
0.00045771302
0.00044631648
0.00043484875
0.00042329695
0.00041167692
0.00039997851
0.00038821564
0.0003763823
0.00036448902
0.00035253588
0.00034052861
0.00032847473
0.0003163742
0.00030424367
0.00029207541
0.00027989816
0.00026769333
0.00025550565
0.00024330207
0.00023114755
0.00021899064
0.0002069212
0.00019486524
0.0001829421
0.00017105112
0.00015934578
0.00014769427
0.00013628988
0.00012496312
0.00011395518
0.00010304986
9.2545803e-05
8.2170295e-05
7.2289353e-05
6.2562917e-05
5.3436577e-05
4.4489424e-05
3.6262667e-05
2.8236623e-05
2.1069009e-05
1.4117859e-05
8.1829819e-06
2.4711973e-06
-2.0428718e-06
-6.3402165e-06
-9.2226104e-06
-1.19112e-05
-1.2907476e-05
-1.3755023e-05
-1.252729e-05
-1.1243469e-05
-7.3243652e-06
-3.662147e-06
0.0094385081
0.0090799242
0.0085259777
0.0077941516
0.006929542
0.0060059711
0.0051037707
0.0042836214
0.0035765113
0.0029915647
0.0025277791
0.002179835
0.0019375763
0.0017837929
0.0016950302
0.0016464781
0.0016176522
0.0015953476
0.0015733101
0.0015499927
0.0015260907
0.0015028147
0.001481068
0.0014612662
0.0014434579
0.001427502
0.0014131966
0.0014003388
0.0013887407
0.0013782259
0.0013686264
0.0013597841
0.001351556
0.0013438188
0.0013364708
0.0013294317
0.0013226391
0.0013160452
0.0013096135
0.0013033154
0.0012971285
0.0012910346
0.0012850185
0.0012790672
0.0012731693
0.0012673145
0.0012614935
0.0012556978
0.0012499197
0.0012441522
0.0012383891
0.0012326245
0.0012268535
0.0012210712
0.0012152737
0.0012094572
0.0012036187
0.0011977555
0.001191865
0.0011859451
0.0011799937
0.0011740091
0.00116799
0.0011619349
0.0011558426
0.001149712
0.001143542
0.0011373317
0.0011310802
0.001124787
0.001118451
0.0011120719
0.0011056485
0.0010991809
0.0010926679
0.0010861097
0.001079505
0.0010728539
0.0010661554
0.0010594097
0.0010526155
0.0010457734
0.0010388819
0.0010319415
0.0010249506
0.0010179102
0.0010108184
0.0010036761
0.00099648146
0.00098923542
0.00098193596
0.00097458424
0.00096717804
0.00095971869
0.00095220381
0.00094463483
0.00093700906
0.00092932821
0.00092158932
0.00091379423
0.00090593979
0.00089802829
0.0008900559
0.00088202541
0.00087393272
0.00086578064
0.00085756477
0.00084928876
0.00084094698
0.00083254395
0.00082407371
0.00081554062
0.00080693872
0.00079827311
0.00078953642
0.00078073517
0.00077186093
0.00076292056
0.00075390566
0.00074482319
0.00073566443
0.00072643683
0.00071713101
0.00070775512
0.00069829891
0.00068877165
0.000679162
0.00066948022
0.0006597142
0.00064987488
0.00063994973
0.00062995011
0.00061986318
0.0006097007
0.00059944954
0.00058912213
0.00057870477
0.00056821081
0.00055762581
0.00054696417
0.0005362107
0.00052538099
0.00051445926
0.00050346187
0.00049237313
0.00048120966
0.00046995644
0.00045863001
0.00044721639
0.00043573177
0.00042416405
0.00041252821
0.00040081499
0.00038903728
0.00037719017
0.00036528299
0.00035331699
0.00034129667
0.00032923078
0.00031711794
0.00030497617
0.00029279622
0.0002806084
0.0002683924
0.0002561947
0.00024398036
0.00023181625
0.00021964887
0.00020757011
0.00019550385
0.0001835715
0.00017167023
0.00015995563
0.00014829368
0.00013687976
0.00012554226
0.00011452428
0.00010360769
9.3092878e-05
8.2705382e-05
7.2812679e-05
6.3073394e-05
5.3933967e-05
4.4972922e-05
3.6731403e-05
2.8690195e-05
2.1505667e-05
1.4537906e-05
8.5832912e-06
2.8532867e-06
-1.6842006e-06
-6.00164e-06
-8.9124037e-06
-1.1623445e-05
-1.2655379e-05
-1.3528219e-05
-1.2349192e-05
-1.109118e-05
-7.260999e-06
-3.6249624e-06
0.0089555745
0.0086234359
0.0081358677
0.0075061579
0.0067654281
0.0059647019
0.0051650644
0.0044202652
0.0037645587
0.0032123709
0.0027653093
0.0024185762
0.0021633988
0.0019866837
0.0018709946
0.0017968826
0.001746805
0.0017080777
0.0016735644
0.0016405039
0.0016086368
0.0015786016
0.0015510023
0.0015260843
0.0015037679
0.0014837965
0.0014658683
0.0014497035
0.001435063
0.0014217398
0.0014095485
0.0013983184
0.0013878942
0.0013781388
0.0013689357
0.001360189
0.0013518218
0.0013437726
0.0013359929
0.0013284433
0.0013210919
0.0013139118
0.0013068805
0.0012999784
0.0012931883
0.0012864947
0.0012798842
0.001273344
0.0012668632
0.0012604314
0.0012540397
0.0012476796
0.001241344
0.0012350257
0.0012287189
0.0012224181
0.0012161187
0.0012098161
0.0012035069
0.0011971872
0.0011908542
0.0011845047
0.0011781366
0.0011717474
0.0011653352
0.0011588979
0.0011524338
0.0011459411
0.0011394187
0.0011328649
0.0011262787
0.0011196587
0.0011130038
0.001106313
0.0010995853
0.00109282
0.0010860159
0.0010791723
0.0010722883
0.0010653634
0.0010583965
0.0010513873
0.0010443346
0.0010372382
0.0010300969
0.0010229107
0.0010156783
0.0010083996
0.0010010733
0.00099369963
0.00098627688
0.00097880553
0.00097128377
0.00096371221
0.00095608893
0.00094841465
0.00094068715
0.00093290742
0.00092507301
0.00091718501
0.00090924081
0.00090124194
0.0008931852
0.00088507254
0.00087690053
0.00086867118
0.00086038071
0.00085203196
0.00084362002
0.0008351485
0.00082661223
0.00081801469
0.00080935062
0.00080062432
0.00079182915
0.00078297072
0.00077404146
0.00076504725
0.00075598057
0.00074684742
0.00073763994
0.00072836462
0.00071901296
0.00070959215
0.00070009285
0.00069052331
0.00068087318
0.00067115162
0.00066134758
0.00065147086
0.00064151001
0.00063147526
0.00062135483
0.00061115938
0.00060087682
0.00059051848
0.00058007173
0.00056954879
0.00055893631
0.00054824753
0.00053746841
0.00052661332
0.00051566769
0.00050464657
0.0004935356
0.00048235001
0.00047107612
0.00045972909
0.00044829631
0.00043679254
0.00042520707
0.00041355342
0.00040182382
0.00039002954
0.00037816732
0.00036624475
0.00035426481
0.0003422302
0.00033015143
0.00031802526
0.00030587161
0.00029367917
0.00028148029
0.00026925251
0.00025704449
0.00024481894
0.00023264504
0.00022046688
0.00020837868
0.00019630188
0.00018436024
0.00017244846
0.00016072446
0.00014905185
0.00013762811
0.00012627954
0.000115251
0.00010432264
9.3796164e-05
8.3395918e-05
7.3490028e-05
6.373679e-05
5.4582169e-05
4.5605705e-05
3.7346432e-05
2.928802e-05
2.2082443e-05
1.5095422e-05
9.1154784e-06
3.3638944e-06
-1.2044306e-06
-5.5461357e-06
-8.4950479e-06
-1.1233617e-05
-1.2314358e-05
-1.3218433e-05
-1.2107043e-05
-1.0881766e-05
-7.1696875e-06
-3.570556e-06
0.0085235986
0.0082163461
0.0077841699
0.0072373533
0.0065984362
0.0059035087
0.0051982065
0.0045270317
0.003923109
0.0034041637
0.0029751269
0.0026330802
0.0023707505
0.0021777461
0.0020408385
0.0019450146
0.0018757924
0.0018216445
0.0017751473
0.001732642
0.0016930035
0.0016562979
0.0016228342
0.0015927189
0.0015657857
0.0015416956
0.0015200623
0.0015005301
0.0014828016
0.0014666312
0.0014518098
0.0014381514
0.0014254884
0.0014136707
0.0014025681
0.0013920699
0.0013820854
0.0013725398
0.0013633726
0.0013545336
0.0013459817
0.0013376815
0.0013296031
0.0013217202
0.0013140098
0.0013064513
0.0012990267
0.0012917191
0.001284514
0.0012773978
0.0012703588
0.0012633855
0.0012564687
0.0012495988
0.0012427684
0.0012359696
0.0012291965
0.0012224427
0.0012157036
0.0012089737
0.0012022492
0.0011955256
0.0011888
0.0011820685
0.0011753289
0.0011685776
0.0011618127
0.0011550313
0.0011482319
0.001141412
0.0011345702
0.0011277041
0.0011208128
0.0011138942
0.0011069474
0.0010999707
0.0010929631
0.0010859231
0.0010788497
0.0010717418
0.0010645984
0.0010574186
0.0010502011
0.0010429453
0.0010356501
0.0010283147
0.0010209381
0.0010135197
0.0010060584
0.00099855353
0.00099100411
0.00098340963
0.0009757689
0.00096808157
0.00096034644
0.00095256324
0.00094473051
0.00093684822
0.00092891473
0.00092093007
0.0009128925
0.00090480248
0.00089665772
0.00088845903
0.000880204
0.00087189347
0.00086352464
0.00085509922
0.00084661334
0.00083806936
0.00082946327
0.00082079729
0.00081206726
0.00080327627
0.00079441885
0.00078549923
0.0007765112
0.00076745919
0.000758337
0.00074914925
0.00073988938
0.00073056246
0.00072116137
0.00071169181
0.00070214592
0.00069253034
0.00068283631
0.00067307132
0.00066322594
0.00065330828
0.00064330853
0.00063323522
0.00062307824
0.00061284651
0.00060252966
0.00059213723
0.00058165835
0.00057110341
0.00056046091
0.00054974213
0.000538935
0.00052805185
0.00051708015
0.00050603284
0.00049489765
0.00048368766
0.00047239135
0.00046102166
0.00044956818
0.00043804341
0.0004264389
0.0004147658
0.00040301876
0.00039120651
0.00037932834
0.00036738922
0.00035539473
0.00034334489
0.00033125287