/*--------------------------------*- C++ -*----------------------------------*\
| =========                 |                                                 |
| \\      /  F ield         | OpenFOAM: The Open Source CFD Toolbox           |
|  \\    /   O peration     | Version:  5.x                                   |
|   \\  /    A nd           | Web:      www.OpenFOAM.org                      |
|    \\/     M anipulation  |                                                 |
\*---------------------------------------------------------------------------*/
FoamFile
{
    version     2.0;
    format      ascii;
    class       surfaceScalarField;
    location    "0.5";
    object      phi;
}
// * * * * * * * * * * * * * * * * * * * * * * * * * * * * * * * * * * * * * //

dimensions      [0 3 -1 0 0 0 0];

internalField   nonuniform List<scalar> 
42870
(
3.6475874e-08
3.0076884e-09
-3.9483562e-08
3.2668226e-08
3.8076481e-09
2.8877367e-08
3.7908586e-09
2.5280833e-08
3.5965344e-09
2.1875235e-08
3.4055974e-09
1.8728133e-08
3.1471026e-09
1.5965185e-08
2.7629479e-09
1.3679608e-08
2.285577e-09
1.1890306e-08
1.789302e-09
1.0564063e-08
1.3262426e-09
9.6150396e-09
9.490236e-10
8.9441771e-09
6.7086248e-10
8.4643221e-09
4.7985499e-10
8.1084937e-09
3.5582834e-10
7.8291609e-09
2.7933285e-10
7.5932613e-09
2.3589963e-10
7.3804448e-09
2.1281649e-10
7.1802379e-09
2.0020691e-10
6.9883994e-09
1.9183849e-10
6.8039473e-09
1.8445213e-10
6.6272494e-09
1.766979e-10
6.4589695e-09
1.6827988e-10
6.2995801e-09
1.593894e-10
6.1492096e-09
1.5037053e-10
6.0076592e-09
1.4155039e-10
5.8744903e-09
1.3316886e-10
5.749122e-09
1.2536833e-10
5.6309097e-09
1.1821223e-10
5.5192066e-09
1.1170314e-10
5.413402e-09
1.0580465e-10
5.3129407e-09
1.0046126e-10
5.2173297e-09
9.5611015e-11
5.1261363e-09
9.1193391e-11
5.0389836e-09
8.7152663e-11
4.9555436e-09
8.3440045e-11
4.8755302e-09
8.0013387e-11
4.7986928e-09
7.6837454e-11
4.7248103e-09
7.3882468e-11
4.6536862e-09
7.1124033e-11
4.5851448e-09
6.8541444e-11
4.519027e-09
6.611781e-11
4.4551886e-09
6.3838409e-11
4.3934974e-09
6.1691162e-11
4.3338324e-09
5.9665079e-11
4.2760813e-09
5.7751081e-11
4.2201408e-09
5.5940496e-11
4.1659146e-09
5.4226162e-11
4.1133137e-09
5.260091e-11
4.0622548e-09
5.1058887e-11
4.0126609e-09
4.9593987e-11
3.9644595e-09
4.8201383e-11
3.9175837e-09
4.6875796e-11
3.8719705e-09
4.5613212e-11
3.8275614e-09
4.4409035e-11
3.7843015e-09
4.3259965e-11
3.7421395e-09
4.2161988e-11
3.7010271e-09
4.1112411e-11
3.6609194e-09
4.0107706e-11
3.6217736e-09
3.9145708e-11
3.5835504e-09
3.822328e-11
3.5462116e-09
3.7338728e-11
3.5097224e-09
3.6489222e-11
3.4740489e-09
3.5673473e-11
3.4391601e-09
3.4888885e-11
3.4050255e-09
3.4134521e-11
3.3716176e-09
3.3407948e-11
3.338909e-09
3.270856e-11
3.306875e-09
3.2034027e-11
3.2754909e-09
3.1384063e-11
3.2447346e-09
3.0756369e-11
3.2145836e-09
3.0150968e-11
3.185018e-09
2.9565561e-11
3.1560176e-09
2.9000482e-11
3.1275642e-09
2.8453366e-11
3.0996393e-09
2.7924861e-11
3.0722269e-09
2.7412493e-11
3.0453096e-09
2.691725e-11
3.0188731e-09
2.6436505e-11
2.9929015e-09
2.5971598e-11
2.9673818e-09
2.5519704e-11
2.9422993e-09
2.508252e-11
2.9176423e-09
2.4656995e-11
2.8933971e-09
2.4245209e-11
2.8695532e-09
2.3843856e-11
2.8460978e-09
2.3455393e-11
2.8230216e-09
2.3076226e-11
2.8003124e-09
2.2709212e-11
2.7779619e-09
2.2350453e-11
2.7559587e-09
2.2003213e-11
2.7342955e-09
2.1663266e-11
2.7129612e-09
2.1334283e-11
2.6919495e-09
2.1011696e-11
2.6712499e-09
2.0699601e-11
2.6508568e-09
2.0393065e-11
2.6307602e-09
2.009662e-11
2.6109553e-09
1.9804941e-11
2.5914322e-09
1.9523025e-11
2.5721871e-09
1.9245121e-11
2.5532104e-09
1.8976711e-11
2.5344988e-09
1.871158e-11
2.5160431e-09
1.8455751e-11
2.4978406e-09
1.8202472e-11
2.4798822e-09
1.7958372e-11
2.4621661e-09
1.7716116e-11
2.4446831e-09
1.7482971e-11
2.4274322e-09
1.7250947e-11
2.4104041e-09
1.702807e-11
2.3935986e-09
1.6805552e-11
2.3770063e-09
1.6592269e-11
2.3606277e-09
1.6378605e-11
2.3444534e-09
1.6174318e-11
2.3284845e-09
1.5968864e-11
2.3127115e-09
1.577304e-11
2.2971363e-09
1.5575209e-11
2.281749e-09
1.5387313e-11
2.2665524e-09
1.5196591e-11
2.2515362e-09
1.5016119e-11
2.2367042e-09
1.4831999e-11
2.2220457e-09
1.4658506e-11
2.2075652e-09
1.4480509e-11
2.1932517e-09
1.4313548e-11
2.1791105e-09
1.4141233e-11
2.1651301e-09
1.3980388e-11
2.1513167e-09
1.3813334e-11
2.1376585e-09
1.3658214e-11
2.1241625e-09
1.3496014e-11
2.1108163e-09
1.3346241e-11
2.0976278e-09
1.3188498e-11
2.084584e-09
1.3043721e-11
2.071694e-09
1.2890039e-11
2.0589441e-09
1.2749922e-11
2.0463442e-09
1.2599911e-11
2.03388e-09
1.2464127e-11
2.0215626e-09
1.231741e-11
2.009377e-09
1.2185641e-11
1.9973351e-09
1.2041845e-11
1.9854214e-09
1.1913763e-11
1.9736489e-09
1.1772524e-11
1.9620011e-09
1.1647801e-11
1.9504923e-09
1.1508754e-11
1.9391053e-09
1.1387056e-11
1.9278554e-09
1.1249849e-11
1.9167246e-09
1.1130826e-11
1.9057295e-09
1.09951e-11
1.8948511e-09
1.0878406e-11
1.8841073e-09
1.0743792e-11
1.8734782e-09
1.0629068e-11
1.862983e-09
1.0495194e-11
1.852601e-09
1.038206e-11
1.8423524e-09
1.0248583e-11
1.8322158e-09
1.0136602e-11
1.8222126e-09
1.0003216e-11
1.8123207e-09
9.8918771e-12
1.8025623e-09
9.7583452e-12
1.7929153e-09
9.6470719e-12
1.7834021e-09
9.5131638e-12
1.7740007e-09
9.4013734e-12
1.7647339e-09
9.2668488e-12
1.7555799e-09
9.15394e-12
1.7465614e-09
9.0185854e-12
1.7376575e-09
8.9039021e-12
1.7288899e-09
8.7676013e-12
1.7202395e-09
8.6503837e-12
1.7117263e-09
8.5131687e-12
1.7033338e-09
8.3925447e-12
1.6950792e-09
8.2545911e-12
1.6869495e-09
8.1296183e-12
1.6789583e-09
7.991197e-12
1.6710974e-09
7.8609366e-12
1.663375e-09
7.7223763e-12
1.6557891e-09
7.5859418e-12
1.6483414e-09
7.4476504e-12
1.6410372e-09
7.3042394e-12
1.6338705e-09
7.1667411e-12
1.6268549e-09
7.0155979e-12
1.6199752e-09
6.8796848e-12
1.6132552e-09
6.7200241e-12
1.6066682e-09
6.5869192e-12
1.6002502e-09
6.4179882e-12
1.5939608e-09
6.2894251e-12
1.5878501e-09
6.1107061e-12
1.5818612e-09
5.9888898e-12
1.5760611e-09
5.8000913e-12
1.5703732e-09
5.6879068e-12
1.5648846e-09
5.4886493e-12
1.5594946e-09
5.3900025e-12
1.5543147e-09
5.1798272e-12
1.5492147e-09
5.1000604e-12
1.5443359e-09
4.8787855e-12
1.5395105e-09
4.8254404e-12
1.5349172e-09
4.593241e-12
1.5303399e-09
4.5772754e-12
1.5260061e-09
4.3338698e-12
1.5216346e-09
4.3714922e-12
1.5175194e-09
4.1151753e-12
1.5132884e-09
4.2310555e-12
1.5093301e-09
3.9582394e-12
1.505141e-09
4.1891439e-12
1.5012565e-09
3.8844849e-12
4.3936638e-12
4.2102893e-08
2.7426798e-09
-4.1837884e-08
4.1940586e-08
3.9699549e-09
4.1254977e-08
4.4764679e-09
4.0292541e-08
4.5589695e-09
3.9152292e-08
4.5458473e-09
3.7829718e-08
4.4696757e-09
3.6342313e-08
4.2503532e-09
3.4750845e-08
3.8770454e-09
3.3141288e-08
3.3988585e-09
3.1583116e-08
2.8844145e-09
3.0123148e-08
2.4089923e-09
2.8779706e-08
2.014304e-09
2.7552863e-08
1.7066978e-09
2.6436083e-08
1.472609e-09
2.5425886e-08
1.2895291e-09
2.4511552e-08
1.1502344e-09
2.3681265e-08
1.0431033e-09
2.2923866e-08
9.5760537e-10
2.2229547e-08
8.8615755e-10
2.1589999e-08
8.2400036e-10
2.0998323e-08
7.6837391e-10
2.0448839e-08
7.1776353e-10
1.9936845e-08
6.7138431e-10
1.9458377e-08
6.2883821e-10
1.9010031e-08
5.8989612e-10
1.8588836e-08
5.5436351e-10
1.8192173e-08
5.2203181e-10
1.781771e-08
4.9267496e-10
1.7463376e-08
4.6603697e-10
1.7127334e-08
4.4184717e-10
1.6807956e-08
4.1983867e-10
1.6503808e-08
3.9975965e-10
1.621362e-08
3.8138128e-10
1.5936273e-08
3.6449953e-10
1.5670776e-08
3.4893674e-10
1.5416251e-08
3.3453892e-10
1.5171913e-08
3.2117499e-10
1.4937063e-08
3.0873245e-10
1.4711071e-08
2.971164e-10
1.4493367e-08
2.8624497e-10
1.4283436e-08
2.7604895e-10
1.4080807e-08
2.6646758e-10
1.3885049e-08
2.5744911e-10
1.3695767e-08
2.4894688e-10
1.3512598e-08
2.4092086e-10
1.3335204e-08
2.3333391e-10
1.3163276e-08
2.2615406e-10
1.2996526e-08
2.1935083e-10
1.2834687e-08
2.1289808e-10
1.2677511e-08
2.0677027e-10
1.2524766e-08
2.0094587e-10
1.2376239e-08
1.9540323e-10
1.2231728e-08
1.9012443e-10
1.2091046e-08
1.8509095e-10
1.1954018e-08
1.8028796e-10
1.182048e-08
1.7569953e-10
1.1690279e-08
1.7131336e-10
1.1563271e-08
1.6711571e-10
1.1439321e-08
1.6309642e-10
1.13183e-08
1.5924348e-10
1.1200091e-08
1.5554861e-10
1.1084579e-08
1.5200117e-10
1.0971658e-08
1.4859444e-10
1.0861228e-08
1.4531889e-10
1.0753193e-08
1.4216916e-10
1.0647464e-08
1.3913658e-10
1.0543956e-08
1.3621696e-10
1.0442588e-08
1.3340227e-10
1.0343282e-08
1.3068944e-10
1.0245968e-08
1.2807082e-10
1.0150575e-08
1.2554437e-10
1.0057037e-08
1.2310272e-10
9.9652931e-09
1.2074484e-10
9.875283e-09
1.184634e-10
9.7869495e-09
1.1625836e-10
9.7002397e-09
1.1412232e-10
9.6151007e-09
1.1205625e-10
9.5314847e-09
1.1005253e-10
9.4493431e-09
1.0811314e-10
9.3686327e-09
1.0623013e-10
9.2893087e-09
1.0440649e-10
9.2113319e-09
1.0263381e-10
9.134661e-09
1.0091618e-10
9.0592602e-09
9.9244618e-11
8.9850913e-09
9.7624283e-11
8.912122e-09
9.6045555e-11
8.8403165e-09
9.4514693e-11
8.7696456e-09
9.3021362e-11
8.7000759e-09
9.1572952e-11
8.6315808e-09
9.0158327e-11
8.5641291e-09
8.8786023e-11
8.4976967e-09
8.7444044e-11
8.4322542e-09
8.6142115e-11
8.36778e-09
8.4867309e-11
8.304246e-09
8.3630578e-11
8.241633e-09
8.2417968e-11
8.1799143e-09
8.1241729e-11
8.1190726e-09
8.0086777e-11
8.0590826e-09
7.8966744e-11
7.9999289e-09
7.7865291e-11
7.9415871e-09
7.6797569e-11
7.8840437e-09
7.574581e-11
7.8272753e-09
7.4726833e-11
7.7712701e-09
7.3721284e-11
7.7160053e-09
7.2747803e-11
7.661471e-09
7.1785212e-11
7.6076448e-09
7.085426e-11
7.5545187e-09
6.9931647e-11
7.5020706e-09
6.9040444e-11
7.4502941e-09
6.8155051e-11
7.3991674e-09
6.7301079e-11
7.3486859e-09
6.6450289e-11
7.2988277e-09
6.5631226e-11
7.2495903e-09
6.4812649e-11
7.2009513e-09
6.4026277e-11
7.1529102e-09
6.3237703e-11
7.1054444e-09
6.2481964e-11
7.0585551e-09
6.1721279e-11
7.0122193e-09
6.099427e-11
6.9664403e-09
6.0259492e-11
6.9211945e-09
5.9559372e-11
6.8764871e-09
5.8848646e-11
6.8322938e-09
5.8173688e-11
6.7886219e-09
5.7485239e-11
6.7454463e-09
5.6833811e-11
6.7027764e-09
5.6165926e-11
6.6605862e-09
5.5536471e-11
6.6188872e-09
5.4887479e-11
6.5776524e-09
5.4278523e-11
6.5368956e-09
5.3646779e-11
6.4965887e-09
5.305691e-11
6.4567478e-09
5.2440793e-11
6.4173433e-09
5.186864e-11
6.3783941e-09
5.126656e-11
6.339869e-09
5.0710783e-11
6.3017896e-09
5.0121162e-11
6.264123e-09
4.9580419e-11
6.2268938e-09
4.9001686e-11
6.190067e-09
4.8474634e-11
6.1536705e-09
4.7905212e-11
6.1176671e-09
4.7390501e-11
6.0820881e-09
4.6828812e-11
6.0468939e-09
4.6325061e-11
6.0121195e-09
4.5769493e-11
5.9777226e-09
4.5275316e-11
5.9437422e-09
4.4724205e-11
5.9101331e-09
4.4238187e-11
5.8769384e-09
4.3689826e-11
5.84411e-09
4.3210497e-11
5.8116954e-09
4.2663198e-11
5.779643e-09
4.2188953e-11
5.7480052e-09
4.1641081e-11
5.7167269e-09
4.1170132e-11
5.6858651e-09
4.0620157e-11
5.6553616e-09
4.0150557e-11
5.6252778e-09
3.9596937e-11
5.5955525e-09
3.9126698e-11
5.5662515e-09
3.8567844e-11
5.5373105e-09
3.8094942e-11
5.5087998e-09
3.7529286e-11
5.4806521e-09
3.7051605e-11
5.452942e-09
3.6477762e-11
5.4255993e-09
3.5993005e-11
5.3987026e-09
3.5409916e-11
5.3721796e-09
3.4915569e-11
5.3461116e-09
3.4322523e-11
5.3204253e-09
3.3815967e-11
5.295204e-09
3.3212518e-11
5.2703737e-09
3.2691236e-11
5.2460189e-09
3.2077151e-11
5.2220659e-09
3.1538914e-11
5.1985993e-09
3.0914224e-11
5.1755463e-09
3.035725e-11
5.1529907e-09
2.9722381e-11
5.1308609e-09
2.9145356e-11
5.1092391e-09
2.8501524e-11
5.0880556e-09
2.7903549e-11
5.0673892e-09
2.7253303e-11
5.047173e-09
2.6634148e-11
5.0274808e-09
2.5981646e-11
5.0082492e-09
2.5342305e-11
4.9895448e-09
2.4693261e-11
4.9713089e-09
2.403603e-11
4.9535986e-09
2.3398177e-11
4.9363611e-09
2.2726176e-11
4.9196408e-09
2.2110334e-11
4.9033927e-09
2.1427849e-11
4.8876434e-09
2.0849381e-11
4.8723591e-09
2.0163104e-11
4.8575405e-09
1.9644064e-11
4.8431702e-09
1.896355e-11
4.8292118e-09
1.8535644e-11
4.8156738e-09
1.787189e-11
4.8024644e-09
1.7580875e-11
4.789633e-09
1.6946613e-11
4.7770056e-09
1.6858377e-11
4.764686e-09
1.6277875e-11
4.7524024e-09
1.6472704e-11
4.7402939e-09
1.5993032e-11
1.6841464e-11
4.4023661e-08
2.5882568e-09
-4.3869238e-08
4.44055e-08
3.5881163e-09
4.4606125e-08
4.2758424e-09
4.4656172e-08
4.5089223e-09
4.4622597e-08
4.5794222e-09
4.4501955e-08
4.5903183e-09
4.4239956e-08
4.5123524e-09
4.3815703e-08
4.3012976e-09
4.324948e-08
3.9650819e-09
4.2576657e-08
3.5572378e-09
4.1838919e-08
3.14673e-09
4.1068552e-08
2.7846707e-09
4.0285047e-08
2.4902034e-09
3.9500551e-08
2.2571053e-09
3.8720481e-08
2.0695989e-09
3.7951875e-08
1.9188402e-09
3.7198788e-08
1.7961897e-09
3.6463154e-08
1.6932398e-09
3.5745948e-08
1.6033632e-09
3.5047809e-08
1.52214e-09
3.4369241e-08
1.4469419e-09
3.3710666e-08
1.3763386e-09
3.3072415e-08
1.3096356e-09
3.24547e-08
1.2465526e-09
3.1857586e-08
1.1870107e-09
3.1280976e-08
1.1309736e-09
3.072462e-08
1.0783874e-09
3.0188116e-08
1.0291794e-09
2.9670938e-08
9.8321456e-10
2.9172468e-08
9.4031694e-10
2.8692019e-08
9.0028794e-10
2.8228859e-08
8.6291967e-10
2.7782233e-08
8.2800693e-10
2.7351381e-08
7.9535211e-10
2.6935546e-08
7.6477091e-10
2.6533993e-08
7.3609228e-10
2.6146007e-08
7.091611e-10
2.5770904e-08
6.8383553e-10
2.5408032e-08
6.5998866e-10
2.5056772e-08
6.3750464e-10
2.4716541e-08
6.1628035e-10
2.4386787e-08
5.9622097e-10
2.4066994e-08
5.7724224e-10
2.3756675e-08
5.5926576e-10
2.3455374e-08
5.4222198e-10
2.3162663e-08
5.2604527e-10
2.2878139e-08
5.1067769e-10
2.2601426e-08
4.9606372e-10
2.233217e-08
4.8215465e-10
2.2070037e-08
4.6890313e-10
2.1814714e-08
4.562683e-10
2.1565908e-08
4.4420954e-10
2.132334e-08
4.3269235e-10
2.1086749e-08
4.216817e-10
2.0855889e-08
4.1114853e-10
2.0630526e-08
4.010625e-10
2.041044e-08
3.9139908e-10
2.0195424e-08
3.821319e-10
1.998528e-08
3.7324031e-10
1.9779822e-08
3.6470113e-10
1.9578874e-08
3.5649712e-10
1.9382267e-08
3.4860763e-10
1.9189844e-08
3.410183e-10
1.9001452e-08
3.3371064e-10
1.8816948e-08
3.2667277e-10
1.8636197e-08
3.1988791e-10
1.8459067e-08
3.133464e-10
1.8285437e-08
3.0703274e-10
1.8115187e-08
3.0093935e-10
1.7948206e-08
2.9505158e-10
1.7784387e-08
2.8936381e-10
1.7623628e-08
2.8386207e-10
1.746583e-08
2.7854254e-10
1.7310902e-08
2.7339157e-10
1.7158753e-08
2.6840713e-10
1.70093e-08
2.6357564e-10
1.6862459e-08
2.5889688e-10
1.6718154e-08
2.5435706e-10
1.657631e-08
2.4995777e-10
1.6436855e-08
2.4568482e-10
1.629972e-08
2.4154162e-10
1.616484e-08
2.3751331e-10
1.6032151e-08
2.3360523e-10
1.5901594e-08
2.2980171e-10
1.5773109e-08
2.2610995e-10
1.5646641e-08
2.225133e-10
1.5522135e-08
2.1902091e-10
1.5399541e-08
2.1561499e-10
1.5278807e-08
2.1230669e-10
1.5159889e-08
2.0907693e-10
1.5042736e-08
2.059389e-10
1.4927308e-08
2.0287206e-10
1.4813558e-08
1.9989174e-10
1.470145e-08
1.9697583e-10
1.4590938e-08
1.9414187e-10
1.448199e-08
1.9136596e-10
1.4374564e-08
1.8866798e-10
1.4268629e-08
1.8602208e-10
1.4164145e-08
1.8345064e-10
1.4061085e-08
1.8092557e-10
1.395941e-08
1.7847202e-10
1.3859097e-08
1.7605938e-10
1.3760108e-08
1.7371584e-10
1.3662421e-08
1.714079e-10
1.3566002e-08
1.6916711e-10
1.347083e-08
1.6695668e-10
1.3376873e-08
1.64812e-10
1.3284112e-08
1.6269246e-10
1.3192514e-08
1.606377e-10
1.3102067e-08
1.5860289e-10
1.3012735e-08
1.5663241e-10
1.2924509e-08
1.5467654e-10
1.2837355e-08
1.5278507e-10
1.2751265e-08
1.5090281e-10
1.2666206e-08
1.490854e-10
1.2582172e-08
1.4727175e-10
1.249913e-08
1.4552381e-10
1.2417077e-08
1.4377402e-10
1.233598e-08
1.4209123e-10
1.2255839e-08
1.4040085e-10
1.2176619e-08
1.387791e-10
1.2098324e-08
1.3714392e-10
1.2020918e-08
1.3557932e-10
1.1944408e-08
1.3399531e-10
1.1868758e-08
1.3248418e-10
1.1793976e-08
1.3094744e-10
1.1720027e-08
1.2948628e-10
1.1646921e-08
1.2799299e-10
1.1574621e-08
1.2657848e-10
1.1503143e-08
1.251249e-10
1.1432446e-08
1.2375382e-10
1.1362551e-08
1.2233624e-10
1.1293414e-08
1.2100549e-10
1.122506e-08
1.1962027e-10
1.1157444e-08
1.1832679e-10
1.1090595e-08
1.1697028e-10
1.1024464e-08
1.1571105e-10
1.0959086e-08
1.1437959e-10
1.089441e-08
1.1315158e-10
1.0830473e-08
1.1184147e-10
1.0767222e-08
1.1064165e-10
1.0704702e-08
1.0934914e-10
1.0642852e-08
1.0817443e-10
1.0581726e-08
1.0689568e-10
1.0521259e-08
1.0574296e-10
1.0461509e-08
1.0447399e-10
1.0402407e-08
1.0334011e-10
1.034402e-08
1.0207677e-10
1.0286272e-08
1.0095847e-10
1.0229239e-08
9.9696577e-11
1.0172837e-08
9.8590377e-11
1.0117152e-08
9.7325744e-11
1.0062095e-08
9.6227854e-11
1.0007759e-08
9.4956349e-11
9.9540464e-09
9.3862731e-11
9.9010632e-09
9.2580116e-11
9.8487033e-09
9.1486653e-11
9.7970826e-09
9.0188527e-11
9.7460865e-09
8.909106e-11
9.6958428e-09
8.7772963e-11
9.6462271e-09
8.6667248e-11
9.59738e-09
8.5324918e-11
9.5491665e-09
8.4206507e-11
9.5017403e-09
8.2836122e-11
9.4549555e-09
8.1700334e-11
9.4089795e-09
8.0298574e-11
9.3636547e-09
7.9140715e-11
9.3191626e-09
7.7704671e-11
9.2753334e-09
7.6520422e-11
9.232363e-09
7.5047571e-11
9.1900685e-09
7.3833395e-11
9.148661e-09
7.2321729e-11
9.107943e-09
7.1075244e-11
9.0681418e-09
6.9523546e-11
9.0290434e-09
6.8243742e-11
8.9908926e-09
6.6652319e-11
8.9534565e-09
6.5339688e-11
8.9169984e-09
6.3711408e-11
8.881264e-09
6.2368536e-11
8.8465363e-09
6.0709387e-11
8.8125366e-09
5.9341988e-11
8.7795688e-09
5.7661047e-11
8.7473265e-09
5.6278286e-11
8.7161362e-09
5.458856e-11
8.6856596e-09
5.3202684e-11
8.6562468e-09
5.1523199e-11
8.627524e-09
5.0150591e-11
8.5998641e-09
4.8509293e-11
8.5728543e-09
4.7172902e-11
8.5468879e-09
4.5610498e-11
8.5215106e-09
4.434081e-11
8.4971307e-09
4.2915592e-11
8.4732534e-09
4.1749209e-11
8.4502904e-09
4.0543807e-11
8.4277088e-09
3.9528288e-11
8.4059109e-09
3.8656291e-11
8.384309e-09
3.7879731e-11
8.3633144e-09
3.7467348e-11
8.3422247e-09
3.7082677e-11
3.7804983e-11
4.5949432e-08
2.515745e-09
-4.587692e-08
4.6262046e-08
3.2755018e-09
4.659629e-08
3.9415986e-09
4.6847097e-08
4.2581154e-09
4.7061997e-08
4.3645225e-09
4.7266492e-08
4.3858228e-09
4.7427286e-08
4.3515586e-09
4.7503561e-08
4.2250226e-09
4.7476047e-08
3.9925955e-09
4.7348113e-08
3.6851724e-09
4.7139609e-08
3.3552337e-09
4.687373e-08
3.0505495e-09
4.6568404e-08
2.7955297e-09
4.6233728e-08
2.5917808e-09
4.5874091e-08
2.4292367e-09
4.549504e-08
2.2978909e-09
4.5101149e-08
2.1900809e-09
4.4695161e-08
2.099228e-09
4.4278651e-08
2.0198731e-09
4.3852783e-08
1.9480078e-09
4.3418689e-08
1.8810358e-09
4.2977579e-08
1.8174488e-09
4.2530746e-08
1.7564683e-09
4.2079538e-08
1.69776e-09
4.1625316e-08
1.6412334e-09
4.1169397e-08
1.5868926e-09
4.071302e-08
1.5347638e-09
4.0257333e-08
1.4848667e-09
3.9803369e-08
1.4371788e-09
3.9352047e-08
1.3916387e-09
3.8904175e-08
1.3481598e-09
3.8460455e-08
1.3066403e-09
3.8021487e-08
1.2669745e-09
3.7587783e-08
1.2290563e-09
3.7159768e-08
1.1927854e-09
3.6737794e-08
1.1580667e-09
3.6322141e-08
1.1248138e-09
3.5913031e-08
1.0929462e-09
3.5510627e-08
1.0623922e-09
3.5115047e-08
1.0330844e-09
3.4726365e-08
1.004963e-09
3.4344615e-08
9.7797041e-10
3.3969802e-08
9.520554e-10
3.36019e-08
9.2716739e-10
3.3240861e-08
9.032612e-10
3.2886615e-08
8.802911e-10
3.2539077e-08
8.5821642e-10
3.2198145e-08
8.3699511e-10
3.186371e-08
8.1659005e-10
3.1535651e-08
7.9696226e-10
3.1213841e-08
7.7807814e-10
3.0898149e-08
7.5990156e-10
3.0588439e-08
7.4240202e-10
3.0284575e-08
7.2554605e-10
2.9986417e-08
7.0930628e-10
2.9693828e-08
6.9365187e-10
2.9406668e-08
6.785583e-10
2.9124803e-08
6.6399728e-10
2.8848096e-08
6.4994714e-10
2.8576416e-08
6.3638177e-10
2.830963e-08
6.2328229e-10
2.8047614e-08
6.1062447e-10
2.779024e-08
5.9839197e-10
2.7537388e-08
5.8656231e-10
2.728894e-08
5.7512155e-10
2.7044779e-08
5.6404866e-10
2.6804793e-08
5.5333197e-10
2.6568874e-08
5.429515e-10
2.6336916e-08
5.3289795e-10
2.6108815e-08
5.2315198e-10
2.5884473e-08
5.1370654e-10
2.5663792e-08
5.0454285e-10
2.5446678e-08
4.9565609e-10
2.5233042e-08
4.8702755e-10
2.5022795e-08
4.786547e-10
2.4815852e-08
4.7051868e-10
2.4612129e-08
4.6261933e-10
2.4411549e-08
4.5493725e-10
2.4214032e-08
4.4747479e-10
2.4019505e-08
4.4021175e-10
2.3827894e-08
4.33153e-10
2.363913e-08
4.2627726e-10
2.3453143e-08
4.1959206e-10
2.326987e-08
4.1307484e-10
2.3089244e-08
4.0673581e-10
2.2911207e-08
4.0055084e-10
2.2735694e-08
3.9453298e-10
2.2562653e-08
3.8865634e-10
2.2392023e-08
3.829369e-10
2.2223753e-08
3.7734674e-10
2.2057787e-08
3.7190489e-10
2.1894078e-08
3.6658119e-10
2.1732572e-08
3.6139785e-10
2.1573225e-08
3.5632228e-10
2.1415987e-08
3.5138005e-10
2.1260817e-08
3.4653576e-10
2.1107667e-08
3.4181861e-10
2.0956499e-08
3.3719007e-10
2.0807266e-08
3.3268328e-10
2.0659936e-08
3.2825615e-10
2.0514461e-08
3.2394616e-10
2.0370814e-08
3.1970719e-10
2.0228948e-08
3.1558153e-10
2.0088837e-08
3.1151844e-10
1.9950439e-08
3.0756557e-10
1.9813729e-08
3.036669e-10
1.9678665e-08
2.9987618e-10
1.9545226e-08
2.9613128e-10
1.9413371e-08
2.9249276e-10
1.9283082e-08
2.8889166e-10
1.9154318e-08
2.853962e-10
1.9027065e-08
2.8192952e-10
1.8901282e-08
2.785685e-10
1.8776957e-08
2.7522752e-10
1.8654049e-08
2.7199289e-10
1.8532552e-08
2.6876934e-10
1.8412422e-08
2.6565355e-10
1.8293657e-08
2.6253959e-10
1.8176212e-08
2.595355e-10
1.8060089e-08
2.5652371e-10
1.7945244e-08
2.5362452e-10
1.783168e-08
2.5070782e-10
1.7719352e-08
2.4790709e-10
1.7608269e-08
2.4507868e-10
1.7498383e-08
2.4237025e-10
1.7389707e-08
2.396235e-10
1.7282192e-08
2.3700152e-10
1.7175855e-08
2.343299e-10
1.7070644e-08
2.3178876e-10
1.6966583e-08
2.2918585e-10
1.6863617e-08
2.2672011e-10
1.6761774e-08
2.2417952e-10
1.6660996e-08
2.2178391e-10
1.6561316e-08
2.1929928e-10
1.6462675e-08
2.1696858e-10
1.6365111e-08
2.1453352e-10
1.626856e-08
2.1226257e-10
1.6173069e-08
2.0987062e-10
1.6078566e-08
2.0765424e-10
1.5985109e-08
2.052988e-10
1.5892619e-08
2.0313177e-10
1.5801162e-08
2.0080613e-10
1.5710653e-08
1.9868315e-10
1.5621168e-08
1.9638034e-10
1.5532615e-08
1.9429606e-10
1.5445081e-08
1.9200878e-10
1.5358463e-08
1.8995775e-10
1.5272861e-08
1.8767842e-10
1.5188165e-08
1.8565501e-10
1.5104485e-08
1.8337581e-10
1.5021702e-08
1.8137405e-10
1.4939941e-08
1.7908701e-10
1.4859068e-08
1.7710049e-10
1.4779227e-08
1.7479757e-10
1.470027e-08
1.728195e-10
1.4622358e-08
1.7049232e-10
1.4545329e-08
1.6851579e-10
1.4469361e-08
1.661556e-10
1.4394279e-08
1.6417366e-10
1.432028e-08
1.6177147e-10
1.4247171e-08
1.5977709e-10
1.4175171e-08
1.57324e-10
1.4104068e-08
1.5530998e-10
1.4034107e-08
1.5279756e-10
1.396505e-08
1.5075652e-10
1.3897172e-08
1.4817689e-10
1.3830211e-08
1.4610163e-10
1.3764468e-08
1.4344742e-10
1.3699657e-08
1.4133157e-10
1.3636109e-08
1.3859593e-10
1.3573508e-08
1.3643463e-10
1.3512218e-08
1.3361151e-10
1.3451891e-08
1.3140212e-10
1.3392928e-08
1.2848675e-10
1.3334942e-08
1.2622938e-10
1.3278375e-08
1.2321942e-10
1.3222797e-08
1.2091738e-10
1.3168694e-08
1.1781459e-10
1.3115587e-08
1.1547547e-10
1.306401e-08
1.1228662e-10
1.3013428e-08
1.0992394e-10
1.2964428e-08
1.0666088e-10
1.2916412e-08
1.0429478e-10
1.2870024e-08
1.0097592e-10
1.2824594e-08
9.8633095e-11
1.278083e-08
9.5286836e-11
1.2737978e-08
9.3002527e-11
1.2696816e-08
8.9671988e-11
1.2656495e-08
8.7493632e-11
1.2617863e-08
8.4242558e-11
1.2579972e-08
8.2231216e-11
1.2543737e-08
7.9150844e-11
1.2508106e-08
7.7380246e-11
1.2474052e-08
7.4598197e-11
1.2440414e-08
7.3166137e-11
1.2408217e-08
7.0853719e-11
1.2376166e-08
6.9930515e-11
1.234534e-08
6.8292789e-11
1.2314311e-08
6.8111745e-11
6.8264209e-11
4.7966971e-08
2.4582909e-09
-4.7909517e-08
4.8193718e-08
3.0487551e-09
4.8510695e-08
3.6246215e-09
4.8792486e-08
3.9763248e-09
4.9036195e-08
4.1208129e-09
4.9273322e-08
4.1486965e-09
4.9503129e-08
4.1217511e-09
4.9698042e-08
4.0301095e-09
4.9832473e-08
3.8581645e-09
4.9896891e-08
3.6207542e-09
4.9899241e-08
3.3528838e-09
4.9856121e-08
3.0936698e-09
4.9781791e-08
2.8698594e-09
4.9684595e-08
2.6889767e-09
4.9568218e-08
2.545614e-09
4.9435542e-08
2.4305672e-09
4.9289214e-08
2.336409e-09
4.9130857e-08
2.2575842e-09
4.8961062e-08
2.1896683e-09
4.8779858e-08
2.129212e-09
4.8587141e-08
2.0737529e-09
4.8382887e-08
2.0217026e-09
4.8167228e-08
1.9721275e-09
4.7940459e-08
1.9245285e-09
4.7703024e-08
1.8786689e-09
4.7455468e-08
1.8344482e-09
4.7198408e-08
1.7918238e-09
4.6932507e-08
1.7507678e-09
4.6658447e-08
1.7112389e-09
4.6376913e-08
1.6731731e-09
4.6088582e-08
1.6364909e-09
4.5794118e-08
1.6011035e-09
4.5494171e-08
1.5669221e-09
4.5189367e-08
1.5338604e-09
4.4880312e-08
1.50184e-09
4.456759e-08
1.4707889e-09
4.4251758e-08
1.4406456e-09
4.3933349e-08
1.4113551e-09
4.3612869e-08
1.382872e-09
4.3290798e-08
1.3551556e-09
4.2967588e-08
1.3281738e-09
4.2643662e-08
1.3018963e-09
4.2319417e-08
1.2762998e-09
4.1995224e-08
1.2513609e-09
4.1671423e-08
1.227062e-09
4.1348331e-08
1.2033833e-09
4.1026236e-08
1.1803107e-09
4.0705405e-08
1.1578264e-09
4.0386077e-08
1.1359179e-09
4.0068471e-08
1.1145687e-09
3.9752782e-08
1.0937673e-09
3.9439185e-08
1.0734978e-09
3.9127838e-08
1.0537495e-09
3.8818877e-08
1.0345065e-09
3.8512425e-08
1.015759e-09
3.8208586e-08
9.974911e-10
3.790745e-08
9.7969351e-10
3.7609097e-08
9.6235058e-10
3.731359e-08
9.4545372e-10
3.7020985e-08
9.2898719e-10
3.6731324e-08
9.1294334e-10
3.6444642e-08
8.9730621e-10
3.6160965e-08
8.8206905e-10
3.5880312e-08
8.6721583e-10
3.5602692e-08
8.5274079e-10
3.5328113e-08
8.386277e-10
3.5056573e-08
8.2487192e-10
3.4788068e-08
8.1145681e-10
3.4522587e-08
7.9837927e-10
3.4260117e-08
7.8562188e-10
3.400064e-08
7.7318317e-10
3.3744138e-08
7.610451e-10
3.3490586e-08
7.4920801e-10
3.3239961e-08
7.3765278e-10
3.2992234e-08
7.2638184e-10
3.2747378e-08
7.1537485e-10
3.250536e-08
7.046366e-10
3.2266152e-08
6.9414517e-10
3.2029719e-08
6.8390802e-10
3.1796029e-08
6.7390141e-10
3.1565047e-08
6.6413566e-10
3.1336739e-08
6.5458489e-10
3.1111069e-08
6.4526259e-10
3.0888003e-08
6.3614053e-10
3.0667503e-08
6.2723549e-10
3.0449538e-08
6.185166e-10
3.0234066e-08
6.1000426e-10
3.0021058e-08
6.0166464e-10
2.9810473e-08
5.9352201e-10
2.960228e-08
5.8553929e-10
2.939644e-08
5.7774481e-10
2.9192924e-08
5.7009798e-10
2.899169e-08
5.6263148e-10
2.8792711e-08
5.5530087e-10
2.8595948e-08
5.4814354e-10
2.8401373e-08
5.4111071e-10
2.8208947e-08
5.3424493e-10
2.8018644e-08
5.2749253e-10
2.7830426e-08
5.2090178e-10
2.7644268e-08
5.1441353e-10
2.7460132e-08
5.0808236e-10
2.7277996e-08
5.0184293e-10
2.7097821e-08
4.957569e-10
2.6919588e-08
4.8975185e-10
2.6743256e-08
4.8389741e-10
2.656881e-08
4.7811307e-10
2.6396208e-08
4.7247751e-10
2.6225439e-08
4.6690095e-10
2.6056459e-08
4.614723e-10
2.5889259e-08
4.5609129e-10
2.5723797e-08
4.5085832e-10
2.5560066e-08
4.4566119e-10
2.5398021e-08
4.4061324e-10
2.5237659e-08
4.3558895e-10
2.5078936e-08
4.3071594e-10
2.4921852e-08
4.258539e-10
2.4766359e-08
4.2114629e-10
2.4612462e-08
4.1643633e-10
2.4460113e-08
4.1188495e-10
2.4309319e-08
4.0731734e-10
2.416003e-08
4.0291338e-10
2.4012259e-08
3.984787e-10
2.3865953e-08
3.9421374e-10
2.3721129e-08
3.8990281e-10
2.357773e-08
3.8576874e-10
2.3435781e-08
3.8157248e-10
2.3295221e-08
3.7756149e-10
2.315608e-08
3.7347088e-10
2.3018294e-08
3.6957541e-10
2.2881898e-08
3.6558144e-10
2.2746824e-08
3.6179411e-10
2.2613116e-08
3.5788773e-10
2.2480698e-08
3.5420126e-10
2.2349624e-08
3.5037334e-10
2.2219812e-08
3.4678052e-10
2.2091324e-08
3.4302177e-10
2.1964071e-08
3.3951537e-10
2.1838126e-08
3.3581625e-10
2.1713391e-08
3.3238896e-10
2.158995e-08
3.2873968e-10
2.1467698e-08
3.2538409e-10
2.134673e-08
3.2177447e-10
2.122693e-08
3.18483e-10
2.1108408e-08
3.1490243e-10
2.0991036e-08
3.1166733e-10
2.0874941e-08
3.0810459e-10
2.075998e-08
3.0491796e-10
2.0646298e-08
3.0136121e-10
2.0533738e-08
2.9821481e-10
2.0422462e-08
2.9465176e-10
2.0312299e-08
2.9153685e-10
2.0203431e-08
2.8795475e-10
2.009567e-08
2.8486194e-10
1.998922e-08
2.8124767e-10
1.9883872e-08
2.7816709e-10
1.9779858e-08
2.7450685e-10
1.9676945e-08
2.7142837e-10
1.9575393e-08
2.6770763e-10
1.9474946e-08
2.6462106e-10
1.9375892e-08
2.6082472e-10
1.927795e-08
2.5771982e-10
1.9181441e-08
2.5383261e-10
1.9086052e-08
2.5069898e-10
1.8992144e-08
2.4670596e-10
1.8899367e-08
2.4353313e-10
1.8808124e-08
2.3941986e-10
1.8718028e-08
2.3619781e-10
1.8629525e-08
2.3195031e-10
1.8542186e-08
2.2867042e-10
1.8456507e-08
2.2427529e-10
1.837201e-08
2.2093141e-10
1.8289245e-08
2.1637628e-10
1.8207681e-08
2.1296582e-10
1.8127928e-08
2.082401e-10
1.8049393e-08
2.0476502e-10
1.797275e-08
1.9986163e-10
1.7897338e-08
1.9632931e-10
1.7823906e-08
1.9124701e-10
1.7751709e-08
1.8767193e-10
1.7681579e-08
1.824167e-10
1.7612681e-08
1.7882281e-10
1.7545933e-08
1.7340834e-10
1.7480398e-08
1.6983019e-10
1.7417093e-08
1.6428013e-10
1.7354963e-08
1.6076324e-10
1.7295134e-08
1.5511641e-10
1.7236416e-08
1.5172015e-10
1.7180051e-08
1.4603757e-10
1.7124704e-08
1.4283998e-10
1.7071734e-08
1.3721318e-10
1.7019652e-08
1.3431285e-10
1.696993e-08
1.2887293e-10
1.6920921e-08
1.26389e-10
1.6874202e-08
1.2131756e-10
1.682796e-08
1.1940779e-10
1.6783865e-08
1.149486e-10
1.6739929e-08
1.1386681e-10
1.6697866e-08
1.1035554e-10
1.6655605e-08
1.1037323e-10
1.0942965e-10
5.0051494e-08
2.3980083e-09
-4.9991211e-08
5.022591e-08
2.8743392e-09
5.0498244e-08
3.3522875e-09
5.0773561e-08
3.7010078e-09
5.1017721e-08
3.876653e-09
5.1242678e-08
3.9237396e-09
5.146184e-08
3.9025888e-09
5.1663197e-08
3.8287525e-09
5.1826135e-08
3.695227e-09
5.1938718e-08
3.5081705e-09
5.2002652e-08
3.2889495e-09
5.2029517e-08
3.0668052e-09
5.2032351e-08
2.8670254e-09
5.2019655e-08
2.7016728e-09
5.1995787e-08
2.5694817e-09
5.1962965e-08
2.4633893e-09
5.1922909e-08
2.376465e-09
5.1876843e-08
2.3036508e-09
5.1825248e-08
2.2412628e-09
5.1767993e-08
2.1864675e-09
5.1704627e-08
2.1371187e-09
5.163463e-08
2.0917001e-09
5.1557538e-08
2.0492191e-09
5.1472999e-08
2.0090674e-09
5.1380778e-08
1.9708902e-09
5.1280741e-08
1.9344854e-09
5.1172836e-08
1.8997286e-09
5.1057078e-08
1.866526e-09
5.0933528e-08
1.8347889e-09
5.0802281e-08
1.8044194e-09
5.0663461e-08
1.7753114e-09
5.0517211e-08
1.7473533e-09
5.0363696e-08
1.7204366e-09
5.02031e-08
1.6944567e-09
5.0035621e-08
1.669319e-09
4.9861473e-08
1.6449365e-09
4.9680885e-08
1.6212342e-09
4.9494095e-08
1.5981445e-09
4.9301356e-08
1.5756118e-09
4.9102925e-08
1.5535858e-09
4.8899072e-08
1.5320269e-09
4.869007e-08
1.5108987e-09
4.8476196e-08
1.490174e-09
4.825773e-08
1.4698263e-09
4.8034955e-08
1.4498372e-09
4.7808151e-08
1.4301871e-09
4.7577598e-08
1.4108637e-09
4.7343573e-08
1.3918519e-09