/*--------------------------------*- C++ -*----------------------------------*\
| =========                 |                                                 |
| \\      /  F ield         | OpenFOAM: The Open Source CFD Toolbox           |
|  \\    /   O peration     | Version:  5.x                                   |
|   \\  /    A nd           | Web:      www.OpenFOAM.org                      |
|    \\/     M anipulation  |                                                 |
\*---------------------------------------------------------------------------*/
FoamFile
{
    version     2.0;
    format      ascii;
    class       volVectorField;
    location    "0.5";
    object      U;
}
// * * * * * * * * * * * * * * * * * * * * * * * * * * * * * * * * * * * * * //

dimensions      [0 1 -1 0 0 0 0];

internalField   nonuniform List<vector> 
21600
(
(0.44559013 0.0096600813 0)
(0.4025769 0.013137846 0)
(0.36165147 0.01339029 0)
(0.32008575 0.012309157 0)
(0.27848465 0.011029685 0)
(0.23873736 0.0096287323 0)
(0.20298391 0.0079003581 0)
(0.17301629 0.0058429448 0)
(0.14931948 0.0036678534 0)
(0.1315178 0.0018302317 0)
(0.11855198 0.00060884463 0)
(0.10924022 -4.4865842e-05 0)
(0.10256564 -0.00031939775 0)
(0.09768609 -0.00036971284 0)
(0.0939699 -0.0003076262 0)
(0.090949799 -0.00019927151 0)
(0.088316332 -8.6928138e-05 0)
(0.085891002 5.940513e-06 0)
(0.083586932 7.1915235e-05 0)
(0.081373175 0.00011294395 0)
(0.079246764 0.00013458223 0)
(0.07721457 0.00014282666 0)
(0.075283823 0.00014273808 0)
(0.073458354 0.00013803149 0)
(0.071737884 0.00013115606 0)
(0.070118707 0.00012356352 0)
(0.068594837 0.00011603078 0)
(0.067159049 0.0001089353 0)
(0.065803716 0.00010241665 0)
(0.064521428 9.6488473e-05 0)
(0.063305311 9.1110172e-05 0)
(0.062149196 8.6222224e-05 0)
(0.061047632 8.1763581e-05 0)
(0.059995865 7.7677531e-05 0)
(0.058989743 7.3915298e-05 0)
(0.058025666 7.0435024e-05 0)
(0.057100473 6.72025e-05 0)
(0.0562114 6.4188737e-05 0)
(0.055355985 6.1370569e-05 0)
(0.054532047 5.8728063e-05 0)
(0.053737608 5.6245503e-05 0)
(0.052970896 5.3908788e-05 0)
(0.052230272 5.1706853e-05 0)
(0.051514257 4.9629083e-05 0)
(0.050821465 4.766718e-05 0)
(0.050150641 4.5812556e-05 0)
(0.049500593 4.4058585e-05 0)
(0.048870246 4.2397909e-05 0)
(0.048258568 4.0824997e-05 0)
(0.047664632 3.9333411e-05 0)
(0.047087538 3.7918546e-05 0)
(0.046526485 3.6574638e-05 0)
(0.045980685 3.5297801e-05 0)
(0.045449447 3.4082899e-05 0)
(0.044932076 3.2926755e-05 0)
(0.044427973 3.1824812e-05 0)
(0.043936522 3.0774526e-05 0)
(0.043457205 2.9771815e-05 0)
(0.042989473 2.8814687e-05 0)
(0.042532874 2.789946e-05 0)
(0.042086917 2.7024647e-05 0)
(0.041651209 2.61869e-05 0)
(0.041225305 2.5385181e-05 0)
(0.040808864 2.4616362e-05 0)
(0.04040148 2.3879789e-05 0)
(0.040002857 2.3172482e-05 0)
(0.039612622 2.2494163e-05 0)
(0.039230519 2.1841948e-05 0)
(0.038856204 2.1215926e-05 0)
(0.038489456 2.0613229e-05 0)
(0.038129954 2.0034298e-05 0)
(0.037777509 1.9476229e-05 0)
(0.03743182 1.8939824e-05 0)
(0.037092729 1.8422083e-05 0)
(0.036759948 1.7924176e-05 0)
(0.036433346 1.7442958e-05 0)
(0.036112651 1.6979987e-05 0)
(0.035797757 1.6531936e-05 0)
(0.035488399 1.6100758e-05 0)
(0.035184497 1.56829e-05 0)
(0.034885794 1.528071e-05 0)
(0.034592231 1.4890391e-05 0)
(0.034303558 1.4514696e-05 0)
(0.034019737 1.4149561e-05 0)
(0.033740521 1.3798134e-05 0)
(0.033465894 1.3456067e-05 0)
(0.033195609 1.3126902e-05 0)
(0.032929671 1.2806007e-05 0)
(0.032667833 1.249731e-05 0)
(0.032410119 1.2195887e-05 0)
(0.032156282 1.1906038e-05 0)
(0.031906364 1.1622549e-05 0)
(0.031660115 1.135009e-05 0)
(0.031417596 1.1083147e-05 0)
(0.031178554 1.0826756e-05 0)
(0.030943068 1.0575096e-05 0)
(0.030710879 1.0333586e-05 0)
(0.030482085 1.0096072e-05 0)
(0.030256422 9.8683557e-06 0)
(0.030034003 9.6439372e-06 0)
(0.029814561 9.4290389e-06 0)
(0.029598224 9.2167537e-06 0)
(0.02938472 9.0137709e-06 0)
(0.029174191 8.8127564e-06 0)
(0.028966362 8.6208796e-06 0)
(0.028761386 8.4303223e-06 0)
(0.028558985 8.2488282e-06 0)
(0.028359324 8.0679869e-06 0)
(0.028162124 7.8961718e-06 0)
(0.027967555 7.7243838e-06 0)
(0.027775341 7.5616242e-06 0)
(0.027585658 7.3982439e-06 0)
(0.027398231 7.243987e-06 0)
(0.027213239 7.0884366e-06 0)
(0.027030413 6.9421281e-06 0)
(0.02684993 6.7939053e-06 0)
(0.026671533 6.6550329e-06 0)
(0.02649539 6.5136534e-06 0)
(0.026321258 6.3817648e-06 0)
(0.026149297 6.2467766e-06 0)
(0.025979281 6.1214254e-06 0)
(0.025811351 5.9924244e-06 0)
(0.025645313 5.8732007e-06 0)
(0.025481276 5.7498062e-06 0)
(0.025319084 5.6363337e-06 0)
(0.02515881 5.5181889e-06 0)
(0.025000347 5.4101124e-06 0)
(0.024843714 5.2968786e-06 0)
(0.024688868 5.1938742e-06 0)
(0.024535763 5.0852284e-06 0)
(0.024384434 4.9869934e-06 0)
(0.024234753 4.8826283e-06 0)
(0.024086848 4.7888779e-06 0)
(0.023940493 4.688511e-06 0)
(0.023795931 4.5989768e-06 0)
(0.023652811 4.5023451e-06 0)
(0.02351152 4.4167609e-06 0)
(0.023371551 4.3236214e-06 0)
(0.023233466 4.2417302e-06 0)
(0.023096573 4.1518556e-06 0)
(0.022961639 4.07341e-06 0)
(0.022827752 3.9865971e-06 0)
(0.022695926 3.9113495e-06 0)
(0.022564982 3.8274037e-06 0)
(0.022436228 3.7551237e-06 0)
(0.022308172 3.6738614e-06 0)
(0.022182466 3.6043196e-06 0)
(0.022057247 3.5255697e-06 0)
(0.021934577 3.4585372e-06 0)
(0.021812152 3.3821675e-06 0)
(0.021692516 3.3173857e-06 0)
(0.021572847 3.2433079e-06 0)
(0.021456257 3.1804814e-06 0)
(0.021339312 3.1086666e-06 0)
(0.02122579 3.0474756e-06 0)
(0.021111544 2.9779047e-06 0)
(0.021001129 2.9180465e-06 0)
(0.020889561 2.8507015e-06 0)
(0.020782304 2.7918767e-06 0)
(0.020673398 2.726763e-06 0)
(0.020569367 2.6686489e-06 0)
(0.02046311 2.6058391e-06 0)
(0.020362389 2.5480548e-06 0)
(0.020258773 2.4877147e-06 0)
(0.020161461 2.4298218e-06 0)
(0.020060477 2.3721922e-06 0)
(0.019966692 2.3137242e-06 0)
(0.019868331 2.2590814e-06 0)
(0.019778208 2.1995847e-06 0)
(0.019682458 2.1482075e-06 0)
(0.019596149 2.0872577e-06 0)
(0.019502995 2.0394375e-06 0)
(0.019420671 1.9766443e-06 0)
(0.019330084 1.9326968e-06 0)
(0.019251933 1.8676614e-06 0)
(0.019163873 1.8280033e-06 0)
(0.019090101 1.7602521e-06 0)
(0.019004505 1.7254597e-06 0)
(0.018935331 1.6544661e-06 0)
(0.018852109 1.625285e-06 0)
(0.018787761 1.550576e-06 0)
(0.018706779 1.52788e-06 0)
(0.018647494 1.4490093e-06 0)
(0.018568561 1.4339033e-06 0)
(0.018514576 1.3502424e-06 0)
(0.018437433 1.3441743e-06 0)
(0.018388984 1.2548774e-06 0)
(0.018313278 1.259743e-06 0)
(0.018270589 1.1638731e-06 0)
(0.018195844 1.1823018e-06 0)
(0.018159108 1.0788322e-06 0)
(0.01808467 1.1146954e-06 0)
(0.018054023 1.0020441e-06 0)
(0.017979 1.0611901e-06 0)
(0.017954507 9.3643044e-07 0)
(0.017877644 1.0281673e-06 0)
(0.017859331 8.8533259e-07 0)
(0.017778653 1.0261474e-06 0)
(0.01776704 8.4603672e-07 0)
(0.017678088 1.1107893e-06 0)
(0.47650308 0.016892596 0)
(0.47439101 0.023595952 0)
(0.47059714 0.02557484 0)
(0.46343689 0.025283645 0)
(0.45230958 0.024407524 0)
(0.43781626 0.023242397 0)
(0.42104437 0.02151698 0)
(0.40322758 0.019077357 0)
(0.38514289 0.016046594 0)
(0.36744112 0.012846306 0)
(0.35051525 0.0099278354 0)
(0.33458802 0.0075378354 0)
(0.31985854 0.0057123168 0)
(0.30639408 0.0043740972 0)
(0.29421874 0.0034407471 0)
(0.28324672 0.0028196609 0)
(0.27333804 0.0024155577 0)
(0.26434519 0.0021466929 0)
(0.25613469 0.0019549576 0)
(0.24859423 0.001804636 0)
(0.24163285 0.0016760989 0)
(0.23517778 0.0015597303 0)
(0.22917031 0.0014515845 0)
(0.22356207 0.0013505719 0)
(0.21831213 0.0012567659 0)
(0.21338508 0.0011704628 0)
(0.20874978 0.0010917521 0)
(0.20437856 0.0010204328 0)
(0.20024672 0.00095603991 0)
(0.19633228 0.00089794034 0)
(0.19261568 0.00084543987 0)
(0.18907965 0.00079785433 0)
(0.1857089 0.00075455468 0)
(0.18248994 0.00071498251 0)
(0.17941082 0.00067865841 0)
(0.17646099 0.00064517453 0)
(0.17363103 0.00061419117 0)
(0.17091256 0.00058542274 0)
(0.16829804 0.00055863323 0)
(0.16578072 0.00053362205 0)
(0.16335441 0.00051022221 0)
(0.16101357 0.00048828795 0)
(0.15875307 0.00046769623 0)
(0.15656826 0.00044833591 0)
(0.1544548 0.00043011202 0)
(0.15240878 0.00041293587 0)
(0.15042647 0.00039673137 0)
(0.14850456 0.00038142535 0)
(0.14663983 0.00036695521 0)
(0.14482943 0.00035325931 0)
(0.14307057 0.00034028581 0)
(0.14136081 0.00032798237 0)
(0.13969771 0.00031630581 0)
(0.13807915 0.00030521133 0)
(0.13650299 0.00029466309 0)
(0.13496741 0.00028462263 0)
(0.13347051 0.00027506026 0)
(0.13201071 0.00026594279 0)
(0.1305863 0.00025724569 0)
(0.12919593 0.00024894007 0)
(0.12783806 0.0002410058 0)
(0.12651151 0.00023341749 0)
(0.12521491 0.00022615872 0)
(0.1239472 0.00021920687 0)
(0.12270715 0.00021254867 0)
(0.12149384 0.00020616368 0)
(0.12030615 0.00020004144 0)
(0.11914327 0.00019416317 0)
(0.11800416 0.00018852091 0)
(0.11688815 0.00018309706 0)
(0.11579423 0.00017788594 0)
(0.11472185 0.00017287084 0)
(0.11367008 0.00016804825 0)
(0.11263843 0.00016340192 0)
(0.11162602 0.00015893039 0)
(0.11063246 0.00015461758 0)
(0.1096569 0.00015046404 0)
(0.10869903 0.00014645367 0)
(0.10775804 0.00014258899 0)
(0.10683367 0.00013885355 0)
(0.10592515 0.00013525179 0)
(0.1050323 0.00013176681 0)
(0.10415434 0.00012840495 0)
(0.10329117 0.0001251487 0)
(0.10244203 0.00012200622 0)
(0.10160686 0.00011895924 0)
(0.10078493 0.00011601774 0)
(0.099976228 0.00011316261 0)
(0.099180019 0.00011040561 0)
(0.098396367 0.00010772673 0)
(0.09762452 0.0001051394 0)
(0.096864604 0.00010262266 0)
(0.096115861 0.00010019166 0)
(0.09537847 9.782439e-05 0)
(0.094651666 9.5537665e-05 0)
(0.093935679 9.330836e-05 0)
(0.093229735 9.115501e-05 0)
(0.092534113 8.9053264e-05 0)
(0.091848028 8.7023391e-05 0)
(0.091171805 8.5039702e-05 0)
(0.09050465 8.3124341e-05 0)
(0.089846929 8.1250064e-05 0)
(0.089197839 7.9441024e-05 0)
(0.088557785 7.7668297e-05 0)
(0.087925955 7.5958148e-05 0)
(0.087302789 7.4279712e-05 0)
(0.086687471 7.2661692e-05 0)
(0.086080467 7.1070926e-05 0)
(0.085480962 6.9538744e-05 0)
(0.084889442 6.8029595e-05 0)
(0.084305099 6.6577555e-05 0)
(0.083728429 6.5144363e-05 0)
(0.08315864 6.3767264e-05 0)
(0.082596228 6.240488e-05 0)
(0.082040427 6.1097811e-05 0)
(0.081491719 5.9801552e-05 0)
(0.080949376 5.8559986e-05 0)
(0.080413855 5.7325458e-05 0)
(0.079884479 5.614526e-05 0)
(0.079361658 5.4968394e-05 0)
(0.078844791 5.3845652e-05 0)
(0.078334217 5.2722712e-05 0)
(0.077829434 5.1653806e-05 0)
(0.077330683 5.0581301e-05 0)
(0.076837589 4.9562871e-05 0)
(0.076350263 4.8537534e-05 0)
(0.075868494 4.7566442e-05 0)
(0.075392224 4.6585193e-05 0)
(0.074921445 4.5658527e-05 0)
(0.074455885 4.4718454e-05 0)
(0.07399579 4.3833497e-05 0)
(0.07354062 4.2931848e-05 0)
(0.073090931 4.2086044e-05 0)
(0.072645853 4.1220233e-05 0)
(0.07220632 4.0411177e-05 0)
(0.071771058 3.9578766e-05 0)
(0.07134146 3.8804151e-05 0)
(0.070915761 3.8002837e-05 0)
(0.070495904 3.7260465e-05 0)
(0.070079537 3.6488063e-05 0)
(0.069669259 3.5775834e-05 0)
(0.069262012 3.5030292e-05 0)
(0.068861179 3.4346176e-05 0)
(0.068462862 3.3625524e-05 0)
(0.068071373 3.2967597e-05 0)
(0.067681817 3.226994e-05 0)
(0.067299602 3.1636346e-05 0)
(0.066918657 3.0959874e-05 0)
(0.066545682 3.0348803e-05 0)
(0.066173219 2.9691855e-05 0)
(0.065809485 2.9101462e-05 0)
(0.065445394 2.8462558e-05 0)
(0.065090942 2.7890918e-05 0)
(0.064735132 2.7268803e-05 0)
(0.064390043 2.671395e-05 0)
(0.064042442 2.6107456e-05 0)
(0.063706841 2.5567504e-05 0)
(0.063367394 2.4975512e-05 0)
(0.06304145 2.4448649e-05 0)
(0.062710118 2.3870156e-05 0)
(0.062394051 2.3354568e-05 0)
(0.062070808 2.2788831e-05 0)
(0.061764889 2.2282607e-05 0)
(0.061449719 2.1729248e-05 0)
(0.061154271 2.1230362e-05 0)
(0.060847164 2.0689338e-05 0)
(0.060562564 2.0195749e-05 0)
(0.060263512 1.9667241e-05 0)
(0.059990195 1.9177052e-05 0)
(0.059699179 1.8661377e-05 0)
(0.059437638 1.8172941e-05 0)
(0.059154628 1.7670578e-05 0)
(0.058905409 1.718257e-05 0)
(0.058630345 1.6694223e-05 0)
(0.058394052 1.6205565e-05 0)
(0.058126832 1.5732436e-05 0)
(0.057904118 1.5242161e-05 0)
(0.057644575 1.4786259e-05 0)
(0.057436137 1.4293628e-05 0)
(0.057184012 1.3857864e-05 0)
(0.056990579 1.3362734e-05 0)
(0.056745486 1.2950777e-05 0)
(0.056567805 1.2453541e-05 0)
(0.056329192 1.2070092e-05 0)
(0.056168021 1.1571139e-05 0)
(0.055935122 1.1222488e-05 0)
(0.055791211 1.0722267e-05 0)
(0.055562983 1.0416983e-05 0)
(0.055437047 9.9166761e-06 0)
(0.055212074 9.6667553e-06 0)
(0.05510474 9.1684064e-06 0)
(0.05488111 8.9909863e-06 0)
(0.054792867 8.4961612e-06 0)
(0.054568013 8.4160835e-06 0)
(0.054499178 7.9247779e-06 0)
(0.054269559 7.9788542e-06 0)
(0.054220388 7.4909931e-06 0)
(0.053980537 7.72898e-06 0)
(0.053952476 7.2414384e-06 0)
(0.0536916 7.8913042e-06 0)
(0.47976331 0.015745885 0)
(0.48108081 0.021484674 0)
(0.48388212 0.024575754 0)
(0.48655548 0.025586857 0)
(0.48781872 0.025702995 0)
(0.48723724 0.025402551 0)
(0.484855 0.024569307 0)
(0.48088444 0.023001614 0)
(0.47551138 0.0207773 0)
(0.46893771 0.018209405 0)
(0.46141967 0.015686783 0)
(0.45321026 0.013477197 0)
(0.44461088 0.011673591 0)
(0.43585696 0.0102345 0)
(0.42715621 0.0090969367 0)
(0.41860891 0.0081932734 0)
(0.41025537 0.0074606357 0)
(0.40210926 0.0068474925 0)
(0.39417422 0.0063169476 0)
(0.38645119 0.0058453739 0)
(0.37894134 0.0054186884 0)
(0.37164707 0.0050287883 0)
(0.36457151 0.0046710588 0)
(0.35771762 0.0043427745 0)
(0.3510873 0.0040421078 0)
(0.34468077 0.0037675228 0)
(0.33849651 0.0035174857 0)
(0.33253119 0.0032902766 0)
(0.32677984 0.0030840032 0)
(0.3212363 0.0028966909 0)
(0.3158934 0.0027263906 0)
(0.3107434 0.0025712525 0)
(0.30577813 0.0024295775 0)
(0.30098929 0.0022998332 0)
(0.29636854 0.0021806641 0)
(0.29190773 0.0020708787 0)
(0.28759889 0.0019694439 0)
(0.28343441 0.0018754622 0)
(0.27940693 0.0017881622 0)
(0.27550957 0.0017068731 0)
(0.27173569 0.0016310186 0)
(0.26807917 0.0015600922 0)
(0.26453411 0.0014936564 0)
(0.26109511 0.0014313205 0)
(0.25775694 0.0013727449 0)
(0.25451487 0.0013176205 0)
(0.25136429 0.0012656779 0)
(0.24830103 0.0012166676 0)
(0.24532101 0.0011703716 0)
(0.24242059 0.0011265851 0)
(0.23959614 0.0010851298 0)
(0.23684446 0.0010458354 0)
(0.2341623 0.0010085553 0)
(0.23154686 0.00097314643 0)
(0.22899523 0.00093948757 0)
(0.22650494 0.000907458 0)
(0.22407337 0.00087695708 0)
(0.22169833 0.00084788204 0)
(0.21937746 0.00082014917 0)
(0.21710884 0.00079367021 0)
(0.21489031 0.00076837546 0)
(0.21272017 0.00074418834 0)
(0.21059645 0.00072105079 0)
(0.20851767 0.00069889568 0)
(0.206482 0.00067767476 0)
(0.20448814 0.00065732851 0)
(0.2025344 0.00063781713 0)
(0.20061966 0.00061908708 0)
(0.19874232 0.00060110591 0)
(0.19690142 0.00058382472 0)
(0.19509546 0.0005672176 0)
(0.19332362 0.00055123932 0)
(0.19158447 0.00053586995 0)
(0.18987733 0.00052106688 0)
(0.18820083 0.00050681561 0)
(0.18655441 0.00049307536 0)
(0.18493675 0.00047983683 0)
(0.18334741 0.00046706034 0)
(0.18178512 0.00045474153 0)
(0.18024953 0.00044284114 0)
(0.17873941 0.00043135949 0)
(0.17725451 0.0004202573 0)
(0.17579361 0.00040953946 0)
(0.17435658 0.00039916621 0)
(0.17294221 0.00038914676 0)
(0.17155046 0.00037944049 0)
(0.17018012 0.00037006087 0)
(0.16883125 0.00036096615 0)
(0.16750264 0.00035217392 0)
(0.16619443 0.00034364098 0)
(0.16490541 0.00033538893 0)
(0.16363581 0.00032737292 0)
(0.16238442 0.00031961852 0)
(0.16115153 0.00031207903 0)
(0.15993592 0.00030478393 0)
(0.15873797 0.00029768438 0)
(0.15755644 0.00029081385 0)
(0.15639179 0.00028412107 0)
(0.15524276 0.00027764357 0)
(0.15410987 0.00027132736 0)
(0.15299187 0.00026521429 0)
(0.15188931 0.00025924719 0)
(0.15080095 0.00025347248 0)
(0.14972741 0.00024782943 0)
(0.14866741 0.00024236935 0)
(0.14762163 0.00023702733 0)
(0.1465888 0.00023186018 0)
(0.14556961 0.00022679818 0)
(0.14456283 0.000221904 0)
(0.14356915 0.0002171027 0)
(0.14258737 0.00021246331 0)
(0.14161818 0.00020790482 0)
(0.14066043 0.00020350346 0)
(0.13971477 0.00019917146 0)
(0.13878013 0.00019499256 0)
(0.13785712 0.00019087199 0)
(0.13694474 0.00018690123 0)
(0.13604353 0.00018297808 0)
(0.13515261 0.00017920222 0)
(0.13427241 0.00017546353 0)
(0.13340222 0.0001718702 0)
(0.1325423 0.00016830399 0)
(0.13169215 0.00016488171 0)
(0.13085182 0.00016147679 0)
(0.13002106 0.00015821489 0)
(0.12919967 0.00015496079 0)
(0.12838772 0.00015184932 0)
(0.12758467 0.00014873618 0)
(0.12679098 0.00014576587 0)
(0.1260057 0.00014278439 0)
(0.12522979 0.00013994659 0)
(0.12446175 0.00013708798 0)
(0.12370315 0.00013437456 0)
(0.12295187 0.00013163053 0)
(0.12221019 0.00012903381 0)
(0.12147521 0.0001263965 0)
(0.12075008 0.00012390921 0)
(0.12003099 0.00012137117 0)
(0.1193221 0.00011898638 0)
(0.11861852 0.00011654049 0)
(0.11792562 0.00011425162 0)
(0.11723719 0.00011189111 0)
(0.11656005 0.00010969184 0)
(0.11588647 0.00010741022 0)
(0.11522495 0.00010529454 0)
(0.11456593 0.00010308551 0)
(0.11391991 0.00010104766 0)
(0.1132752 9.8905166e-05 0)
(0.11264464 9.6939594e-05 0)
(0.11201403 9.485789e-05 0)
(0.11139895 9.2959085e-05 0)
(0.11078226 9.0932829e-05 0)
(0.11018274 8.9095237e-05 0)
(0.10957981 8.7119528e-05 0)
(0.108996 8.5337629e-05 0)
(0.10840673 8.340781e-05 0)
(0.10783885 8.1676317e-05 0)
(0.10726313 7.9787892e-05 0)
(0.10671149 7.810177e-05 0)
(0.10614928 7.6250526e-05 0)
(0.10561427 7.4604921e-05 0)
(0.10506552 7.2787185e-05 0)
(0.10454762 7.1177263e-05 0)
(0.10401231 6.9390116e-05 0)
(0.10351209 6.7811032e-05 0)
(0.1029902 6.6052309e-05 0)
(0.10250833 6.4499401e-05 0)
(0.10199987 6.2767529e-05 0)
(0.10153712 6.1236663e-05 0)
(0.10104207 5.9530555e-05 0)
(0.1005993 5.8018422e-05 0)
(0.10011761 5.6337537e-05 0)
(0.099695793 5.4841887e-05 0)
(0.09922739 5.3186391e-05 0)
(0.098827589 5.1706051e-05 0)
(0.098372313 5.0077391e-05 0)
(0.097995684 4.8612184e-05 0)
(0.097553269 4.7013826e-05 0)
(0.097201046 4.5564903e-05 0)
(0.096771075 4.400261e-05 0)
(0.096444548 4.2573153e-05 0)
(0.096026393 4.1054703e-05 0)
(0.095726896 3.9649925e-05 0)
(0.095319655 3.8185568e-05 0)
(0.095048543 3.6812021e-05 0)
(0.094650961 3.5415842e-05 0)
(0.094409583 3.4081919e-05 0)
(0.094019948 3.2773643e-05 0)
(0.093809592 3.14912e-05 0)
(0.093425592 3.0298611e-05 0)
(0.093247415 2.9083329e-05 0)
(0.092865962 2.8045364e-05 0)
(0.092720915 2.691482e-05 0)
(0.092337912 2.6086165e-05 0)
(0.092226694 2.5061412e-05 0)
(0.091836574 2.4517717e-05 0)
(0.091759805 2.3640682e-05 0)
(0.091354187 2.3462156e-05 0)
(0.091313858 2.2824042e-05 0)
(0.090878351 2.3456455e-05 0)
(0.48222559 0.014728849 0)
(0.48325592 0.019052276 0)
(0.48585302 0.022166919 0)
(0.48935353 0.02369217 0)
(0.49277051 0.024193679 0)
(0.4955362 0.024157264 0)
(0.49749388 0.023670769 0)
(0.49861652 0.022637682 0)
(0.49886825 0.021073599 0)
(0.49819383 0.01916785 0)
(0.49660594 0.01719599 0)
(0.49419709 0.015394953 0)
(0.49114471 0.013881477 0)
(0.48764001 0.012663698 0)
(0.48384817 0.011685514 0)
(0.47987118 0.010885434 0)
(0.47575975 0.010214213 0)
(0.47153603 0.0096348458 0)
(0.4672097 0.009120232 0)
(0.46278682 0.008651421 0)
(0.45827424 0.0082159805 0)
(0.4536813 0.0078063322 0)
(0.44901996 0.0074182734 0)
(0.44430397 0.0070497485 0)
(0.43954792 0.0066999189 0)
(0.43476633 0.0063684754 0)
(0.42997307 0.0060552386 0)
(0.42518098 0.0057598737 0)
(0.42040166 0.0054818226 0)
(0.41564548 0.0052203338 0)
(0.41092154 0.0049745382 0)
(0.40623783 0.0047435084 0)
(0.40160114 0.0045263147 0)
(0.39701735 0.004322047 0)
(0.39249131 0.0041298414 0)
(0.38802711 0.003948879 0)
(0.38362799 0.0037783997 0)
(0.37929663 0.0036176917 0)
(0.37503495 0.0034661012 0)
(0.3708445 0.0033230166 0)
(0.36672617 0.003187878 0)
(0.3626806 0.0030601591 0)
(0.3587079 0.0029393787 0)
(0.35480803 0.0028250814 0)
(0.35098049 0.0027168515 0)
(0.34722476 0.002614293 0)
(0.34353991 0.0025170464 0)
(0.33992507 0.0024247667 0)
(0.33637898 0.0023371433 0)
(0.33290059 0.0022538761 0)
(0.32948842 0.0021746971 0)
(0.32614129 0.0020993451 0)
(0.32285762 0.0020275893 0)
(0.31963614 0.0019592026 0)
(0.31647524 0.0018939872 0)
(0.31337363 0.001831746 0)
(0.31032967 0.0017723098 0)
(0.30734213 0.0017155069 0)
(0.30440935 0.0016611929 0)
(0.30153017 0.0016092177 0)
(0.29870295 0.0015594583 0)
(0.2959266 0.0015117828 0)
(0.29319952 0.0014660862 0)
(0.29052071 0.0014222517 0)
(0.28788859 0.0013801905 0)
(0.28530227 0.0013397982 0)
(0.2827602 0.0013009998 0)
(0.28026159 0.0012637012 0)
(0.27780493 0.0012278397 0)
(0.27538951 0.0011933293 0)
(0.27301387 0.0011601183 0)
(0.27067739 0.0011281274 0)
(0.26837864 0.001097315 0)
(0.26611711 0.0010676066 0)
(0.26389138 0.0010389698 0)
(0.26170104 0.0010113339 0)
(0.2595447 0.00098467535 0)
(0.25742203 0.0009589259 0)
(0.25533166 0.00093407017 0)
(0.25327336 0.00091004142 0)
(0.25124575 0.00088683215 0)
(0.24924872 0.00086437616 0)
(0.24728089 0.00084267363 0)
(0.24534223 0.00082165815 0)
(0.24343136 0.0008013372 0)
(0.24154834 0.0007816435 0)
(0.23969179 0.00076259165 0)
(0.23786186 0.00074411299 0)
(0.23605716 0.00072622908 0)
(0.23427793 0.00070886929 0)
(0.23252275 0.00069206195 0)
(0.23079196 0.00067573403 0)
(0.22908412 0.00065992065 0)
(0.22739966 0.00064454594 0)
(0.22573713 0.00062965174 0)
(0.22409702 0.00061515885 0)
(0.22247786 0.00060111592 0)
(0.22088023 0.00058743987 0)
(0.21930265 0.00057418642 0)
(0.21774573 0.00056126797 0)
(0.21620803 0.00054874771 0)
(0.21469018 0.00053653283 0)
(0.21319076 0.0005246944 0)
(0.21171043 0.00051313359 0)
(0.21024778 0.00050193006 0)
(0.2088035 0.0004909779 0)
(0.20737622 0.00048036622 0)
(0.20596662 0.00046998106 0)
(0.20457337 0.00045992168 0)
(0.20319714 0.0004500651 0)
(0.20183668 0.0004405218 0)
(0.20049259 0.00043115833 0)
(0.19916375 0.00042209763 0)
(0.19785065 0.0004131947 0)
(0.19655232 0.00040458556 0)
(0.19526912 0.00039611301 0)
(0.19400027 0.00038792686 0)
(0.19274594 0.00037985661 0)
(0.19150559 0.00037206691 0)
(0.19027917 0.00036437298 0)
(0.18906642 0.00035695495 0)
(0.18786699 0.00034961321 0)
(0.186681 0.00034254386 0)
(0.18550769 0.00033553171 0)
(0.18434767 0.00032878961 0)
(0.18319969 0.00032208589 0)
(0.1820649 0.00031565103 0)
(0.18094148 0.00030923579 0)
(0.17983126 0.00030308952 0)
(0.17873169 0.0002969439 0)
(0.17764543 0.00029106875 0)
(0.17656904 0.00028517493 0)
(0.17550617 0.00027955446 0)
(0.17445234 0.00027389556 0)
(0.17341238 0.00026851426 0)
(0.17238052 0.00026307425 0)
(0.17136302 0.0002579174 0)
(0.17035261 0.00025268098 0)
(0.16935719 0.00024773464 0)
(0.16836773 0.00024268717 0)
(0.16739407 0.00023793802 0)
(0.16642512 0.00023306552 0)
(0.16547298 0.00022850082 0)
(0.16452412 0.00022378977 0)
(0.16359333 0.0002193974 0)
(0.16266419 0.00021483469 0)
(0.16175463 0.00021060305 0)
(0.16084491 0.00020617596 0)
(0.15995656 0.00020209388 0)
(0.15906596 0.00019779022 0)
(0.15819889 0.00019384673 0)
(0.15732717 0.00018965494 0)
(0.15648152 0.00018583914 0)
(0.15562849 0.00018174832 0)
(0.15480452 0.00017804953 0)
(0.15397002 0.00017404918 0)
(0.15316808 0.00017045717 0)
(0.15235199 0.00016653709 0)
(0.15157255 0.00016304219 0)
(0.15077479 0.00015919265 0)
(0.15001843 0.00015578568 0)
(0.14923896 0.0001519978 0)
(0.14850639 0.00014866985 0)
(0.14774518 0.00014493595 0)
(0.14703726 0.0001416784 0)
(0.1462943 0.000137992 0)
(0.145612 0.00013479686 0)
(0.14488729 0.00013115253 0)
(0.14423176 0.000128013 0)
(0.14352527 0.00012440628 0)
(0.14289779 0.00012131731 0)
(0.14220947 0.00011774487 0)
(0.14161147 0.00011470365 0)
(0.14094122 0.00011116359 0)
(0.14037428 0.00010816978 0)
(0.13972188 0.00010466262 0)
(0.1391877 0.00010171846 0)
(0.13855281 9.8248361e-05 0)
(0.13805323 9.535932e-05 0)
(0.13743527 9.1934594e-05 0)
(0.13697221 8.9110485e-05 0)
(0.13637033 8.5743214e-05 0)
(0.1359458 8.2998351e-05 0)
(0.13535877 7.9705171e-05 0)
(0.13497482 7.7057696e-05 0)
(0.13440094 7.3862206e-05 0)
(0.1340596 7.133525e-05 0)
(0.13349656 6.8271207e-05 0)
(0.13319979 6.5895484e-05 0)
(0.13264448 6.3010688e-05 0)
(0.13239408 6.082494e-05 0)
(0.13184239 5.8185739e-05 0)
(0.13163988 5.6234622e-05 0)
(0.13108644 5.393211e-05 0)
(0.13093298 5.2273169e-05 0)
(0.13037057 5.0427278e-05 0)
(0.13026719 4.9169445e-05 0)
(0.12968533 4.7904057e-05 0)
(0.12963393 4.7227133e-05 0)
(0.12901704 4.7331406e-05 0)
(0.48420125 0.014152637 0)
(0.48509345 0.017536538 0)
(0.48714632 0.020380444 0)
(0.4901158 0.022086016 0)
(0.49337613 0.022767134 0)
(0.49640424 0.022797258 0)
(0.49899179 0.022384524 0)
(0.50110535 0.0215608 0)
(0.50272932 0.020341868 0)
(0.50380721 0.018836218 0)
(0.50428999 0.017229792 0)
(0.50418875 0.015713244 0)
(0.50359305 0.014405953 0)
(0.50263397 0.013340433 0)
(0.50143546 0.012483884 0)
(0.50008219 0.011785566 0)
(0.49861674 0.011202013 0)
(0.49705276 0.010701136 0)
(0.49538895 0.010259515 0)
(0.49361881 0.0098599967 0)
(0.49173588 0.0094903729 0)
(0.48973629 0.0091424583 0)
(0.48761922 0.0088111917 0)
(0.48538666 0.0084937477 0)
(0.48304265 0.0081887419 0)
(0.48059264 0.0078955821 0)
(0.47804287 0.0076139987 0)
(0.47540012 0.007343784 0)
(0.47267129 0.0070846664 0)
(0.46986344 0.0068362731 0)
(0.46698347 0.0065981593 0)
(0.46403828 0.0063698377 0)
(0.46103447 0.0061508198 0)
(0.45797857 0.005940628 0)
(0.45487674 0.0057388179 0)
(0.45173506 0.0055449715 0)
(0.44855921 0.0053587116 0)
(0.44535477 0.0051796857 0)
(0.44212691 0.0050075792 0)
(0.43888069 0.0048420953 0)
(0.43562071 0.0046829683 0)
(0.43235149 0.0045299416 0)
(0.42907708 0.0043827837 0)
(0.42580146 0.0042412643 0)
(0.42252808 0.0041051745 0)
(0.41926041 0.0039743011 0)
(0.41600135 0.0038484506 0)
(0.41275385 0.0037274221 0)
(0.40952031 0.0036110344 0)
(0.4063032 0.003499097 0)
(0.40310444 0.0033914394 0)
(0.39992607 0.0032878805 0)
(0.39676958 0.0031882605 0)
(0.39363666 0.003092408 0)
(0.39052839 0.0030001744 0)
(0.38744614 0.0029113984 0)
(0.38439066 0.0028259433 0)
(0.38136305 0.0027436581 0)
(0.37836376 0.0026644178 0)
(0.37539367 0.0025880815 0)
(0.37245297 0.0025145358 0)
(0.36954237 0.0024436493 0)
(0.36666186 0.0023753203 0)
(0.36381197 0.0023094262 0)
(0.36099251 0.0022458766 0)
(0.35820393 0.0021845567 0)
(0.35544588 0.0021253872 0)
(0.35271871 0.0020682603 0)
(0.35002195 0.0020131073 0)
(0.34735588 0.0019598263 0)
(0.34471993 0.0019083591 0)
(0.34211434 0.0018586086 0)
(0.33953846 0.0018105268 0)
(0.33699249 0.00176402 0)
(0.3344757 0.0017190505 0)
(0.33198831 0.0016755268 0)
(0.32952949 0.0016334212 0)
(0.32709947 0.0015926438 0)
(0.32469737 0.0015531769 0)
(0.32232343 0.0015149309 0)
(0.31997671 0.0014778978 0)
(0.3176575 0.0014419877 0)
(0.31536478 0.0014072021 0)
(0.31309888 0.00137345 0)
(0.31085873 0.0013407426 0)
(0.30864471 0.0013089864 0)
(0.3064557 0.0012782025 0)
(0.30429212 0.0012482948 0)
(0.30215281 0.0012192937 0)
(0.30003823 0.0011910996 0)
(0.2979472 0.0011637526 0)
(0.2958802 0.001137149 0)
(0.29383604 0.0011113384 0)
(0.29181522 0.0010862126 0)
(0.28981654 0.0010618309 0)
(0.28784054 0.0010380796 0)
(0.285886 0.0010150281 0)
(0.28395348 0.0009925566 0)
(0.28204177 0.00097074493 0)
(0.28015141 0.00094946596 0)
(0.27828126 0.00092881096 0)
(0.27643182 0.00090864442 0)
(0.27460199 0.00088906969 0)
(0.27279223 0.00086994164 0)
(0.27100154 0.00085137685 0)
(0.26923029 0.00083321901 0)
(0.26747759 0.00081559921 0)
(0.26574371 0.0007983485 0)
(0.2640279 0.00078161375 0)
(0.2623303 0.00076521164 0)
(0.26065033 0.00074930659 0)
(0.25898795 0.00073369884 0)
(0.25734281 0.00071857206 0)
(0.25571463 0.00070370846 0)
(0.25410336 0.00068931218 0)
(0.25250841 0.00067514593 0)
(0.2509301 0.00066143587 0)
(0.24936745 0.0006479233 0)
(0.24782123 0.0006348581 0)
(0.24629 0.00062195858 0)
(0.24477504 0.00060949956 0)
(0.24327437 0.00059717508 0)
(0.24178991 0.00058528617 0)
(0.24031898 0.00057350105 0)
(0.2388643 0.00056214849 0)
(0.23742235 0.0005508691 0)
(0.23599676 0.00054002132 0)
(0.23458306 0.00052921583 0)
(0.23318595 0.00051884321 0)
(0.23179979 0.00050848146 0)
(0.23043059 0.00049855615 0)
(0.22907132 0.00048860952 0)
(0.22772952 0.00047910525 0)
(0.22639651 0.00046954646 0)
(0.22508167 0.00046043839 0)
(0.22377434 0.00045124142 0)
(0.22248604 0.00044250592 0)
(0.22120386 0.0004336458 0)
(0.21994179 0.00042526039 0)
(0.21868424 0.00041671316 0)
(0.21744813 0.00040865636 0)
(0.21621476 0.00040039893 0)
(0.21500443 0.00039265016 0)
(0.21379481 0.00038466011 0)
(0.21261016 0.00037719973 0)
(0.21142392 0.00036945523 0)
(0.21026491 0.00036226438 0)
(0.20910171 0.0003547441 0)
(0.20796842 0.00034780464 0)
(0.20682797 0.00034048795 0)
(0.20572058 0.00033378209 0)
(0.20460263 0.00032664919 0)
(0.20352142 0.00032015937 0)
(0.20242576 0.00031319126 0)
(0.20137113 0.00030690034 0)
(0.20029761 0.00030007856 0)
(0.1992701 0.00029397015 0)
(0.19821859 0.00028727663 0)
(0.19721887 0.00028133524 0)
(0.19618931 0.00027475251 0)
(0.19521821 0.00026896353 0)
(0.19421053 0.00026247527 0)
(0.19326904 0.00025682476 0)
(0.19228324 0.00025041625 0)
(0.19137252 0.00024489101 0)
(0.19040859 0.00023854921 0)
(0.18952998 0.00023313724 0)
(0.18858793 0.00022685066 0)
(0.18774298 0.00022154211 0)
(0.18682278 0.00021530078 0)
(0.18601323 0.00021008876 0)
(0.18511482 0.00020388454 0)
(0.1843426 0.00019876605 0)
(0.18346584 0.00019259317 0)
(0.18273309 0.00018756958 0)
(0.18187773 0.0001814261 0)
(0.18118677 0.00017650357 0)
(0.18035237 0.00017039324 0)
(0.17970569 0.00016558375 0)
(0.17889153 0.00015951679 0)
(0.17829177 0.00015483981 0)
(0.17749682 0.00014883252 0)
(0.17694672 0.00014431534 0)
(0.17616948 0.00013839143 0)
(0.17567186 0.00013406858 0)
(0.17491025 0.00012826294 0)
(0.17446793 0.00012417802 0)
(0.17371915 0.00011854162 0)
(0.17333486 0.00011475068 0)
(0.17259517 0.0001093562 0)
(0.17227143 0.00010592807 0)
(0.17153596 0.00010087587 0)
(0.17127493 9.7890199e-05 0)
(0.17053734 9.3315611e-05 0)
(0.17034075 9.0876332e-05 0)
(0.16959265 8.6954056e-05 0)
(0.16946191 8.5242376e-05 0)
(0.16869157 8.2183711e-05 0)
(0.16862812 8.1414453e-05 0)
(0.16781999 8.0461869e-05 0)
(0.48585925 0.013719695 0)
(0.48668947 0.016483756 0)
(0.48837885 0.018955759 0)
(0.49082122 0.020651655 0)
(0.49363814 0.021450829 0)
(0.49640507 0.021562783 0)
(0.49887623 0.021214637 0)
(0.50098492 0.020518803 0)
(0.5027288 0.019519564 0)
(0.50409094 0.018283885 0)
(0.50504172 0.01693379 0)
(0.50557781 0.015616588 0)
(0.50574943 0.014445131 0)