/*--------------------------------*- C++ -*----------------------------------*\
| =========                 |                                                 |
| \\      /  F ield         | OpenFOAM: The Open Source CFD Toolbox           |
|  \\    /   O peration     | Version:  5.x                                   |
|   \\  /    A nd           | Web:      www.OpenFOAM.org                      |
|    \\/     M anipulation  |                                                 |
\*---------------------------------------------------------------------------*/
FoamFile
{
    version     2.0;
    format      ascii;
    class       volScalarField;
    location    "0.2";
    object      p;
}
// * * * * * * * * * * * * * * * * * * * * * * * * * * * * * * * * * * * * * //

dimensions      [0 2 -2 0 0 0 0];

internalField   nonuniform List<scalar> 
21600
(
0.014780325
0.0095356078
0.0041090637
0.00071935685
-0.00042158118
-0.00028862009
0.00012069502
0.00041666396
0.00056243638
0.00061929548
0.00064044258
0.0006512658
0.00065948787
0.00066602456
0.00067041031
0.00067244703
0.00067232436
0.00067039971
0.00066703221
0.00066251443
0.00065706389
0.00065083867
0.00064395717
0.0006365105
0.00062856955
0.00062019177
0.0006114266
0.00060231443
0.0005928879
0.00058317508
0.00057320175
0.00056298934
0.00055255537
0.00054191465
0.00053108122
0.00052006717
0.00050888358
0.00049754085
0.00048604902
0.00047441837
0.00046265942
0.00045078115
0.00043879247
0.00042670321
0.00041452624
0.00040227433
0.00038996084
0.00037759779
0.00036519886
0.00035278021
0.00034036048
0.00032796043
0.00031560267
0.00030330865
0.00029110046
0.00027899977
0.00026703024
0.00025522014
0.00024360052
0.00023220739
0.00022107829
0.0002102523
0.00019976799
0.00018966309
0.00017997553
0.00017074259
0.00016200204
0.00015379245
0.00014615203
0.00013911826
0.00013272712
0.00012701252
0.00012200521
0.00011773283
0.00011421921
0.00011148368
0.00010954005
0.00010839447
0.00010804611
0.00010848335
0.0001096857
0.00011162147
0.00011424902
0.00011751664
0.00012136293
0.00012571683
0.00013049754
0.00013561441
0.00014096709
0.00014644691
0.00015194024
0.00015733293
0.00016251839
0.00016740425
0.00017192095
0.00017602633
0.0001797094
0.00018298777
0.00018590256
0.0001885112
0.00019087713
0.00019306216
0.00019511896
0.00019708575
0.00019898671
0.00020083135
0.00020261738
0.00020433569
0.00020597243
0.00020751352
0.00020894696
0.00021026233
0.00021145372
0.00021251751
0.0002134529
0.00021426083
0.00021494282
0.0002155006
0.00021593663
0.00021625186
0.00021644853
0.00021652689
0.00021648871
0.00021633471
0.00021606712
0.00021568734
0.00021519729
0.00021459876
0.00021389457
0.00021308678
0.00021217774
0.00021116958
0.00021006485
0.00020886674
0.00020757357
0.00020619079
0.00020472066
0.00020316449
0.00020152573
0.00019980581
0.00019800658
0.0001961291
0.00019417602
0.00019214685
0.00019004432
0.00018786858
0.00018561622
0.00018329175
0.00018089686
0.00017843159
0.00017589846
0.00017329893
0.0001706366
0.00016791293
0.00016513195
0.00016229476
0.00015940623
0.00015646749
0.00015348201
0.00015045126
0.00014737786
0.00014426287
0.00014110786
0.00013791287
0.00013468007
0.0001314082
0.00012809983
0.00012475328
0.00012137105
0.00011795164
0.00011449725
0.00011100653
0.00010748186
0.00010392188
0.0001003289
9.670166e-05
9.3042889e-05
8.9350696e-05
8.5628952e-05
8.1875053e-05
7.809376e-05
7.4282313e-05
7.0445524e-05
6.6580941e-05
6.269315e-05
5.8779951e-05
5.4845562e-05
5.0887986e-05
4.6911133e-05
4.2913108e-05
3.8897576e-05
3.4862948e-05
3.0812479e-05
2.6745439e-05
2.2664276e-05
1.8568896e-05
1.4461515e-05
1.0342159e-05
6.2124821e-06
2.0740834e-06
0.013532938
0.0093413279
0.004244765
0.00092291452
-0.00026541053
-0.00019171272
0.00018214085
0.00045684212
0.00059027079
0.00064049633
0.00065799847
0.00066647403
0.00067289131
0.00067793192
0.00068106334
0.00068204777
0.00068103724
0.00067835603
0.00067433695
0.00066925252
0.00066330505
0.00065664087
0.00064936918
0.00064157376
0.00063331954
0.00062465899
0.00061563751
0.0006062921
0.00059665251
0.0005867443
0.00057659125
0.00056621302
0.00055562562
0.00054484248
0.00053387651
0.00052273882
0.00051143958
0.0004999884
0.00048839465
0.00047666798
0.0004648184
0.00045285443
0.00044078448
0.00042861796
0.00041636743
0.00040404533
0.00039166479
0.00037923754
0.00036677699
0.00035429904
0.00034182218
0.00032936694
0.00031695586
0.00030461025
0.00029235208
0.00028020288
0.00026818612
0.00025632998
0.00024466536
0.00023322822
0.00022205605
0.00021118788
0.00020066229
0.00019051693
0.00018078971
0.00017151789
0.00016273917
0.00015449211
0.00014681494
0.00013974516
0.00013331873
0.00012756959
0.0001225285
0.00011822316
0.00011467741
0.00011191061
0.00010993668
0.00010876185
0.00010838536
0.00010879567
0.00010997236
0.00011188385
0.00011448855
0.00011773478
0.00012156121
0.0001258969
0.00013066111
0.00013576327
0.00014110307
0.00014657189
0.00015205609
0.00015744131
0.00016262072
0.00016750162
0.00017201408
0.00017611556
0.00017979469
0.00018306888
0.00018597914
0.00018858291
0.0001909437
0.00019312345
0.00019517503
0.00019713681
0.00019903307
0.00020087342
0.00020265554
0.00020437031
0.0002060039
0.00020754211
0.00020897293
0.00021028588
0.000211475
0.00021253668
0.00021347009
0.00021427613
0.00021495637
0.00021551251
0.00021594703
0.00021626084
0.00021645618
0.00021653335
0.00021649414
0.00021633921
0.00021607073
0.00021568962
0.00021519883
0.00021459957
0.00021389477
0.00021308622
0.00021217658
0.0002111679
0.00021006265
0.00020886422
0.00020757054
0.00020618742
0.00020471697
0.0002031605
0.00020152148
0.00019980141
0.00019800201
0.00019612437
0.0001941712
0.00019214195
0.00019003936
0.00018786376
0.00018561129
0.00018328688
0.00018089203
0.00017842682
0.00017589375
0.00017329428
0.00017063201
0.00016790841
0.00016512748
0.00016229038
0.0001594019
0.00015646323
0.00015347782
0.00015044715
0.00014737382
0.00014425894
0.00014110402
0.00013790914
0.00013467646
0.0001314047
0.00012809643
0.00012475002
0.00012136791
0.00011794864
0.00011449436
0.00011100377
0.00010747922
0.00010391938
0.00010032651
9.6699399e-05
9.3040749e-05
8.9348675e-05
8.5627057e-05
8.187327e-05
7.8092074e-05
7.4280739e-05
7.044405e-05
6.6579579e-05
6.2691869e-05
5.877878e-05
5.4844472e-05
5.0887011e-05
4.6910231e-05
4.2912316e-05
3.8896855e-05
3.4862342e-05
3.0811927e-05
2.6745001e-05
2.2663887e-05
1.8568603e-05
1.4461264e-05
1.0342003e-05
6.2123167e-06
2.0740457e-06
0.012536828
0.0091793281
0.0045100593
0.0012596539
-3.5855288e-05
-6.8111182e-05
0.00025106163
0.00050273528
0.0006242458
0.00066669112
0.00067894982
0.00068385297
0.00068765782
0.00069064974
0.00069212682
0.00069177031
0.00068967073
0.00068609721
0.00068133704
0.00067562818
0.00066914759
0.00066202307
0.00065435011
0.00064620208
0.00063763576
0.00062869719
0.00061942666
0.00060985705
0.00060001455
0.00058992189
0.00057960051
0.00056906811
0.00055833896
0.00054742506
0.00053633809
0.00052508809
0.0005136843
0.00050213552
0.00049045042
0.00047863803
0.00046670785
0.0004546679
0.00044252612
0.0004302915
0.0004179763
0.00040559266
0.00039315346
0.00038067018
0.00036815589
0.0003556263
0.00034309974
0.00033059655
0.00031813916
0.00030574881
0.00029344731
0.00028125603
0.00026919825
0.00025730204
0.00024559824
0.00023412271
0.00022291294
0.00021200796
0.00020144631
0.0001912656
0.00018150366
0.00017219775
0.00016338553
0.00015510553
0.00014739603
0.00014029454
0.00013383706
0.00012805752
0.00012298674
0.00011865244
0.00011507852
0.0001122844
0.0001102841
0.00010908393
0.00010868323
0.00010907057
0.00011022559
0.00011211677
0.00011470258
0.00011793135
0.0001217418
0.00012606311
0.00013081458
0.00013590562
0.00014123595
0.00014669691
0.00015217471
0.00015755469
0.00016272965
0.0001676065
0.00017211498
0.00017621222
0.00017988663
0.00018315557
0.0001860601
0.00018865788
0.00019101267
0.00019318659
0.00019523273
0.00019718958
0.00019908146
0.00020091801
0.00020269679
0.00020440858
0.0002060395
0.00020757525
0.00020900376
0.0002103145
0.00021150148
0.00021256113
0.00021349261
0.0002142968
0.00021497531
0.00021552981
0.00021596283
0.00021627523
0.00021646926
0.00021654519
0.00021650482
0.00021634883
0.00021607941
0.00021569738
0.00021520568
0.00021460559
0.00021390004
0.00021309079
0.00021218052
0.00021117122
0.00021006539
0.00020886671
0.0002075722
0.0002061886
0.00020471773
0.00020316088
0.00020152147
0.00019980112
0.0001980014
0.00019612351
0.00019417015
0.00019214074
0.00019003799
0.00018786262
0.00018560978
0.00018328536
0.00018089049
0.00017842524
0.00017589214
0.00017329259
0.00017063025
0.00016790662
0.00016512563
0.0001622885
0.00015939997
0.00015646126
0.00015347583
0.00015044517
0.00014737185
0.000144257
0.00014110212
0.00013790727
0.00013467469
0.00013140301
0.00012809482
0.00012474847
0.00012136645
0.00011794728
0.0001144931
0.00011100257
0.0001074781
0.00010391834
0.00010032557
9.6698517e-05
9.3039959e-05
8.9347931e-05
8.5626405e-05
8.1872664e-05
7.8091528e-05
7.4280227e-05
7.04436e-05
6.6579166e-05
6.2691507e-05
5.8778451e-05
5.4844196e-05
5.0886771e-05
4.6910044e-05
4.2912162e-05
3.8896751e-05
3.4862273e-05
3.0811895e-05
2.6745002e-05
2.2663925e-05
1.8568661e-05
1.4461351e-05
1.0342124e-05
6.2124137e-06
2.0741559e-06
0.011688834
0.0089916544
0.0047856199
0.0016407997
0.00024911633
9.5800746e-05
0.00034963826
0.00057200014
0.00067625432
0.00070592603
0.00070911409
0.00070797266
0.00070772782
0.0007077845
0.00070695842
0.0007047274
0.00070108648
0.00069623809
0.00069041422
0.00068380871
0.00067656489
0.00066878519
0.00066054568
0.00065190457
0.00064290651
0.00063358769
0.00062398044
0.00061411112
0.00060400049
0.00059366681
0.00058312787
0.0005723983
0.00056148975
0.000550412
0.00053917488
0.00052778682
0.00051625567
0.00050458909
0.0004927947
0.00048088063
0.00046885563
0.00045672701
0.00044450206
0.00043218921
0.00041980028
0.00040734698
0.00039484182
0.00038229597
0.0003697221
0.00035713559
0.00034455455
0.0003319991
0.00031949149
0.00030705281
0.00029470469
0.00028246831
0.00027036671
0.00025842779
0.00024668231
0.00023516603
0.00022391638
0.00021297233
0.0002023724
0.00019215412
0.00018235521
0.00017301288
0.00016416477
0.00015584939
0.00014810501
0.00014096917
0.00013447788
0.00012866511
0.00012356167
0.00011919529
0.00011558999
0.00011276521
0.00011073507
0.000109506
0.00010907748
0.00010943819
0.0001105678
0.00011243488
0.00011499798
0.00011820548
0.00012199616
0.00012629927
0.00013103417
0.00013611036
0.0001414276
0.00014687714
0.00015234509
0.00015771649
0.00016288385
0.0001677537
0.00017225542
0.00017634584
0.00018001318
0.00018327477
0.00018617172
0.00018876185
0.00019110918
0.00019327598
0.00019531552
0.00019726638
0.00019915287
0.00020098465
0.00020275915
0.00020446704
0.00020609437
0.00020762674
0.00020905206
0.00021035974
0.00021154377
0.0002126006
0.00021352941
0.00021433106
0.0002150072
0.00021555946
0.00021599041
0.00021630086
0.00021649305
0.00021656727
0.00021652528
0.00021636775
0.00021609688
0.00021571348
0.00021522047
0.00021461915
0.00021391245
0.00021310208
0.00021219077
0.00021118053
0.00021007379
0.00020887123
0.00020757879
0.00020619475
0.00020472333
0.00020316594
0.00020152603
0.00019980519
0.00019800482
0.00019612644
0.0001941727
0.00019214296
0.00019003983
0.00018786477
0.00018561109
0.00018328657
0.00018089152
0.00017842608
0.00017589276
0.00017329297
0.00017063039
0.00016790665
0.00016512544
0.00016228814
0.00015939944
0.00015646059
0.00015347508
0.00015044432
0.00014737093
0.00014425605
0.0001411012
0.00013790635
0.00013467382
0.00013140218
0.00012809405
0.00012474773
0.00012136577
0.00011794667
0.00011449257
0.00011100208
0.00010747768
0.00010391797
0.0001003253
9.6698268e-05
9.3039788e-05
8.9347776e-05
8.5626315e-05
8.1872594e-05
7.8091491e-05
7.4280189e-05
7.0443597e-05
6.6579165e-05
6.2691534e-05
5.8778475e-05
5.4844252e-05
5.0886826e-05
4.6910137e-05
4.2912247e-05
3.8896876e-05
3.4862389e-05
3.0812043e-05
2.6745139e-05
2.2664098e-05
1.8568816e-05
1.446154e-05
1.0342319e-05
6.2126003e-06
2.0742681e-06
0.010917175
0.0087475301
0.0050173192
0.0020115799
0.00054643652
0.00027657799
0.00046288033
0.00065552878
0.00074259489
0.00075802043
0.00074981166
0.0007406522
0.00073497334
0.00073110451
0.00072718454
0.00072240164
0.00071663604
0.00071001835
0.00070271534
0.000694863
0.00068655819
0.0006778676
0.00066883983
0.00065951202
0.00064991233
0.00064006363
0.00062998732
0.00061970087
0.00060921771
0.00059855003
0.00058771059
0.00057670968
0.00056555532
0.00055425423
0.00054281358
0.00053123945
0.00051953773
0.00050771448
0.00049577581
0.0004837285
0.00047158016
0.00045933713
0.00044700579
0.00043459377
0.00042211218
0.00040957212
0.00039698551
0.00038436309
0.00037171703
0.00035906224
0.00034641643
0.00033379938
0.00032123305
0.0003087383
0.00029633644
0.00028404847
0.00027189715
0.00025991013
0.00024811798
0.00023655626
0.00022526231
0.00021427491
0.00020363244
0.00019337233
0.00018353218
0.00017414908
0.0001652606
0.00015690517
0.00014912105
0.00014194576
0.00013541528
0.00012956355
0.00012442134
0.0001200164
0.00011637275
0.0001135099
0.00011144206
0.00011017575
0.00010971059
0.0001100354
0.0001111299
0.00011296279
0.00011549271
0.00011866815
0.00012242798
0.00012670161
0.00013140855
0.00013645847
0.00014175129
0.00014717838
0.00015262588
0.00015797881
0.00016312957
0.00016798453
0.00017247279
0.00017655092
0.00018020687
0.00018345778
0.0001863446
0.00018892503
0.0001912631
0.00019342104
0.00019545215
0.00019739503
0.00019927395
0.00020109858
0.00020286635
0.00020456784
0.00020618914
0.00020771577
0.00020913567
0.00021043823
0.00021161739
0.00021266965
0.00021359417
0.00021439178
0.00021506414
0.00021561285
0.00021604047
0.0002163478
0.00021653703
0.00021660846
0.00021656383
0.00021640377
0.0002161305
0.00021574482
0.00021524963
0.00021464625
0.0002139376
0.00021312542
0.0002122124
0.00021120054
0.00021009225
0.00020888862
0.00020759439
0.00020620901
0.00020473637
0.00020317786
0.00020153712
0.00019981431
0.00019801365
0.00019613466
0.00019418032
0.00019214998
0.00019004614
0.00018787167
0.00018561646
0.00018329146
0.00018089593
0.00017843001
0.00017589625
0.00017329599
0.0001706329
0.00016790881
0.00016512714
0.00016228948
0.00015940042
0.00015646126
0.00015347552
0.00015044451
0.0001473709
0.00014425592
0.00014110103
0.0001379061
0.00013467353
0.00013140187
0.00012809375
0.00012474741
0.00012136548
0.0001179464
0.00011449236
0.00011100188
0.00010747753
0.00010391783
0.00010032524
9.669821e-05
9.3039793e-05
8.9347777e-05
8.5626357e-05
8.1872638e-05
7.8091547e-05
7.428022e-05
7.044364e-05
6.6579191e-05
6.2691576e-05
5.877849e-05
5.4844282e-05
5.0886827e-05
4.6910168e-05
4.2912243e-05
3.8896912e-05
3.4862383e-05
3.0812073e-05
2.6745126e-05
2.2664136e-05
1.8568811e-05
1.44616e-05
1.0342369e-05
6.2126995e-06
2.0742438e-06
0.010219151
0.0084561399
0.0051970782
0.0023594582
0.00084297779
0.00046178274
0.00057837471
0.0007417137
0.00081421497
0.00081703964
0.00079739191
0.00077950314
0.00076774977
0.00075950935
0.00075213293
0.00074444148
0.00073619325
0.00072746484
0.00071836992
0.000708989
0.00069937022
0.00068954162
0.00067952182
0.00066932438
0.00065895873
0.00064843244
0.00063775406
0.00062693043
0.00061596627
0.00060486651
0.00059363766
0.00058228472
0.00057081126
0.00055922026
0.00054751551
0.00053570016
0.00052377762
0.00051175193
0.00049962741
0.00048740908
0.00047510298
0.00046271424
0.00045024818
0.00043771139
0.00042511398
0.00041246623
0.0003997793
0.00038706333
0.00037432992
0.00036159332
0.00034887069
0.00033618127
0.00032354657
0.00031098715
0.00029852391
0.00028617755
0.00027397058
0.0002619303
0.00025008696
0.00023847574
0.00022713373
0.00021609944
0.00020541096
0.00019510549
0.00018522044
0.00017579276
0.00016685985
0.00015845996
0.00015063128
0.00014341122
0.00013683564
0.00013093833
0.00012575
0.00012129827
0.00011760716
0.00011469615
0.00011257949
0.00011126382
0.0001107488
0.00011102343
0.00011206754
0.00011384998
0.00011632957
0.00011945493
0.00012316518
0.00012739
0.00013204924
0.00013705293
0.00014230142
0.00014768649
0.0001530948
0.00015841172
0.00016352997
0.00016835612
0.00017281926
0.00017687576
0.00018051316
0.00018374811
0.00018662094
0.0001891887
0.000191515
0.0001936616
0.00019568155
0.00019761329
0.000199481
0.00020129449
0.00020305129
0.00020474204
0.00020635303
0.00020786981
0.0002092804
0.00021057423
0.00021174523
0.00021278989
0.00021370734
0.00021449832
0.0002151645
0.0002157074
0.00021612956
0.00021643175
0.00021661607
0.00021668286
0.00021663381
0.00021646952
0.00021619223
0.00021580272
0.00021530387
0.00021469704
0.00021398509
0.00021316982
0.00021225387
0.00021123924
0.00021012828
0.00020892237
0.00020762557
0.00020623802
0.0002047633
0.00020320285
0.00020156034
0.00019983582
0.00019803329
0.00019615267
0.00019419686
0.00019216515
0.00019005984
0.00018787665
0.00018562777
0.00018330224
0.00018090593
0.00017843916
0.00017590461
0.00017330354
0.00017063973
0.00016791498
0.00016513228
0.00016229385
0.00015940409
0.00015646432
0.00015347807
0.00015044658
0.00014737251
0.00014425716
0.00014110201
0.00013790683
0.00013467408
0.00013140227
0.00012809402
0.00012474755
0.00012136552
0.00011794639
0.00011449234
0.00011100179
0.00010747744
0.00010391769
0.00010032512
9.6698053e-05
9.3039665e-05
8.9347616e-05
8.5626202e-05
8.187246e-05
7.809136e-05
7.4279984e-05
7.0443386e-05
6.6578899e-05
6.2691295e-05
5.8778168e-05
5.4843967e-05
5.0886461e-05
4.6909829e-05
4.2911843e-05
3.8896555e-05
3.4861961e-05
3.0811703e-05
2.6744689e-05
2.2663777e-05
1.8568391e-05
1.4461298e-05
1.0342054e-05
6.212548e-06
2.0739552e-06
0.0095983554
0.0081396127
0.0053261895
0.002680801
0.0011359934
0.00064955215
0.0006936922
0.00082695788
0.00088715157
0.00087961235
0.00084913191
0.00082211723
0.00080380716
0.00079094977
0.00078002856
0.00076936652
0.00075854814
0.00074759986
0.0007365969
0.00072557193
0.00071452591
0.00070344834
0.00069232823
0.00068115617
0.00066992367
0.00065862369
0.00064725222
0.00063580551
0.00062427965
0.00061267231
0.00060098352
0.00058921273
0.00057735898
0.00056542131
0.00055339988
0.00054129467
0.00052910637
0.00051683681
0.00050448838
0.00049206411
0.00047956819
0.00046700434
0.00045437682
0.00044169107
0.00042895592
0.00041618061
0.00040337552
0.00039055012
0.00037771527
0.00036488448
0.0003520742
0.00033930299
0.00032659171
0.00031396052
0.00030142987
0.00028902011
0.00027675343
0.00026465671
0.00025275979
0.00024109726
0.00022970571
0.00021862323
0.00020788752
0.00019753538
0.00018760388
0.00017812973
0.00016915012
0.00016070303
0.00015282636
0.00014555729
0.00013893145
0.00013298238
0.00012774052
0.00012323327
0.00011948454
0.00011651368
0.00011433491
0.0001129549
0.00011237333
0.00011257936
0.00011355294
0.00011526316
0.00011766908
0.00012071962
0.00012435424
0.00012850317
0.00013308681
0.00013801588
0.00014319155
0.00014850654
0.0001538486
0.00015910408
0.00016416663
0.00016894355
0.0001733643
0.00017738519
0.00018099319
0.000184204
0.00018705675
0.00018960719
0.00019191775
0.00019404916
0.00019605378
0.00019796967
0.00019982085
0.00020161727
0.00020335681
0.0002050304
0.0002066247
0.00020812546
0.00020952087
0.00021080054
0.00021195836
0.0002129908
0.00021389692
0.00021467731
0.00021533362
0.00021586724
0.00021628065
0.00021657458
0.00021675101
0.0002168103
0.00021675411
0.00021658298
0.00021629917
0.00021590344
0.00021539866
0.0002147862
0.00021406889
0.00021324856
0.00021232779
0.00021130858
0.00021019328
0.00020898341
0.00020768259
0.00020629137
0.00020481315
0.0002032494
0.00020160365
0.00019987621
0.00019807088
0.00019618766
0.00019422939
0.00019219539
0.00019008778
0.0001879038
0.00018565185
0.00018332441
0.00018092626
0.00017845772
0.0001759215
0.00017331884
0.00017065385
0.00016792643
0.00016514306
0.00016230355
0.00015941271
0.00015647189
0.00015348472
0.00015045236
0.00014737771
0.00014426159
0.00014110562
0.00013790978
0.00013467652
0.00013140428
0.00012809566
0.00012474883
0.00012136644
0.00011794704
0.00011449279
0.00011100203
0.00010747753
0.0001039176
0.00010032495
9.6697737e-05
9.3039287e-05
8.9347132e-05
8.562565e-05
8.1871831e-05
7.8090671e-05
7.4279218e-05
7.0442559e-05
6.6577991e-05
6.2690374e-05
5.877719e-05
5.4842991e-05
5.088542e-05
4.6908823e-05
4.2910762e-05
3.8895523e-05
3.4860835e-05
3.0810658e-05
2.674356e-05
2.2662774e-05
1.8567311e-05
1.4460418e-05
1.034114e-05
6.2119697e-06
2.0733125e-06
0.0090528873
0.007815822
0.0054061982
0.0029715333
0.0014229278
0.00084010179
0.00080933106
0.00091059891
0.00095987102
0.00094423398
0.0009038659
0.00086745785
0.00084203879
0.00082423716
0.00080967999
0.00079604447
0.00078264819
0.00076945035
0.00075650027
0.00074379311
0.00073128474
0.00071892435
0.00070666959
0.00069448745
0.00068235156
0.00067024075
0.00065813881
0.00064603162
0.00063390691
0.00062175543
0.00060957091
0.00059734732
0.00058507938
0.00057276248
0.00056039322
0.00054796844
0.00053548621
0.00052294624
0.00051034898
0.0004976955
0.0004849881
0.00047222913
0.00045942178
0.00044657041
0.00043368249
0.00042076604
0.00040783064
0.00039488524
0.00038193988
0.00036900719
0.0003561028
0.00034324459
0.00033045264
0.00031774654
0.00030514632
0.00029267201
0.00028034538
0.00026819276
0.00025624353
0.00024453161
0.00023309276
0.00022196442
0.00021118381
0.00020078726
0.00019081128
0.00018129212
0.00017226672
0.00016377269
0.0001558475
0.00014852786
0.00014184896
0.00013584396
0.00013054291
0.00012597279
0.0001221572
0.00011911526
0.00011686105
0.0001154012
0.0001147353
0.00011485266
0.00011573337
0.00011734678
0.0001196523
0.00012259927
0.00012612772
0.00013016862
0.00013464329
0.00013946355
0.00014453191
0.00014974263
0.00015498523
0.00016014785
0.00016512579
0.00016982773
0.00017418398
0.00017815098
0.00018171497
0.00018489029
0.00018771423
0.0001902404
0.00019252931
0.00019463993
0.00019662339
0.00019851705
0.00020034462
0.00020211626
0.00020383037
0.00020547843
0.00020704771
0.00020852432
0.0002098968
0.000211155
0.00021229288
0.00021330682
0.00021419579
0.00021496016
0.0002156015
0.00021612107
0.00021652121
0.00021680256
0.00021696698
0.00021701484
0.00021694774
0.00021676618
0.00021647241
0.00021606717
0.00021555331
0.00021493222
0.00021420667
0.00021337853
0.00021245033
0.00021142405
0.00021030204
0.00020908588
0.00020777888
0.00020638188
0.00020489818
0.00020332922
0.00020167845
0.00019994641
0.00019813667
0.00019624928
0.00019428705
0.00019224934
0.00019013808
0.0001879514
0.00018569549
0.00018336514
0.0001809641
0.00017849272
0.00017595382
0.00017334857
0.00017068116
0.00016795149
0.00016516547
0.00016232368
0.00015943073
0.00015648789
0.00015349893
0.00015046491
0.00014738913
0.00014427109
0.00014111403
0.00013791711
0.00013468291
0.0001314098
0.0001281004
0.00012475284
0.0001213699
0.00011794989
0.00011449493
0.00011100358
0.00010747863
0.00010391825
0.00010032528
9.6697724e-05
9.3039023e-05
8.9346602e-05
8.5624899e-05
8.1870878e-05
7.808954e-05
7.4277915e-05
7.0441127e-05
6.6576404e-05
6.26887e-05
5.8775396e-05
5.4841167e-05
5.0883494e-05
4.6906923e-05
4.2908774e-05
3.889363e-05
3.4858812e-05
3.0808742e-05
2.6741517e-05
2.266094e-05
1.8565384e-05
1.4458789e-05
1.0339499e-05
6.2108498e-06
2.0722487e-06
0.0085748401
0.0074975965
0.0054399965
0.0032273292
0.0016999436
0.0010334705
0.00092646169
0.00099275685
0.0010314602
0.0010098494
0.00096094872
0.00091516886
0.00088210236
0.00085892633
0.00084056597
0.00082393307
0.0008079557
0.0007924839
0.00077754862
0.0007631227
0.00074912332
0.00073545842
0.00072205138
0.00070884354
0.00069578976
0.00068285437
0.00067000883
0.00065722854
0.00064449271
0.00063178502
0.0006190929
0.00060640476
0.00059371092
0.00058100324
0.00056827495
0.00055551968
0.00054273291
0.00052991241
0.00051705674
0.00050416495
0.00049123754
0.00047827567
0.00046528152
0.00045225836
0.00043921233
0.00042615028
0.00041308093
0.00040001273
0.00038695516
0.00037391981
0.00036092137
0.00034797705
0.00033510624
0.00032232782
0.00030966127
0.00029712643
0.00028474472
0.00027254173
0.00026054621
0.00024879136
0.00023731208
0.00022614482
0.00021532609
0.00020489174
0.00019487769
0.00018531948
0.00017625347
0.00016771684
0.00015974659
0.00015237876
0.00014564783
0.00013958632
0.0001342238
0.00012958667
0.00012569794
0.00012257631
0.0001202356
0.0001186823
0.00011791589
0.00011792573
0.00011869209
0.00012018463
0.00012236317
0.00012517764
0.00012856879
0.0001324686
0.00013679963
0.0001414753
0.00014640004
0.00015147025
0.000156578
0.00016161404
0.00016647609
0.00017107487
0.00017534201
0.00017923436
0.00018273732
0.00018586349
0.00018864768
0.00019114065
0.00019340017
0.00019548277
0.00019743778
0.00019930152
0.00020109715
0.00020283506
0.00020451435
0.00020612725
0.00020766189
0.0002091049
0.00021044531
0.00021167339
0.00021278321
0.00021377107
0.00021463576
0.00021537743
0.00021599755
0.00021649716
0.00021687841
0.00021714186
0.00021728917
0.00021732074
0.00021723808
0.00021704163
0.00021673363
0.0002163148
0.00021578795
0.00021515448
0.00021441711
0.00021357772
0.00021263882
0.00021160232
0.00021047058
0.00020924522
0.0002079293
0.00020652388
0.00020503216
0.00020345557
0.0002017975
0.00020005862
0.00019824234
0.00019634878
0.00019438064
0.00019233736
0.00019022078
0.00018802957
0.00018576839
0.00018343352
0.00018102809
0.00017855245
0.00017600946
0.00017340023
0.00017072882
0.00016799551
0.00016520586
0.00016236075
0.00015946459
0.00015651869
0.00015352691
0.00015049016
0.00014741211
0.00014429172
0.00014113222
0.00013793319
0.00013469705
0.00013142217
0.00012811116
0.00012476216
0.00012137816
0.00011795633
0.00011450047
0.00011100814
0.00010748234
0.00010392112
0.00010032745
9.6699205e-05
9.3039935e-05
8.9346958e-05
8.5624764e-05
8.1870298e-05
7.8088581e-05
7.4276582e-05
7.0439502e-05
6.6574486e-05
6.2686546e-05
5.8772969e-05
5.4838606e-05
5.0880727e-05
4.6904113e-05
4.2905807e-05
3.8890594e-05
3.4855808e-05
3.0805875e-05
2.6738516e-05
2.2658192e-05
1.8562534e-05
1.4456343e-05
1.0337081e-05
6.2091247e-06
2.0707384e-06
0.0081536491
0.0071935376
0.0054334799
0.0034451608
0.0019629476
0.0012291827
0.001046407
0.0010740318
0.0011013453
0.0010755
0.001019807
0.00096510221
0.00092398541
0.00089494076
0.00087252021
0.00085282504
0.00083425878
0.0008164896
0.00079952394
0.00078332913
0.00076779597
0.00075279369
0.00073820898
0.0007239547
0.00070996542
0.00069619033
0.00068258818
0.00066912372
0.00065576745
0.00064249567
0.0006292892
0.0006161308
0.00060300614
0.00058990338
0.00057681235
0.00056372355
0.00055062968
0.00053752652
0.00052441088
0.00051127969
0.00049813149
0.00048496639
0.00047178582
0.00045859179
0.00044538902
0.00043218333
0.00041898262
0.00040579475
0.00039262866
0.00037949514
0.00036640781
0.00035338305
0.00034043965
0.0003275959
0.00031487057
0.0003022832
0.00028985505
0.00027761103
0.00026557895
0.00025379113
0.00024228164
0.00023108594
0.00022023948
0.00020977743
0.00019973521
0.00019014765
0.00018105018
0.00017247912
0.00016447101
0.00015706126
0.00015028337
0.00014416888
0.00013874671
0.0001340426
0.00013007879
0.00012687325
0.00012443928
0.00012278317
0.00012190422
0.00012179184
0.00012242647
0.00012377807
0.000125807
0.00012846389
0.00013169032
0.00013541946
0.00013957547
0.0001440738
0.00014882135
0.00015371727
0.00015865691
0.00016353441
0.00016825065
0.00017271903
0.00017687297
0.00018066995
0.00018409451
0.00018715715
0.00018988975
0.00019233956
0.00019456094
0.00019660735
0.00019852585
0.00020035133
0.00020210627
0.00020380115
0.00020543592
0.00020700378
0.00020849386
0.00020989347
0.00021119225
0.00021238103
0.00021345409
0.00021440763
0.00021524027
0.00021595186
0.00021654379
0.00021701686
0.00021737297
0.00021761255
0.00021773707
0.0002177469
0.00021764349
0.00021742718
0.00021710018
0.00021666318
0.00021611896
0.00021546892
0.0002147157
0.00021386121
0.00021290789
0.00021185761
0.00021071274
0.00020947486
0.00020814689
0.00020673001
0.00020522734
0.00020364031
0.00020197225
0.00020022392
0.00019839866
0.00019649656
0.00019452031
0.00019246937
0.00019034549
0.00018814769
0.00018587953
0.00018353833
0.00018112682
0.00017864527
0.00017609658
0.00017348183
0.00017080499
0.00016806665
0.00016527199
0.00016242212
0.00015952135
0.00015657102
0.00015357506
0.00015053429
0.00014745224
0.00014432822
0.00014116543
0.00013796323
0.0001347241
0.00013144644
0.00012813285
0.00012478143
0.0001213953
0.00011797139
0.00011451338
0.00011101914
0.00010749166
0.00010392886
0.00010033382
9.6704264e-05
9.3043858e-05
8.9349825e-05
8.5626677e-05
8.1871349e-05
7.8088902e-05
7.4276183e-05
7.043849e-05
6.6572874e-05
6.2684449e-05
5.8770408e-05
5.483574e-05
5.0877504e-05
4.6900753e-05
4.290218e-05
3.8886999e-05
3.4851964e-05
3.0802163e-05
2.673462e-05
2.2654585e-05
1.8558823e-05
1.4453114e-05
1.0333937e-05
6.2068125e-06
2.0688219e-06
0.0077786968
0.0069086849
0.0053948654
0.0036240617
0.0022081049
0.0014259419
0.00117028
0.0011554122
0.0011693255
0.0011403301
0.0010798003
0.0010170945
0.00096777356
0.0009323606
0.00090553203
0.00088265148
0.00086147924
0.00084139893
0.00082236236
0.00080434309
0.00078722229
0.00077083823
0.00075504069
0.00073971107
0.00072476139
0.00071012473
0.00069574675
0.0006815813
0.00066759014
0.000653742
0.00064001072
0.00062637314
0.0006128103
0.00059930632
0.00058584744
0.00057242105
0.00055901706
0.00054562903
0.00053225196
0.00051888073
0.00050551176
0.00049214399
0.00047877827
0.00046541545
0.00045205856
0.00043871234
0.00042538408
0.00041208102
0.00039881131
0.00038558509
0.00037241509
0.00035931671
0.00034630795
0.00033340669
0.00032063109
0.00030800012
0.00029553482
0.00028325964
0.00027120151
0.00025939143
0.00024786251
0.00023664943
0.00022578655
0.00021530794
0.00020524836
0.0001956422
0.00018652389
0.00017792845
0.0001698915
0.00016244791
0.00015563034
0.00014946907
0.00014399198
0.00013922403
0.00013518671
0.00013189702
0.00012936743
0.00012760377
0.00012660509
0.00012636093
0.00012685186
0.0001280482
0.00012991087
0.00013239133
0.00013543216
0.00013896782
0.00014292425
0.00014721927
0.00015176269
0.00015645694
0.00016120119
0.00016589364
0.00017043895
0.00017475371
0.00017877357
0.00018245688
0.00018578732
0.00018877307
0.00019144274
0.00019383963
0.00019601419
0.00019801635