/*--------------------------------*- C++ -*----------------------------------*\
| =========                 |                                                 |
| \\      /  F ield         | OpenFOAM: The Open Source CFD Toolbox           |
|  \\    /   O peration     | Version:  5.x                                   |
|   \\  /    A nd           | Web:      www.OpenFOAM.org                      |
|    \\/     M anipulation  |                                                 |
\*---------------------------------------------------------------------------*/
FoamFile
{
    version     2.0;
    format      ascii;
    class       surfaceScalarField;
    location    "0.2";
    object      phi;
}
// * * * * * * * * * * * * * * * * * * * * * * * * * * * * * * * * * * * * * //

dimensions      [0 3 -1 0 0 0 0];

internalField   nonuniform List<scalar> 
42870
(
2.9774243e-08
9.9453099e-09
-3.9719553e-08
2.0564688e-08
9.2095549e-09
1.4210545e-08
6.3541437e-09
1.06424e-08
3.5681447e-09
8.8255839e-09
1.8168161e-09
7.827952e-09
9.9763189e-10
7.1984949e-09
6.2945719e-10
6.737275e-09
4.6121987e-10
6.3608718e-09
3.7640321e-10
6.0377927e-09
3.2307909e-10
5.7561322e-09
2.816605e-10
5.5095285e-09
2.4660373e-10
5.2925515e-09
2.16977e-10
5.1001931e-09
1.9235832e-10
4.9281649e-09
1.7202819e-10
4.7730233e-09
1.5514167e-10
4.6320843e-09
1.40939e-10
4.5032573e-09
1.2882698e-10
4.3848868e-09
1.183705e-10
4.275633e-09
1.0925378e-10
4.1743904e-09
1.0124267e-10
4.0802337e-09
9.4156692e-11
3.9923814e-09
8.7852274e-11
3.9101677e-09
8.2213666e-11
3.8330215e-09
7.7146229e-11
3.7604505e-09
7.2571018e-11
3.6920284e-09
6.8422062e-11
3.6273837e-09
6.4644738e-11
3.5661904e-09
6.119326e-11
3.5081623e-09
5.8028119e-11
3.4530467e-09
5.5115588e-11
3.4006193e-09
5.2427393e-11
3.3506801e-09
4.9939245e-11
3.3030504e-09
4.7629693e-11
3.2575702e-09
4.5480134e-11
3.2140958e-09
4.3474426e-11
3.1724974e-09
4.1598379e-11
3.1326579e-09
3.9839513e-11
3.0944712e-09
3.8186729e-11
3.0578413e-09
3.6629925e-11
3.022681e-09
3.5160313e-11
2.9889105e-09
3.3770475e-11
2.9564569e-09
3.2453632e-11
2.9252538e-09
3.1203052e-11
2.8952412e-09
3.0012637e-11
2.8663639e-09
2.8877313e-11
2.838571e-09
2.7792822e-11
2.8118158e-09
2.675526e-11
2.786055e-09
2.5760782e-11
2.7612495e-09
2.4805555e-11
2.7373634e-09
2.3886031e-11
2.7143643e-09
2.299917e-11
2.6922219e-09
2.2142389e-11
2.6709083e-09
2.1313613e-11
2.650397e-09
2.0511235e-11
2.6306634e-09
1.973365e-11
2.6116844e-09
1.8978975e-11
2.5934393e-09
1.8245151e-11
2.5759091e-09
1.7530202e-11
2.5590768e-09
1.6832291e-11
2.5429268e-09
1.6149928e-11
2.5274447e-09
1.5482096e-11
2.5126166e-09
1.4828129e-11
2.4984291e-09
1.4187484e-11
2.4848694e-09
1.3559693e-11
2.4719251e-09
1.2944326e-11
2.4595843e-09
1.2340864e-11
2.4478355e-09
1.1748804e-11
2.4366677e-09
1.1167781e-11
2.4260701e-09
1.0597581e-11
2.4160321e-09
1.0038043e-11
2.4065429e-09
9.4891775e-12
2.3975918e-09
8.9511157e-12
2.3891678e-09
8.4240254e-12
2.3812597e-09
7.9080748e-12
2.373856e-09
7.4036606e-12
2.3669447e-09
6.9112892e-12
2.3605131e-09
6.4316681e-12
2.3545475e-09
5.9656269e-12
2.3490332e-09
5.5143047e-12
2.3439543e-09
5.0788466e-12
2.3392938e-09
4.6604702e-12
2.3350335e-09
4.2603401e-12
2.3311538e-09
3.879706e-12
2.3276342e-09
3.5196206e-12
2.3244529e-09
3.1812876e-12
2.3215869e-09
2.8660104e-12
2.3190114e-09
2.5754737e-12
2.3167e-09
2.3114141e-12
2.3146242e-09
2.0758213e-12
2.3127538e-09
1.8703397e-12
2.3110578e-09
1.6960389e-12
2.3095053e-09
1.5524911e-12
2.3080675e-09
1.4378406e-12
2.3067191e-09
1.3483259e-12
2.3054403e-09
1.2788154e-12
2.3042174e-09
1.2229279e-12
2.303043e-09
1.1743607e-12
2.3019157e-09
1.1272705e-12
2.3008384e-09
1.0773588e-12
2.2998166e-09
1.0217672e-12
2.2988568e-09
9.5977416e-13
2.2979649e-09
8.9195755e-13
2.2971446e-09
8.203169e-13
2.2963975e-09
7.4705472e-13
2.2957227e-09
6.7481458e-13
2.2951171e-09
6.0561296e-13
2.2945759e-09
5.4118355e-13
2.2940938e-09
4.8207169e-13
2.2936651e-09
4.2870702e-13
2.2932845e-09
3.8062351e-13
2.2929469e-09
3.3757558e-13
2.2926483e-09
2.9859626e-13
2.2923851e-09
2.6320587e-13
2.2921546e-09
2.3049605e-13
2.2919543e-09
2.003478e-13
2.2917822e-09
1.721216e-13
2.2916362e-09
1.4593205e-13
2.291515e-09
1.2127122e-13
2.2914165e-09
9.8456572e-14
2.2913394e-09
7.7070091e-14
2.2912819e-09
5.7493867e-14
2.2912427e-09
3.9253726e-14
2.29122e-09
2.2693457e-14
2.2912128e-09
7.1859661e-15
2.2912195e-09
-6.6871177e-15
2.2912391e-09
-1.9618278e-14
2.2912703e-09
-3.1178478e-14
2.2913123e-09
-4.2034776e-14
2.2913638e-09
-5.1515757e-14
2.2914243e-09
-6.0450399e-14
2.2914925e-09
-6.8175066e-14
2.2915679e-09
-7.5456399e-14
2.2916496e-09
-8.1667844e-14
2.2917369e-09
-8.7282646e-14
2.2918289e-09
-9.203527e-14
2.2919255e-09
-9.6577345e-14
2.2920256e-09
-1.001548e-13
2.2921295e-09
-1.0380257e-13
2.2922357e-09
-1.0624574e-13
2.2923445e-09
-1.0883629e-13
2.292455e-09
-1.1047839e-13
2.2925672e-09
-1.1217838e-13
2.29268e-09
-1.1283415e-13
2.2927937e-09
-1.1363444e-13
2.2929071e-09
-1.1346513e-13
2.2930202e-09
-1.1309067e-13
2.2931321e-09
-1.1185957e-13
2.293243e-09
-1.1090213e-13
2.2933519e-09
-1.0888961e-13
2.2934592e-09
-1.0736049e-13
2.2935641e-09
-1.0486619e-13
2.2936672e-09
-1.0311554e-13
2.2937675e-09
-1.0028969e-13
2.2938659e-09
-9.83686e-14
2.2939614e-09
-9.5577795e-14
2.2940552e-09
-9.3756913e-14
2.2941462e-09
-9.1012619e-14
2.2942356e-09
-8.9350683e-14
2.2943223e-09
-8.6702059e-14
2.2944075e-09
-8.5246537e-14
2.29449e-09
-8.2525676e-14
2.2945711e-09
-8.1101834e-14
2.2946496e-09
-7.8447493e-14
2.2947266e-09
-7.7033114e-14
2.2948009e-09
-7.4262564e-14
2.2948737e-09
-7.2830573e-14
2.2949437e-09
-6.996932e-14
2.2950122e-09
-6.8557997e-14
2.2950778e-09
-6.552707e-14
2.2951418e-09
-6.4086408e-14
2.2952029e-09
-6.1017571e-14
2.2952625e-09
-5.9610392e-14
2.2953189e-09
-5.6459989e-14
2.295374e-09
-5.5066959e-14
2.2954258e-09
-5.1818639e-14
2.2954763e-09
-5.0455977e-14
2.2955234e-09
-4.7145773e-14
2.2955693e-09
-4.5841131e-14
2.2956118e-09
-4.2496431e-14
2.295653e-09
-4.1277918e-14
2.295691e-09
-3.7939695e-14
2.2957278e-09
-3.6849991e-14
2.2957614e-09
-3.3547959e-14
2.295794e-09
-3.2578569e-14
2.2958233e-09
-2.933534e-14
2.2958518e-09
-2.8476161e-14
2.295877e-09
-2.5284043e-14
2.2959015e-09
-2.4489123e-14
2.2959229e-09
-2.1342459e-14
2.2959435e-09
-2.0578879e-14
2.295961e-09
-1.7499315e-14
2.2959777e-09
-1.6762847e-14
2.2959915e-09
-1.3821812e-14
2.2960047e-09
-1.311935e-14
2.2960151e-09
-1.0418982e-14
2.2960249e-09
-9.777648e-15
2.2960323e-09
-7.4445901e-15
2.2960391e-09
-6.7943262e-15
-4.4610504e-15
4.1948432e-08
1.0464866e-08
-4.2467988e-08
3.8702804e-08
1.2455183e-08
3.4620761e-08
1.0436187e-08
3.0805232e-08
7.383674e-09
2.7657773e-08
4.964275e-09
2.5124903e-08
3.5305017e-09
2.3101186e-08
2.653174e-09
2.1487823e-08
2.074583e-09
2.0188131e-08
1.6760951e-09
1.9116043e-08
1.395167e-09
1.8208375e-08
1.1893291e-09
1.7423814e-08
1.0311645e-09
1.6735469e-08
9.0532238e-10
1.6124821e-08
8.0300623e-10
1.5578232e-08
7.1861713e-10
1.5085198e-08
6.4817519e-10
1.4637455e-08
5.8868221e-10
1.422842e-08
5.3786226e-10
1.3852791e-08
4.9399877e-10
1.3506249e-08
4.5579654e-10
1.3185225e-08
4.2226657e-10
1.2886744e-08
3.9263764e-10
1.2608299e-08
3.6629682e-10
1.2347762e-08
3.4275116e-10
1.2103309e-08
3.2159873e-10
1.1873373e-08
3.0250698e-10
1.1656596e-08
2.8519963e-10
1.1451793e-08
2.694471e-10
1.125793e-08
2.5505648e-10
1.1074095e-08
2.4186283e-10
1.0899485e-08
2.2972584e-10
1.0733386e-08
2.1852663e-10
1.0575162e-08
2.0816279e-10
1.0424247e-08
1.9854473e-10
1.0280133e-08
1.8959472e-10
1.0142362e-08
1.8124517e-10
1.0010524e-08
1.7343667e-10
9.8842465e-09
1.6611679e-10
9.7631942e-09
1.59239e-10
9.6470625e-09
1.5276157e-10
9.5355748e-09
1.4664802e-10
9.4284788e-09
1.408665e-10
9.3255446e-09
1.3538788e-10
9.226563e-09
1.3018465e-10
9.1313434e-09
1.2523221e-10
9.0397113e-09
1.2050939e-10
8.9515065e-09
1.1599765e-10
8.8665819e-09
1.1167982e-10
8.7848032e-09
1.0753955e-10
8.7060474e-09
1.0356129e-10
8.6302025e-09
9.9730955e-11
8.5571654e-09
9.6036271e-11
8.4868412e-09
9.2466629e-11
8.4191419e-09
8.9012909e-11
8.3539859e-09
8.566724e-11
8.2912976e-09
8.2421857e-11
8.231008e-09
7.9268576e-11
8.173054e-09
7.6199197e-11
8.117378e-09
7.3206171e-11
8.0639276e-09
7.028277e-11
8.0126539e-09
6.7423567e-11
7.9635114e-09
6.4624593e-11
7.9164566e-09
6.1882916e-11
7.871448e-09
5.9196088e-11
7.8284457e-09
5.6561994e-11
7.7874113e-09
5.3978749e-11
7.7483077e-09
5.1444477e-11
7.7110989e-09
4.895759e-11
7.6757496e-09
4.6517073e-11
7.6422247e-09
4.4122473e-11
7.610489e-09
4.1773751e-11
7.5805067e-09
3.9471518e-11
7.5522409e-09
3.7216864e-11
7.5256537e-09
3.5011225e-11
7.5007054e-09
3.2856335e-11
7.4773544e-09
3.0754687e-11
7.4555564e-09
2.8709263e-11
7.4352644e-09
2.6723662e-11
7.4164281e-09
2.4801986e-11
7.3989933e-09
2.2949041e-11
7.3829025e-09
2.1169677e-11
7.3680941e-09
1.9468877e-11
7.354503e-09
1.7851468e-11
7.3420603e-09
1.6322345e-11
7.330694e-09
1.4885908e-11
7.3203286e-09
1.3546746e-11
7.3108851e-09
1.2309482e-11
7.3022814e-09
1.1179104e-11
7.2944329e-09
1.0159988e-11
7.2872528e-09
9.2558897e-12
7.2806548e-09
8.4683133e-12
7.2745551e-09
7.7956862e-12
7.2688762e-09
7.231427e-12
7.2635498e-09
6.764271e-12
7.2585202e-09
6.3778416e-12
7.2537465e-09
6.0525962e-12
7.2492023e-09
5.7670675e-12
7.2448752e-09
5.5014573e-12
7.2407635e-09
5.2389286e-12
7.2368728e-09
4.9680988e-12
7.2332119e-09
4.682653e-12
7.2297893e-09
4.3824241e-12
7.2266102e-09
4.0709866e-12
7.2236753e-09
3.7552769e-12
7.2209798e-09
3.4425081e-12
7.2185143e-09
3.1403446e-12
7.2162656e-09
2.8543145e-12
7.2142182e-09
2.588601e-12
7.212356e-09
2.34422e-12
7.2106633e-09
2.121482e-12
7.2091253e-09
1.9185721e-12
7.2077289e-09
1.7340099e-12
7.2064627e-09
1.5647766e-12
7.2053168e-09
1.4090469e-12
7.2042831e-09
1.2642322e-12
7.2033539e-09
1.1296007e-12
7.2025226e-09
1.0034171e-12
7.2017828e-09
8.8564125e-13
7.2011292e-09
7.7497067e-13
7.2005557e-09
6.7191587e-13
7.2000573e-09
5.754159e-13
7.1996287e-09
4.8613532e-13
7.1992651e-09
4.0284593e-13
7.1989616e-09
3.2618626e-13
7.1987141e-09
2.5472909e-13
7.1985181e-09
1.8934338e-13
7.1983699e-09
1.2849674e-13
7.1982657e-09
7.3038852e-14
7.1982024e-09
2.1324288e-14
7.1981761e-09
-2.5243928e-14
7.1981843e-09
-6.8703427e-14
7.1982238e-09
-1.0760459e-13
7.1982921e-09
-1.4377807e-13
7.1983863e-09
-1.7589046e-13
7.1985042e-09
-2.0519574e-13
7.1986433e-09
-2.3109573e-13
7.1988019e-09
-2.551628e-13
7.1989774e-09
-2.7573172e-13
7.1991688e-09
-2.9517666e-13
7.1993733e-09
-3.1070129e-13
7.1995899e-09
-3.2542637e-13
7.1998163e-09
-3.3687307e-13
7.2000515e-09
-3.4741495e-13
7.2002932e-09
-3.5459129e-13
7.2005408e-09
-3.6114121e-13
7.2007919e-09
-3.6458018e-13
7.2010456e-09
-3.6685824e-13
7.2013002e-09
-3.6645176e-13
7.2015554e-09
-3.6608596e-13
7.2018093e-09
-3.6273912e-13
7.2020619e-09
-3.6004423e-13
7.2023118e-09
-3.5470541e-13
7.2025594e-09
-3.5069006e-13
7.202803e-09
-3.4388397e-13
7.2030435e-09
-3.3891615e-13
7.2032796e-09
-3.3163186e-13
7.2035122e-09
-3.2636864e-13
7.2037398e-09
-3.18681e-13
7.2039638e-09
-3.1332589e-13
7.2041825e-09
-3.0542794e-13
7.2043974e-09
-3.0012721e-13
7.2046065e-09
-2.9165592e-13
7.2048115e-09
-2.860526e-13
7.2050104e-09
-2.7736155e-13
7.2052049e-09
-2.7149989e-13
7.2053929e-09
-2.6228113e-13
7.2055762e-09
-2.5614777e-13
7.2057527e-09
-2.464766e-13
7.2059244e-09
-2.4022622e-13
7.2060889e-09
-2.300472e-13
7.2062485e-09
-2.2367323e-13
7.2064008e-09
-2.133108e-13
7.2065481e-09
-2.0696168e-13
7.206688e-09
-1.9636314e-13
7.2068231e-09
-1.9008533e-13
7.2069505e-09
-1.7928593e-13
7.2070732e-09
-1.7314627e-13
7.2071883e-09
-1.6224185e-13
7.2072988e-09
-1.5636021e-13
7.2074018e-09
-1.4546914e-13
7.2075005e-09
-1.3995014e-13
7.2075917e-09
-1.2916362e-13
7.2076789e-09
-1.2409484e-13
7.2077588e-09
-1.1346729e-13
7.2078351e-09
-1.0884556e-13
7.2079042e-09
-9.8424479e-14
7.2079699e-09
-9.4221756e-14
7.2080286e-09
-8.3960526e-14
7.2080842e-09
-8.0089162e-14
7.2081328e-09
-6.9970182e-14
7.2081786e-09
-6.6376823e-14
7.2082176e-09
-5.6444749e-14
7.208254e-09
-5.3173903e-14
7.2082838e-09
-4.3595743e-14
7.2083114e-09
-4.0731558e-14
7.2083327e-09
-3.1715329e-14
7.2083524e-09
-2.9467713e-14
7.2083661e-09
-2.1180098e-14
7.2083792e-09
-1.9854919e-14
-1.1167811e-14
4.4989237e-08
9.3748385e-09
-4.389921e-08
4.4930404e-08
1.2514017e-08
4.380907e-08
1.1557521e-08
4.2106329e-08
9.0864149e-09
4.0242857e-08
6.8277469e-09
3.838823e-08
5.3851287e-09
3.6594015e-08
4.4473895e-09
3.4913213e-08
3.7553854e-09
3.3377356e-08
3.2119514e-09
3.1988817e-08
2.7837063e-09
3.0735055e-08
2.4430911e-09
2.9600803e-08
2.1654163e-09
2.8572063e-08
1.9340622e-09
2.7636495e-08
1.7385747e-09
2.6783032e-08
1.5720797e-09
2.6001741e-08
1.4294666e-09
2.5283839e-08
1.3065844e-09
2.4621696e-08
1.2000048e-09
2.4008761e-08
1.1069336e-09
2.3439435e-08
1.0251229e-09
2.2908932e-08
9.5276952e-10
2.2413152e-08
8.884174e-10
2.1948567e-08
8.3088173e-10
2.1512125e-08
7.7919324e-10
2.1101173e-08
7.3255081e-10
2.0713395e-08
6.9028489e-10
2.0346761e-08
6.5183424e-10
1.999948e-08
6.1672767e-10
1.9669971e-08
5.8456537e-10
1.935683e-08
5.5500368e-10
1.9058808e-08
5.2774822e-10
1.8774787e-08
5.0254717e-10
1.8503768e-08
4.7918217e-10
1.8244851e-08
4.5746161e-10
1.7997227e-08
4.372184e-10
1.7760166e-08
4.1830644e-10
1.7533006e-08
4.0059696e-10
1.7315147e-08
3.8397564e-10
1.7106045e-08
3.6834065e-10
1.6905206e-08
3.5360098e-10
1.6712178e-08
3.396765e-10
1.6526548e-08
3.2649635e-10
1.634794e-08
3.1399567e-10
1.617601e-08
3.0211403e-10
1.6010445e-08
2.9079741e-10
1.5850956e-08
2.7999854e-10
1.5697278e-08
2.6967537e-10
1.5549169e-08
2.5978885e-10
1.5406407e-08
2.5030227e-10
1.5268787e-08
2.4118121e-10
1.5136123e-08
2.3239463e-10
1.5008244e-08
2.2391506e-10
1.4884992e-08
2.1571849e-10
1.4766222e-08
2.0778371e-10
1.4651797e-08
2.0009183e-10
1.4541594e-08
1.9262442e-10
1.44355e-08
1.8536283e-10
1.4333411e-08
1.782889e-10
1.4235231e-08
1.7138615e-10
1.4140873e-08
1.6464005e-10
1.4050258e-08
1.5803884e-10
1.3963309e-08
1.5157354e-10
1.3879955e-08
1.4523722e-10
1.3800127e-08
1.3902409e-10
1.372376e-08
1.3292918e-10
1.365079e-08
1.2694814e-10
1.3581158e-08
1.2107704e-10
1.3514802e-08
1.1531277e-10
1.3451666e-08
1.0965354e-10
1.339169e-08
1.0409883e-10
1.3334814e-08
9.8649253e-11
1.3280979e-08
9.3306844e-11
1.3230121e-08
8.8074831e-11
1.3182175e-08
8.2957331e-11
1.3137072e-08
7.79594e-11
1.3094739e-08
7.3087595e-11
1.3055098e-08
6.8349654e-11
1.3018068e-08
6.3754491e-11
1.2983557e-08
5.9312102e-11
1.2951473e-08
5.5033617e-11
1.2921712e-08
5.0930367e-11
1.2894167e-08
4.7013751e-11
1.2868724e-08
4.3294859e-11
1.2845262e-08
3.9784587e-11
1.2823655e-08
3.6492919e-11
1.2803772e-08
3.3429616e-11
1.2785477e-08
3.0603913e-11
1.2768632e-08
2.8024511e-11
1.2753094e-08
2.5697956e-11
1.2738722e-08
2.3627974e-11
1.2725377e-08
2.1812816e-11
1.2712929e-08
2.0243581e-11
1.2701259e-08
1.8901703e-11
1.2690264e-08
1.7759668e-11
1.267986e-08
1.678139e-11
1.2669987e-08
1.5925887e-11
1.2660603e-08
1.5150521e-11
1.2651688e-08
1.4417084e-11
1.2643232e-08
1.3694574e-11
1.2635237e-08
1.2962817e-11
1.2627708e-08
1.2211883e-11
1.2620648e-08
1.1442847e-11
1.2614055e-08
1.0663759e-11
1.2607922e-08
9.8880233e-12
1.2602235e-08
9.1294859e-12
1.2596974e-08
8.4018539e-12
1.2592113e-08
7.7148484e-12
1.2587627e-08
7.0750671e-12
1.2583487e-08
6.4837817e-12
1.2579668e-08
5.9404882e-12
1.2576145e-08
5.4413691e-12
1.2572897e-08
4.9827237e-12
1.2569903e-08
4.5587704e-12
1.2567146e-08
4.16548e-12
1.2564612e-08
3.7981127e-12
1.2562287e-08
3.4546849e-12
1.2560159e-08
3.1320809e-12
1.2558215e-08
2.8296142e-12
1.2556445e-08
2.5450498e-12
1.2554838e-08
2.2786939e-12
1.2553384e-08
2.0287686e-12
1.2552075e-08
1.7958365e-12
1.25509e-08
1.5778671e-12
1.2549851e-08
1.3754164e-12
1.2548919e-08
1.1862303e-12
1.2548097e-08
1.0111204e-12
1.2547378e-08
8.4769283e-13
1.2546754e-08
6.9683731e-13
1.2546219e-08
5.5606582e-13
1.2545767e-08
4.2685546e-13
1.2545392e-08
3.0642434e-13
1.2545088e-08
1.9640867e-13
1.254485e-08
9.4024679e-14
1.2544674e-08
1.0088418e-15
1.2544553e-08
-8.4556366e-14
1.2544484e-08
-1.621451e-13
1.2544463e-08
-2.3405388e-13
1.2544485e-08
-2.9805887e-13
1.2544548e-08
-3.5772783e-13
1.2544646e-08
-4.0901516e-13
1.2544777e-08
-4.5673756e-13
1.2544938e-08
-4.9730539e-13
1.2545125e-08
-5.3426578e-13
1.2545334e-08
-5.6416509e-13
1.2545564e-08
-5.9107156e-13
1.2545811e-08
-6.1157756e-13
1.2546073e-08
-6.2845521e-13
1.2546346e-08
-6.3983151e-13
1.254663e-08
-6.4970788e-13
1.2546921e-08
-6.5379788e-13
1.2547218e-08
-6.5754898e-13
1.254752e-08
-6.5622566e-13
1.2547825e-08
-6.5580627e-13
1.2548131e-08
-6.5020082e-13
1.2548439e-08
-6.4644499e-13
1.2548746e-08
-6.383675e-13
1.2549052e-08
-6.3253852e-13
1.2549355e-08
-6.2233611e-13
1.2549657e-08
-6.1493628e-13
1.2549955e-08
-6.0302537e-13
1.2550249e-08
-5.9444507e-13
1.2550538e-08
-5.8045278e-13
1.2550822e-08
-5.7033235e-13
1.25511e-08
-5.5499698e-13
1.2551372e-08
-5.4354264e-13
1.2551636e-08
-5.2654783e-13
1.2551894e-08
-5.1396581e-13
1.2552143e-08
-4.9561482e-13
1.2552385e-08
-4.8230895e-13
1.2552618e-08
-4.6266172e-13
1.2552843e-08
-4.487902e-13
1.2553058e-08
-4.2853174e-13
1.2553265e-08
-4.1446354e-13
1.2553463e-08
-3.9361079e-13
1.2553652e-08
-3.7955084e-13
1.2553831e-08
-3.5828366e-13
1.2554002e-08
-3.444576e-13
1.2554163e-08
-3.2301074e-13
1.2554316e-08
-3.097002e-13
1.2554459e-08
-2.8833292e-13
1.2554595e-08
-2.7578075e-13
1.2554721e-08
-2.5467573e-13
1.255484e-08
-2.4305586e-13
1.2554948e-08
-2.2228992e-13
1.2555051e-08
-2.1163371e-13
1.2555144e-08
-1.9129453e-13
1.2555231e-08
-1.8157939e-13
1.2555309e-08
-1.615645e-13
1.2555382e-08
-1.5268596e-13
1.2555445e-08
-1.3294788e-13
1.2555503e-08
-1.2486364e-13
1.2555552e-08
-1.0544656e-13
1.2555597e-08
-9.82953e-14
1.2555633e-08
-7.942675e-14
1.2555666e-08
-7.3434526e-14
1.2555689e-08
-5.537563e-14
1.2555711e-08
-5.1036427e-14
1.2555724e-08
-3.3944313e-14
1.2555736e-08
-3.2017685e-14
-1.4707385e-14
4.6712268e-08
8.419073e-09
-4.5756502e-08
4.7423327e-08
1.1802957e-08
4.7565299e-08
1.1415548e-08
4.7206242e-08
9.4454716e-09
4.6558697e-08
7.4752925e-09
4.5751875e-08
6.1919503e-09
4.4822882e-08
5.3763832e-09
4.3817128e-08
4.7611391e-09
4.2782538e-08
4.2465411e-09
4.1750621e-08
3.8156234e-09
4.073705e-08
3.4566622e-09
3.9750179e-08
3.1522877e-09
3.8795993e-08
2.888248e-09
3.7878944e-08
2.6556232e-09
3.7001814e-08
2.4492101e-09
3.6165776e-08
2.2655041e-09
3.5370733e-08
2.1016275e-09
3.4615707e-08
1.9550314e-09
3.3899165e-08
1.8234754e-09
3.3219256e-08
1.7050316e-09
3.257397e-08
1.5980559e-09
3.1961245e-08
1.501142e-09
3.1379045e-08
1.4130823e-09
3.0825398e-08
1.3328397e-09
3.0298432e-08
1.2595172e-09
2.9796384e-08
1.1923328e-09
2.9317612e-08
1.1306065e-09
2.886059e-08
1.073749e-09
2.842391e-08
1.0212452e-09
2.8006273e-08
9.7264099e-10
2.7606483e-08
9.275382e-10
2.7223441e-08
8.855894e-10
2.6856135e-08
8.4648775e-10
2.6503637e-08
8.0995956e-10
2.6165093e-08
7.7576247e-10
2.5839718e-08
7.4368181e-10
2.5526789e-08
7.1352629e-10
2.522564e-08
6.8512392e-10
2.4935661e-08
6.5831973e-10
2.4656288e-08
6.3297415e-10
2.4387001e-08
6.0896328e-10
2.4127322e-08
5.8617621e-10
2.3876807e-08
5.6451064e-10
2.3635049e-08
5.4387112e-10
2.3401675e-08
5.2417174e-10
2.3176337e-08
5.053365e-10
2.2958716e-08
4.8729697e-10
2.2748515e-08
4.6998934e-10
2.2545464e-08
4.5335362e-10
2.2349311e-08
4.3733372e-10
2.2159827e-08
4.2187881e-10
2.1976799e-08
4.069434e-10
2.180003e-08
3.9248724e-10
2.1629339e-08
3.784744e-10
2.1464559e-08
3.648724e-10
2.1305533e-08
3.516497e-10
2.1152121e-08
3.387749e-10
2.1004193e-08
3.2621766e-10
2.0861628e-08
3.1395049e-10
2.0724319e-08
3.0194919e-10
2.0592164e-08
2.9019395e-10
2.0465068e-08
2.7866936e-10
2.0342942e-08
2.6736336e-10
2.02257e-08
2.5626576e-10
2.0113261e-08
2.4536807e-10
2.0005547e-08
2.346629e-10
1.990248e-08
2.2414393e-10
1.9803986e-08
2.1380639e-10
1.9709992e-08
2.0364785e-10
1.9620423e-08
1.9366806e-10
1.9535203e-08
1.8386898e-10
1.9454255e-08
1.7425492e-10
1.9377497e-08
1.6483242e-10
1.9304845e-08
1.5560966e-10
1.9236208e-08
1.4659675e-10
1.9171489e-08
1.378061e-10
1.9110586e-08
1.2925232e-10
1.9053389e-08
1.209519e-10
1.8999778e-08
1.1292321e-10
1.8949625e-08
1.0518619e-10
1.8902795e-08
9.7761243e-11
1.885914e-08
9.066871e-11
1.8818506e-08
8.3928513e-11
1.8780731e-08
7.7559815e-11
1.8745643e-08
7.1580286e-11
1.8713066e-08
6.6006444e-11
1.8682817e-08
6.0853342e-11
1.8654708e-08
5.6133807e-11
1.8628549e-08
5.1856336e-11
1.8604154e-08
4.8023426e-11
1.8581338e-08
4.4628222e-11
1.855993e-08
4.165176e-11
1.8539772e-08
3.906031e-11
1.8520725e-08
3.6806238e-11
1.8502677e-08
3.4829704e-11
1.8485539e-08
3.306395e-11
1.8469248e-08
3.1441168e-11
1.8453764e-08
2.9900887e-11
1.8439064e-08
2.8394858e-11
1.8425135e-08
2.6891549e-11
1.8411971e-08
2.5375875e-11
1.8399565e-08
2.3849119e-11
1.8387905e-08
2.2323584e-11
1.8376974e-08
2.0819135e-11
1.8366747e-08
1.9356799e-11
1.8357192e-08
1.7956682e-11
1.8348274e-08
1.6633182e-11
1.8339953e-08
1.5395307e-11
1.8332192e-08
1.4244649e-11
1.8324953e-08
1.3179483e-11
1.8318201e-08
1.2193705e-11
1.8311903e-08
1.1280645e-11
1.8306031e-08
1.0431261e-11
1.8300558e-08
9.6385043e-12
1.8295461e-08
8.8950612e-12
1.8290718e-08
8.1969731e-12
1.8286311e-08
7.5394301e-12
1.828222e-08
6.9204733e-12
1.8278429e-08
6.3367539e-12
1.8274919e-08
5.7878537e-12
1.8271677e-08
5.2711922e-12
1.8268686e-08
4.7867406e-12
1.8265932e-08
4.3316299e-12
1.8263402e-08
3.9058742e-12
1.8261082e-08
3.5063824e-12
1.8258959e-08
3.1334709e-12
1.8257023e-08
2.7838932e-12
1.8255262e-08
2.4581446e-12
1.8253665e-08
2.1529475e-12
1.8252222e-08
1.8694333e-12
1.8250925e-08
1.6041302e-12
1.8249763e-08
1.3584491e-12
1.8248728e-08
1.1288806e-12
1.8247812e-08
9.1703095e-13
1.8247007e-08
7.1995529e-13
1.8246306e-08
5.3863712e-13
1.8245703e-08
3.6968519e-13
1.8245189e-08
2.1549862e-13
1.824476e-08
7.1465401e-14
1.8244408e-08
-5.7324858e-14
1.8244129e-08
-1.7737609e-13
1.8243916e-08
-2.8431631e-13
1.8243764e-08
-3.8261983e-13
1.8243668e-08
-4.6826838e-13
1.8243624e-08
-5.4633959e-13
1.8243625e-08
-6.130577e-13
1.8243668e-08
-6.7147197e-13
1.8243748e-08
-7.2006757e-13
1.8243862e-08
-7.6364542e-13
1.8244006e-08
-7.9715468e-13
1.8244176e-08
-8.2752149e-13
1.8244368e-08
-8.4901926e-13
1.8244582e-08
-8.6930929e-13
1.8244812e-08
-8.8073241e-13
1.8245059e-08
-8.9247521e-13
1.8245317e-08
-8.9676926e-13
1.8245586e-08
-9.0204867e-13
1.8245864e-08
-9.0000304e-13
1.8246149e-08
-8.998632e-13
1.8246438e-08
-8.9237021e-13
1.8246732e-08
-8.8773507e-13
1.8247026e-08
-8.7460823e-13
1.8247321e-08
-8.6528359e-13
1.8247614e-08
-8.4795229e-13
1.8247905e-08
-8.3457513e-13
1.8248191e-08
-8.1292793e-13
1.8248473e-08
-7.9616978e-13
1.8248749e-08
-7.7096143e-13
1.8249018e-08
-7.5172772e-13
1.8249279e-08
-7.2335847e-13
1.8249532e-08
-7.0217886e-13
1.8249776e-08
-6.7192831e-13
1.8250011e-08
-6.4959969e-13
1.8250235e-08
-6.17727e-13
1.825045e-08
-5.9480983e-13
1.8250654e-08
-5.6180808e-13
1.8250848e-08
-5.3885324e-13
1.825103e-08
-5.0524493e-13
1.8251203e-08
-4.8284666e-13
1.8251364e-08
-4.4916028e-13
1.8251516e-08
-4.2783008e-13
1.8251656e-08
-3.9444325e-13
1.8251788e-08
-3.7454954e-13
1.8251907e-08
-3.4162566e-13
1.8252019e-08
-3.2331843e-13
1.8252118e-08
-2.9104719e-13
1.8252211e-08
-2.7436597e-13
1.8252292e-08
-2.4260759e-13
1.8252367e-08
-2.2748034e-13
1.825243e-08
-1.961615e-13
1.8252488e-08
-1.8258496e-13
1.8252534e-08
-1.5173979e-13
1.8252576e-08
-1.3996654e-13
1.8252606e-08
-1.0987406e-13
1.8252633e-08
-1.0027036e-13
1.8252649e-08
-7.1255115e-14
1.8252662e-08
-6.4544646e-14
1.8252665e-08
-3.6896292e-14
1.8252667e-08
-3.4040275e-14
-7.3277294e-15
4.8512843e-08
7.6782593e-09
-4.7772029e-08
4.9291059e-08
1.1024741e-08
4.9728408e-08
1.09782e-08
4.9841546e-08
9.3323332e-09
4.9755363e-08
7.5614752e-09
4.9551186e-08
6.3961277e-09
4.9238364e-08
5.6892053e-09
4.8828022e-08
5.1714805e-09
4.8346118e-08
4.7284452e-09
4.781626e-08
4.3454811e-09
4.7251633e-08
4.0212899e-09
4.665963e-08
3.7442901e-09
4.6046804e-08
3.5010741e-09
4.5419904e-08
3.2825238e-09
4.4785348e-08
3.0837652e-09
4.4148714e-08
2.9021386e-09
4.3514581e-08
2.7357603e-09
4.2886614e-08
2.5829981e-09
4.2267695e-08
2.4423947e-09
4.1660045e-08
2.3126815e-09
4.1065332e-08
2.1927692e-09
4.048476e-08
2.0817141e-09
3.9919152e-08
1.9786904e-09
3.9369018e-08
1.8829733e-09
3.8834618e-08
1.793917e-09
3.8316014e-08
1.7109371e-09
3.7813114e-08
1.6335066e-09
3.732571e-08
1.5611529e-09
3.6853507e-08
1.4934481e-09
3.6396148e-08
1.4299997e-09
3.5953234e-08
1.370453e-09
3.5524334e-08
1.3144888e-09
3.5109005e-08
1.2618166e-09
3.4706796e-08
1.2121689e-09
3.4317256e-08
1.1653024e-09
3.3939942e-08
1.1209961e-09
3.3574419e-08
1.0790491e-09
3.3220267e-08
1.0392765e-09
3.2877079e-08
1.0015078e-09
3.2544466e-08
9.6558638e-10
3.2222058e-08
9.3137135e-10
3.19095e-08
8.987343e-10
3.1606456e-08
8.6755473e-10
3.1312609e-08
8.377185e-10
3.1027659e-08
8.0912165e-10
3.0751324e-08
7.8167091e-10
3.048334e-08
7.5528125e-10
3.0223457e-08
7.2987237e-10
2.9971443e-08
7.0536812e-10
2.972708e-08
6.8169677e-10
2.9490165e-08
6.5879284e-10
2.9260512e-08
6.3659687e-10
2.9037944e-08
6.1505562e-10
2.8822297e-08
5.941211e-10
2.861342e-08
5.7374968e-10
2.8411171e-08
5.5389874e-10
2.8215419e-08
5.3452603e-10
2.8026047e-08
5.155906e-10
2.7842942e-08
4.9705515e-10
2.7666004e-08
4.7888657e-10
2.7495141e-08
4.6105774e-10
2.7330263e-08
4.4354722e-10
2.7171288e-08
4.2633829e-10
2.7018137e-08
4.0941694e-10
2.6870733e-08
3.9277175e-10
2.6729003e-08
3.763929e-10
2.6592875e-08
3.6027249e-10
2.6462276e-08
3.4440476e-10
2.6337136e-08
3.2878758e-10
2.6217383e-08
3.1342178e-10
2.610294e-08
2.9831177e-10
2.599373e-08
2.8346525e-10
2.5889669e-08
2.6889339e-10
2.5790668e-08
2.5460978e-10
2.5696634e-08
2.4063112e-10
2.5607463e-08
2.2697731e-10
2.5523044e-08
2.1367162e-10
2.5443256e-08
2.0073989e-10
2.5367968e-08
1.8821101e-10
2.5297038e-08
1.7611569e-10
2.5230314e-08
1.6448567e-10
2.516763e-08
1.5335238e-10
2.5108812e-08
1.4274685e-10
2.5053673e-08
1.3269851e-10
2.5002019e-08
1.2323473e-10
2.4953645e-08
1.1438036e-10
2.490834e-08
1.0615771e-10
2.486589e-08
9.8584541e-11
2.4826074e-08
9.1671924e-11
2.4788676e-08
8.5421292e-11
2.4753484e-08
7.982091e-11
2.4720294e-08
7.4841733e-11
2.4688919e-08
7.0435145e-11
2.4659192e-08
6.6533411e-11
2.4630968e-08
6.3052989e-11
2.4604131e-08
5.990073e-11
2.457859e-08
5.6982708e-11
2.4554276e-08
5.4214289e-11
2.4531144e-08
5.1527688e-11
2.4509158e-08
4.887702e-11
2.4488295e-08
4.6239262e-11
2.4468531e-08
4.3613029e-11
2.4449842e-08
4.1012757e-11
2.4432198e-08
3.8462911e-11
2.4415564e-08
3.5990863e-11
2.4399898e-08
3.3622564e-11
2.4385154e-08
3.1377277e-11
2.4371283e-08
2.9266445e-11
2.4358235e-08
2.7292427e-11
2.4345962e-08
2.5452299e-11
2.4334418e-08
2.3737949e-11
2.4323559e-08
2.2139396e-11
2.4313346e-08
2.0644225e-11
2.4303743e-08
1.9241707e-11
2.4294716e-08
1.7921675e-11
2.4286236e-08
1.6677423e-11
2.4278273e-08
1.5502151e-11
2.4270802e-08
1.4391867e-11
2.4263797e-08
1.3341902e-11
2.4257234e-08
1.2350449e-11
2.4251091e-08
1.1414037e-11
2.4245347e-08
1.0531445e-11
2.4239979e-08
9.6989536e-12
2.423497e-08
8.9154735e-12
2.4230299e-08
8.1771256e-12
2.4225949e-08
7.4831894e-12
2.4221903e-08
6.8296591e-12
2.4218145e-08
6.2160973e-12
2.421466e-08
5.6385605e-12
2.4211432e-08
5.0973192e-12
2.4208448e-08
4.5883504e-12
2.4205694e-08
4.1123108e-12
2.4203158e-08
3.6651048e-12
2.4200827e-08
3.2477573e-12
2.419869e-08
2.8565026e-12
2.4196737e-08
2.4921019e-12
2.4194956e-08
2.1504163e-12
2.4193338e-08
1.8334504e-12
2.4191873e-08
1.5362478e-12
2.4190553e-08
1.2629179e-12
2.4189369e-08
1.0072127e-12
2.4188311e-08
7.7311039e-13
2.4187373e-08
5.5559727e-13
2.4186546e-08
3.5867629e-13
2.4185823e-08
1.7666607e-13
2.4185197e-08
1.3118958e-14
2.418466e-08
-1.3454516e-13
2.4184206e-08
-2.6614727e-13
2.4183829e-08
-3.8658538e-13
2.4183522e-08
-4.9066746e-13
2.4183281e-08
-5.8628928e-13
2.4183099e-08
-6.6730326e-13
2.4182973e-08
-7.4259928e-13
2.4182895e-08
-8.0341137e-13
2.4182864e-08
-8.6075324e-13
2.4182873e-08
-9.0574655e-13
2.4182919e-08
-9.4819201e-13
2.4182998e-08
-9.7872804e-13
2.4183106e-08
-1.0081233e-12
2.4183239e-08
-1.0258011e-12
2.4183395e-08
-1.0438947e-12
2.418357e-08
-1.0489228e-12
2.418376e-08
-1.0558728e-12
2.4183963e-08
-1.0507614e-12
2.4184176e-08
-1.047954e-12
2.4184397e-08
-1.0330368e-12
2.4184622e-08
-1.0219329e-12
2.418485e-08
-9.987362e-13
2.418508e-08
-9.8109652e-13
2.4185307e-08
-9.5066734e-13
2.4185532e-08
-9.2768393e-13
2.4185753e-08
-8.9225559e-13
2.4185969e-08
-8.6547393e-13
2.4186177e-08
-8.2581703e-13
2.4186378e-08
-7.9645315e-13
2.418657e-08
-7.5365362e-13
2.4186754e-08
-7.2286147e-13
2.4186927e-08
-6.7799051e-13
2.4187091e-08
-6.4694034e-13
2.4187243e-08
-6.0104204e-13
2.4187386e-08
-5.7076048e-13
2.4187516e-08
-5.2463114e-13
2.4187637e-08
-4.9590268e-13
2.4187746e-08
-4.4997849e-13
2.4187846e-08
-4.2326318e-13
2.4187933e-08
-3.7799977e-13
2.4188012e-08
-3.5353834e-13
2.4188078e-08
-3.0887439e-13
2.4188137e-08
-2.8674415e-13
2.4188184e-08
-2.4266543e-13
2.4188224e-08
-2.2296182e-13
2.4188252e-08
-1.7954971e-13
2.4188275e-08
-1.6265808e-13
2.4188285e-08
-1.2030325e-13
2.4188291e-08
-1.066939e-13
2.4188286e-08
-6.5857912e-14
2.4188278e-08
-5.637415e-14
2.4188259e-08
-1.764249e-14
2.4188238e-08
-1.3278786e-14
2.2703347e-14
5.0438641e-08
7.1031911e-09
-4.9863573e-08
5.1201236e-08
1.0262146e-08
5.1675491e-08
1.0503946e-08
5.1887597e-08
9.1202265e-09
5.1962607e-08
7.4864655e-09
5.1976119e-08
6.3826157e-09
5.1932194e-08
5.7331302e-09
5.1824686e-08
5.278989e-09
5.1663164e-08
4.8899669e-09
5.1462266e-08
4.5463791e-09
5.1229449e-08
4.2541072e-09
5.0966429e-08
4.0073103e-09
5.0674136e-08
3.7933669e-09
5.0354689e-08
3.60197e-09
5.0011164e-08
3.427291e-09
4.9646928e-08
3.2663738e-09
4.9265262e-08
3.1174265e-09
4.8869233e-08
2.9790276e-09
4.8461682e-08
2.8499451e-09
4.8045225e-08
2.7291384e-09
4.7622243e-08
2.6157516e-09
4.719488e-08
2.509077e-09
4.6765048e-08
2.4085221e-09
4.6334434e-08
2.3135874e-09
4.5904508e-08
2.223843e-09
4.547654e-08
2.1389052e-09
4.5051616e-08
2.0584303e-09
4.4630658e-08
1.9821113e-09
4.4214438e-08
1.9096678e-09
4.38036e-08
1.8408377e-09
4.3398672e-08
1.7753815e-09
4.3000079e-08
1.713082e-09
4.2608158e-08
1.6537376e-09
4.222317e-08
1.5971564e-09
4.1845314e-08
1.5431588e-09
4.1474731e-08
1.4915784e-09