/*--------------------------------*- C++ -*----------------------------------*\
| =========                 |                                                 |
| \\      /  F ield         | OpenFOAM: The Open Source CFD Toolbox           |
|  \\    /   O peration     | Version:  5.x                                   |
|   \\  /    A nd           | Web:      www.OpenFOAM.org                      |
|    \\/     M anipulation  |                                                 |
\*---------------------------------------------------------------------------*/
FoamFile
{
    version     2.0;
    format      ascii;
    class       volVectorField;
    location    "0.2";
    object      U;
}
// * * * * * * * * * * * * * * * * * * * * * * * * * * * * * * * * * * * * * //

dimensions      [0 1 -1 0 0 0 0];

internalField   nonuniform List<vector> 
21600
(
(0.40521411 0.012132622 0)
(0.28662708 0.01090541 0)
(0.19467141 0.006422927 0)
(0.14041284 0.0024878754 0)
(0.1128403 0.00059992333 0)
(0.097498083 0.00010194308 0)
(0.088182416 2.6241828e-05 0)
(0.081888551 5.7389722e-05 0)
(0.077063519 9.7456514e-05 0)
(0.073018658 0.00011611723 0)
(0.069498207 0.00011533922 0)
(0.066408717 0.00010529028 0)
(0.063690928 9.3570748e-05 0)
(0.061288289 8.319703e-05 0)
(0.059147956 7.4635978e-05 0)
(0.057225107 6.7575285e-05 0)
(0.055484048 6.1637493e-05 0)
(0.053896976 5.6544011e-05 0)
(0.052442091 5.2110076e-05 0)
(0.051101955 4.8212663e-05 0)
(0.049862313 4.4764714e-05 0)
(0.04871131 4.1698784e-05 0)
(0.047638967 3.8959648e-05 0)
(0.046636815 3.6501797e-05 0)
(0.045697607 3.4287244e-05 0)
(0.04481511 3.2283318e-05 0)
(0.043983938 3.0462254e-05 0)
(0.043199409 2.8801288e-05 0)
(0.042457429 2.7281352e-05 0)
(0.041754403 2.5885451e-05 0)
(0.041087166 2.4598987e-05 0)
(0.040452913 2.3410076e-05 0)
(0.039849151 2.2308509e-05 0)
(0.039273654 2.1284989e-05 0)
(0.038724429 2.0331469e-05 0)
(0.03819969 1.9441033e-05 0)
(0.037697827 1.8607577e-05 0)
(0.037217388 1.7825758e-05 0)
(0.036757058 1.7090775e-05 0)
(0.036315649 1.6398081e-05 0)
(0.035892082 1.5743825e-05 0)
(0.035485373 1.512505e-05 0)
(0.035094623 1.4538995e-05 0)
(0.034719012 1.3982501e-05 0)
(0.034357795 1.3452647e-05 0)
(0.034010295 1.294724e-05 0)
(0.033675885 1.2464674e-05 0)
(0.033353991 1.2003472e-05 0)
(0.033044081 1.1561994e-05 0)
(0.032745672 1.1138392e-05 0)
(0.032458322 1.0730876e-05 0)
(0.032181628 1.033797e-05 0)
(0.03191522 9.9584964e-06 0)
(0.031658756 9.5917018e-06 0)
(0.031411916 9.2372385e-06 0)
(0.031174397 8.894692e-06 0)
(0.030945917 8.5632814e-06 0)
(0.03072622 8.2419586e-06 0)
(0.030515071 7.929615e-06 0)
(0.03031226 7.6251307e-06 0)
(0.030117594 7.327594e-06 0)
(0.029930896 7.0364767e-06 0)
(0.029752 6.7515243e-06 0)
(0.029580746 6.4725385e-06 0)
(0.029416977 6.1993408e-06 0)
(0.029260547 5.9317488e-06 0)
(0.029111311 5.6694291e-06 0)
(0.028969132 5.4120011e-06 0)
(0.028833878 5.1591413e-06 0)
(0.028705421 4.9106095e-06 0)
(0.028583634 4.6661387e-06 0)
(0.028468391 4.4255662e-06 0)
(0.028359566 4.1887731e-06 0)
(0.028257031 3.9555979e-06 0)
(0.028160656 3.7257996e-06 0)
(0.028070308 3.4993042e-06 0)
(0.027985847 3.276082e-06 0)
(0.027907127 3.0562455e-06 0)
(0.027833993 2.8399898e-06 0)
(0.027766279 2.6278127e-06 0)
(0.027703804 2.4202118e-06 0)
(0.027646372 2.2177601e-06 0)
(0.027593776 2.0209817e-06 0)
(0.027545793 1.830514e-06 0)
(0.027502186 1.6468202e-06 0)
(0.027462705 1.4705575e-06 0)
(0.027427087 1.3025565e-06 0)
(0.027395045 1.1441933e-06 0)
(0.02736628 9.9715421e-07 0)
(0.027340461 8.6375464e-07 0)
(0.027317243 7.4642076e-07 0)
(0.027296258 6.4751284e-07 0)
(0.02727714 5.6837871e-07 0)
(0.027259532 5.0932856e-07 0)
(0.027243118 4.6895587e-07 0)
(0.027227626 4.4443167e-07 0)
(0.027212866 4.3137227e-07 0)
(0.027198711 4.2500611e-07 0)
(0.027185119 4.2044795e-07 0)
(0.027172095 4.1378912e-07 0)
(0.027159699 4.0205382e-07 0)
(0.027147996 3.8405233e-07 0)
(0.027137069 3.5969937e-07 0)
(0.027126965 3.3028792e-07 0)
(0.027117726 2.9738507e-07 0)
(0.027109342 2.6316036e-07 0)
(0.027101801 2.2935698e-07 0)
(0.027095043 1.9763214e-07 0)
(0.02708902 1.6860497e-07 0)
(0.027083652 1.4287518e-07 0)
(0.02707889 1.2020918e-07 0)
(0.027074656 1.0061531e-07 0)
(0.027070913 8.3369178e-08 0)
(0.0270676 6.8193365e-08 0)
(0.027064697 5.4340435e-08 0)
(0.027062155 4.1808944e-08 0)
(0.027059967 3.0054917e-08 0)
(0.027058089 1.9251524e-08 0)
(0.027056523 8.9327991e-09 0)
(0.027055224 -5.8590758e-10 0)
(0.027054199 -9.7374775e-09 0)
(0.027053403 -1.8133501e-08 0)
(0.027052843 -2.5804832e-08 0)
(0.027052474 -3.1427889e-08 0)
(0.027052309 -3.5353198e-08 0)
(0.027052302 -4.0491004e-08 0)
(0.027052468 -4.5927097e-08 0)
(0.027052763 -5.0302991e-08 0)
(0.027053207 -5.4351809e-08 0)
(0.027053753 -5.7188391e-08 0)
(0.027054426 -6.0396122e-08 0)
(0.027055178 -6.2851645e-08 0)
(0.027056039 -6.5275804e-08 0)
(0.027056957 -6.698704e-08 0)
(0.027057969 -6.8576866e-08 0)
(0.027059017 -6.9742606e-08 0)
(0.027060145 -7.1075891e-08 0)
(0.027061295 -7.1856751e-08 0)
(0.027062515 -7.3106824e-08 0)
(0.027063742 -7.3481502e-08 0)
(0.027065028 -7.4263406e-08 0)
(0.027066309 -7.4385276e-08 0)
(0.027067641 -7.4826577e-08 0)
(0.027068954 -7.450253e-08 0)
(0.027070309 -7.454596e-08 0)
(0.027071633 -7.3845603e-08 0)
(0.02707299 -7.3106908e-08 0)
(0.0270743 -7.1712829e-08 0)
(0.027075636 -7.0714314e-08 0)
(0.027076913 -6.8810348e-08 0)
(0.027078212 -6.7472232e-08 0)
(0.027079442 -6.5295342e-08 0)
(0.027080694 -6.3910013e-08 0)
(0.027081871 -6.1552449e-08 0)
(0.027083069 -6.0122745e-08 0)
(0.027084188 -5.7917576e-08 0)
(0.027085333 -5.6693853e-08 0)
(0.027086396 -5.4642515e-08 0)
(0.02708749 -5.3671983e-08 0)
(0.027088499 -5.1807225e-08 0)
(0.027089546 -5.112497e-08 0)
(0.027090504 -4.9276308e-08 0)
(0.027091503 -4.8705259e-08 0)
(0.027092411 -4.6998493e-08 0)
(0.027093364 -4.6489517e-08 0)
(0.027094221 -4.4725792e-08 0)
(0.027095127 -4.4246855e-08 0)
(0.027095932 -4.2437872e-08 0)
(0.027096789 -4.2000302e-08 0)
(0.02709754 -4.0044846e-08 0)
(0.027098347 -3.95885e-08 0)
(0.027099043 -3.7612649e-08 0)
(0.027099799 -3.7184087e-08 0)
(0.027100439 -3.5126384e-08 0)
(0.027101144 -3.469307e-08 0)
(0.027101727 -3.2529471e-08 0)
(0.027102379 -3.2094789e-08 0)
(0.027102906 -2.9848881e-08 0)
(0.027103505 -2.9428197e-08 0)
(0.027103976 -2.712067e-08 0)
(0.027104522 -2.6736738e-08 0)
(0.027104937 -2.4406215e-08 0)
(0.027105431 -2.4100537e-08 0)
(0.027105793 -2.1785398e-08 0)
(0.027106237 -2.1551585e-08 0)
(0.027106549 -1.9272653e-08 0)
(0.027106944 -1.9098662e-08 0)
(0.027107207 -1.6853631e-08 0)
(0.027107555 -1.6692382e-08 0)
(0.027107772 -1.4477505e-08 0)
(0.027108072 -1.4287321e-08 0)
(0.027108246 -1.212088e-08 0)
(0.027108496 -1.1884224e-08 0)
(0.027108631 -9.8357259e-09 0)
(0.027108833 -9.5384545e-09 0)
(0.027108932 -7.71354e-09 0)
(0.027109085 -7.341298e-09 0)
(0.027109159 -5.8965135e-09 0)
(0.027109261 -5.2109927e-09 0)
(0.027109326 -3.8895413e-09 0)
(0.48434126 0.022534661 0)
(0.45690221 0.024513947 0)
(0.41451261 0.019499172 0)
(0.37046958 0.012618482 0)
(0.33194821 0.007314405 0)
(0.29921081 0.0043275728 0)
(0.27275229 0.0027945244 0)
(0.25203511 0.0019940066 0)
(0.23574183 0.001555677 0)
(0.22254667 0.001293428 0)
(0.21149295 0.0011127379 0)
(0.20199561 0.00097168297 0)
(0.19369902 0.00085570453 0)
(0.18636775 0.0007596216 0)
(0.17983002 0.00068002731 0)
(0.17395317 0.00061369323 0)
(0.16863251 0.00055776716 0)
(0.16378484 0.00051000097 0)
(0.1593435 0.00046872657 0)
(0.15525453 0.00043271992 0)
(0.15147367 0.00040106548 0)
(0.14796417 0.00037305495 0)
(0.14469522 0.00034812445 0)
(0.14164073 0.00032581907 0)
(0.13877843 0.00030576642 0)
(0.13608921 0.00028765622 0)
(0.13355658 0.00027122939 0)
(0.13116619 0.00025627085 0)
(0.1289055 0.00024259973 0)
(0.12676354 0.00023006052 0)
(0.12473061 0.00021852064 0)
(0.12279813 0.00020786837 0)
(0.12095848 0.00019800745 0)
(0.11920486 0.00018885325 0)
(0.11753118 0.00018033233 0)
(0.115932 0.0001723808 0)
(0.11440239 0.00016494253 0)
(0.11293793 0.00015796807 0)
(0.11153462 0.00015141344 0)
(0.11018882 0.00014523886 0)
(0.10889725 0.00013940971 0)
(0.10765691 0.00013389629 0)
(0.10646508 0.00012867136 0)
(0.10531926 0.00012370846 0)
(0.10421719 0.00011898385 0)
(0.10315681 0.0001144775 0)
(0.10213621 0.00011017228 0)
(0.10115366 0.00010605235 0)
(0.10020755 0.00010210235 0)
(0.099296445 9.8307213e-05 0)
(0.098418997 9.465321e-05 0)
(0.097573994 9.1128509e-05 0)
(0.096760312 8.772305e-05 0)
(0.095976916 8.4428486e-05 0)
(0.095222842 8.1238024e-05 0)
(0.094497201 7.814489e-05 0)
(0.093799171 7.514144e-05 0)
(0.093128005 7.2219632e-05 0)
(0.092483019 6.9371895e-05 0)
(0.091863593 6.6591363e-05 0)
(0.091269151 6.3872518e-05 0)
(0.090699162 6.1211497e-05 0)
(0.090153118 5.8605631e-05 0)
(0.089630541 5.6052745e-05 0)
(0.089130966 5.3550949e-05 0)
(0.088653952 5.1098498e-05 0)
(0.088199071 4.869342e-05 0)
(0.087765908 4.6333937e-05 0)
(0.08735406 4.4018814e-05 0)
(0.08696313 4.1747375e-05 0)
(0.086592718 3.9519217e-05 0)
(0.086242422 3.7334603e-05 0)
(0.085911833 3.5194234e-05 0)
(0.085600525 3.3099041e-05 0)
(0.08530806 3.1050077e-05 0)
(0.085033976 2.9049238e-05 0)
(0.084777789 2.7098876e-05 0)
(0.084538978 2.5202053e-05 0)
(0.084316994 2.3362341e-05 0)
(0.084111241 2.1584293e-05 0)
(0.08392109 1.9872471e-05 0)
(0.083745857 1.8231673e-05 0)
(0.083584829 1.6666512e-05 0)
(0.083437239 1.5181841e-05 0)
(0.083302293 1.3781881e-05 0)
(0.083179144 1.2471335e-05 0)
(0.083066922 1.1255217e-05 0)
(0.082964699 1.0139629e-05 0)
(0.082871534 9.1305611e-06 0)
(0.082786437 8.2343044e-06 0)
(0.08270843 7.4553455e-06 0)
(0.082636525 6.7954538e-06 0)
(0.082569816 6.250772e-06 0)
(0.082507452 5.812126e-06 0)
(0.082448748 5.4637795e-06 0)
(0.082393139 5.1855629e-06 0)
(0.082340266 4.9537189e-06 0)
(0.082289899 4.7454947e-06 0)
(0.082241987 4.5404972e-06 0)
(0.082196538 4.3242656e-06 0)
(0.082153666 4.0878072e-06 0)
(0.082113446 3.8296649e-06 0)
(0.082075988 3.5529039e-06 0)
(0.082041294 3.2652169e-06 0)
(0.082009371 2.9747953e-06 0)
(0.081980101 2.6910034e-06 0)
(0.08195339 2.4207753e-06 0)
(0.081929032 2.1698172e-06 0)
(0.081906888 1.9397586e-06 0)
(0.081886732 1.7316632e-06 0)
(0.081868435 1.5436617e-06 0)
(0.081851793 1.3745473e-06 0)
(0.081836716 1.2208171e-06 0)
(0.081823031 1.0806248e-06 0)
(0.081810692 9.5081628e-07 0)
(0.081799551 8.3083726e-07 0)
(0.08178959 7.1851549e-07 0)
(0.081780671 6.1411002e-07 0)
(0.081772794 5.1591639e-07 0)
(0.081765823 4.2484473e-07 0)
(0.081759773 3.3941976e-07 0)
(0.081754503 2.6075112e-07 0)
(0.081750041 1.8761334e-07 0)
(0.081746243 1.2214143e-07 0)
(0.081743151 6.2708223e-08 0)
(0.081740618 7.211661e-09 0)
(0.081738701 -4.4983823e-08 0)
(0.081737252 -9.1586996e-08 0)
(0.081736338 -1.3460438e-07 0)
(0.081735809 -1.7457137e-07 0)
(0.081735746 -2.1063533e-07 0)
(0.081735992 -2.4210797e-07 0)
(0.081736646 -2.717993e-07 0)
(0.08173754 -2.9722049e-07 0)
(0.081738788 -3.2004134e-07 0)
(0.081740215 -3.3958089e-07 0)
(0.081741951 -3.5806604e-07 0)
(0.081743812 -3.7294661e-07 0)
(0.081745945 -3.8745868e-07 0)
(0.081748152 -3.9746588e-07 0)
(0.081750595 -4.0779581e-07 0)
(0.081753066 -4.1469329e-07 0)
(0.081755742 -4.2144923e-07 0)
(0.081758402 -4.2447275e-07 0)
(0.081761239 -4.2764957e-07 0)
(0.081764016 -4.2738703e-07 0)
(0.081766945 -4.2629391e-07 0)
(0.081769773 -4.2214547e-07 0)
(0.081772733 -4.1872838e-07 0)
(0.081775559 -4.116951e-07 0)
(0.081778506 -4.0614716e-07 0)
(0.081781289 -3.9735489e-07 0)
(0.081784189 -3.9088973e-07 0)
(0.081786902 -3.8084912e-07 0)
(0.081789732 -3.737537e-07 0)
(0.081792356 -3.6373179e-07 0)
(0.081795103 -3.5686834e-07 0)
(0.081797629 -3.4689726e-07 0)
(0.081800285 -3.404672e-07 0)
(0.081802706 -3.3073113e-07 0)
(0.081805265 -3.2488374e-07 0)
(0.081807573 -3.1481824e-07 0)
(0.081810028 -3.0898393e-07 0)
(0.081812215 -2.9903165e-07 0)
(0.081814559 -2.9316833e-07 0)
(0.081816618 -2.8278612e-07 0)
(0.081818843 -2.7681156e-07 0)
(0.081820766 -2.6605502e-07 0)
(0.081822867 -2.6010368e-07 0)
(0.081824649 -2.4878129e-07 0)
(0.081826619 -2.4274935e-07 0)
(0.081828256 -2.3128268e-07 0)
(0.081830095 -2.2534199e-07 0)
(0.081831585 -2.135946e-07 0)
(0.081833289 -2.0772846e-07 0)
(0.081834633 -1.9568798e-07 0)
(0.081836203 -1.8995032e-07 0)
(0.081837399 -1.7772353e-07 0)
(0.081838836 -1.722285e-07 0)
(0.081839889 -1.5993527e-07 0)
(0.081841195 -1.5479737e-07 0)
(0.081842109 -1.4256518e-07 0)
(0.081843287 -1.3790215e-07 0)
(0.08184407 -1.2581979e-07 0)
(0.081845124 -1.2162187e-07 0)
(0.08184578 -1.0976174e-07 0)
(0.081846714 -1.0598368e-07 0)
(0.081847252 -9.4299174e-08 0)
(0.081848067 -9.0800279e-08 0)
(0.081848495 -7.9275502e-08 0)
(0.081849191 -7.5957604e-08 0)
(0.081849515 -6.4667223e-08 0)
(0.081850094 -6.1544565e-08 0)
(0.081850326 -5.0732986e-08 0)
(0.081850785 -4.7856243e-08 0)
(0.081850941 -3.7858125e-08 0)
(0.081851278 -3.538707e-08 0)
(0.081851383 -2.6562971e-08 0)
(0.081851589 -2.4542362e-08 0)
(0.08185169 -1.5240382e-08 0)
(0.48504622 0.020559966 0)
(0.48880746 0.026121398 0)
(0.48435375 0.023581905 0)
(0.47049915 0.017964325 0)
(0.45164015 0.012979176 0)
(0.43049826 0.0097462649 0)
(0.40950477 0.0076779725 0)
(0.38999124 0.0061999351 0)
(0.37234074 0.0050868636 0)
(0.35645547 0.004251782 0)
(0.34211737 0.0036227373 0)
(0.32913872 0.0031375042 0)
(0.3173684 0.0027519641 0)
(0.3066741 0.0024387192 0)
(0.29693319 0.0021805539 0)
(0.28803205 0.0019653801 0)
(0.27986835 0.0017840268 0)
(0.27235235 0.0016294515 0)
(0.26540676 0.0014963031 0)
(0.25896555 0.0013805314 0)
(0.25297236 0.0012790439 0)
(0.24737902 0.0011894383 0)
(0.24214417 0.001109817 0)
(0.23723213 0.0010386623 0)
(0.23261192 0.00097474392 0)
(0.22825659 0.00091704966 0)
(0.22414253 0.00086474212 0)
(0.22024898 0.0008171264 0)
(0.21655762 0.00077361883 0)
(0.21305223 0.00073372194 0)
(0.20971836 0.00069701299 0)
(0.20654316 0.00066313324 0)
(0.2035151 0.00063177345 0)
(0.20062385 0.00060266367 0)
(0.19786013 0.00057556991 0)
(0.19521553 0.00055028833 0)
(0.1926825 0.00052663971 0)
(0.19025415 0.00050446582 0)
(0.18792426 0.00048362639 0)
(0.18568718 0.00046399605 0)
(0.18353775 0.00044546475 0)
(0.18147126 0.00042793588 0)
(0.17948342 0.00041132117 0)
(0.1775703 0.00039553799 0)
(0.17572832 0.00038051269 0)
(0.1739542 0.00036618137 0)
(0.17224493 0.00035248746 0)
(0.17059774 0.0003393785 0)
(0.16901009 0.00032680508 0)
(0.16747966 0.0003147207 0)
(0.16600434 0.00030308336 0)
(0.16458217 0.00029185613 0)
(0.16321135 0.00028100707 0)
(0.16189023 0.00027050827 0)
(0.16061727 0.00026033505 0)
(0.15939108 0.00025046321 0)
(0.15821034 0.00024086802 0)
(0.15707387 0.00023152516 0)
(0.1559806 0.00022241234 0)
(0.15492953 0.00021350993 0)
(0.15391975 0.00020480221 0)
(0.15295041 0.0001962775 0)
(0.15202071 0.00018792686 0)
(0.15112988 0.00017974274 0)
(0.15027719 0.00017171876 0)
(0.14946195 0.00016384932 0)
(0.14868347 0.00015612905 0)
(0.14794111 0.00014855354 0)
(0.14723422 0.00014112018 0)
(0.14656217 0.00013382809 0)
(0.1459243 0.00012667773 0)
(0.14531997 0.00011967146 0)
(0.14474851 0.00011281309 0)
(0.14420921 0.00010610761 0)
(0.14370135 9.9561068e-05 0)
(0.14322415 9.3181627e-05 0)
(0.1427768 8.6978947e-05 0)
(0.14235841 8.0964394e-05 0)
(0.14196806 7.515077e-05 0)
(0.14160472 6.9552647e-05 0)
(0.14126734 6.4184748e-05 0)
(0.14095476 5.9062046e-05 0)
(0.14066578 5.4199036e-05 0)
(0.1403991 4.9610193e-05 0)
(0.14015339 4.5308659e-05 0)
(0.13992722 4.1307765e-05 0)
(0.13971916 3.762052e-05 0)
(0.13952767 3.4260049e-05 0)
(0.13935124 3.1236946e-05 0)
(0.13918828 2.8558778e-05 0)
(0.13903729 2.6225748e-05 0)
(0.13889675 2.4228368e-05 0)
(0.13876532 2.2542969e-05 0)
(0.13864175 2.1132927e-05 0)
(0.13852506 1.9948465e-05 0)
(0.13841443 1.8932285e-05 0)
(0.13830935 1.8023634e-05 0)
(0.13820944 1.7167767e-05 0)
(0.13811461 1.6319545e-05 0)
(0.13802478 1.5449479e-05 0)
(0.13794004 1.4542522e-05 0)
(0.13786039 1.3600115e-05 0)
(0.13778589 1.2633715e-05 0)
(0.13771644 1.1663176e-05 0)
(0.13765198 1.0708755e-05 0)
(0.13759225 9.7911163e-06 0)
(0.13753708 8.9248483e-06 0)
(0.13748609 8.1204145e-06 0)
(0.13743908 7.3799429e-06 0)
(0.13739567 6.7033882e-06 0)
(0.13735566 6.085308e-06 0)
(0.13731872 5.5209445e-06 0)
(0.1372847 5.0018624e-06 0)
(0.13725332 4.5226986e-06 0)
(0.1372245 4.0764409e-06 0)
(0.13719797 3.6607585e-06 0)
(0.13717372 3.2710016e-06 0)
(0.13715148 2.9067438e-06 0)
(0.13713126 2.5645666e-06 0)
(0.13711282 2.2455159e-06 0)
(0.13709617 1.9468016e-06 0)
(0.13708107 1.6698327e-06 0)
(0.13706757 1.41131e-06 0)
(0.1370554 1.1725723e-06 0)
(0.13704466 9.5013112e-07 0)
(0.13703506 7.4609056e-07 0)
(0.13702671 5.5646218e-07 0)
(0.13701935 3.8302806e-07 0)
(0.13701309 2.2201296e-07 0)
(0.13700766 7.3608057e-08 0)
(0.13700322 -6.2346442e-08 0)
(0.13699947 -1.8434912e-07 0)
(0.13699658 -2.9673933e-07 0)
(0.13699427 -3.9925728e-07 0)
(0.13699272 -5.0010328e-07 0)
(0.13699163 -5.8540056e-07 0)
(0.13699122 -6.6353869e-07 0)
(0.13699116 -7.311497e-07 0)
(0.13699172 -7.9433307e-07 0)
(0.13699252 -8.4551182e-07 0)
(0.13699387 -8.9303778e-07 0)
(0.13699539 -9.3137662e-07 0)
(0.13699738 -9.662682e-07 0)
(0.13699946 -9.9150681e-07 0)
(0.13700197 -1.0138249e-06 0)
(0.13700447 -1.0271135e-06 0)
(0.13700736 -1.036617e-06 0)
(0.13701018 -1.0388185e-06 0)
(0.13701334 -1.0403722e-06 0)
(0.13701637 -1.0337893e-06 0)
(0.13701971 -1.0282269e-06 0)
(0.13702285 -1.015522e-06 0)
(0.1370263 -1.0057629e-06 0)
(0.13702951 -9.8861538e-07 0)
(0.13703301 -9.7574794e-07 0)
(0.13703622 -9.5665078e-07 0)
(0.13703972 -9.4235941e-07 0)
(0.13704289 -9.2167178e-07 0)
(0.13704636 -9.0661361e-07 0)
(0.13704947 -8.848398e-07 0)
(0.13705288 -8.6940812e-07 0)
(0.13705588 -8.4567394e-07 0)
(0.1370592 -8.2904431e-07 0)
(0.13706208 -8.043618e-07 0)
(0.13706528 -7.8670306e-07 0)
(0.137068 -7.6034608e-07 0)
(0.13707106 -7.4173969e-07 0)
(0.13707362 -7.1399157e-07 0)
(0.13707652 -6.9490903e-07 0)
(0.13707889 -6.656952e-07 0)
(0.13708162 -6.4620321e-07 0)
(0.13708379 -6.164457e-07 0)
(0.13708634 -5.9697963e-07 0)
(0.1370883 -5.6657495e-07 0)
(0.13709067 -5.4731609e-07 0)
(0.13709242 -5.1642083e-07 0)
(0.1370946 -4.9760395e-07 0)
(0.13709614 -4.6649666e-07 0)
(0.13709813 -4.4846889e-07 0)
(0.13709946 -4.1748441e-07 0)
(0.13710127 -4.0055037e-07 0)
(0.13710241 -3.6993338e-07 0)
(0.13710404 -3.5431828e-07 0)
(0.13710498 -3.2417995e-07 0)
(0.13710644 -3.098867e-07 0)
(0.13710721 -2.8035067e-07 0)
(0.13710849 -2.673174e-07 0)
(0.13710909 -2.3824529e-07 0)
(0.1371102 -2.2627093e-07 0)
(0.13711065 -1.9760356e-07 0)
(0.1371116 -1.8657253e-07 0)
(0.13711191 -1.5841448e-07 0)
(0.13711269 -1.4850805e-07 0)
(0.13711288 -1.212814e-07 0)
(0.13711349 -1.1279417e-07 0)
(0.13711358 -8.6982871e-08 0)
(0.13711402 -8.0612749e-08 0)
(0.13711405 -5.6499116e-08 0)
(0.13711429 -5.346695e-08 0)
(0.13711432 -2.8425339e-08 0)
(0.48435578 0.017832705 0)
(0.49046835 0.024332838 0)
(0.49750412 0.023343077 0)
(0.49893568 0.019094292 0)
(0.49466657 0.014926469 0)
(0.48645029 0.012191855 0)
(0.47632582 0.010410049 0)
(0.4655457 0.0090459593 0)
(0.45464305 0.0079091622 0)
(0.44379457 0.0069672967 0)
(0.4330788 0.0061938379 0)
(0.42257776 0.0055506284 0)
(0.41237493 0.0050041202 0)
(0.40253771 0.0045326711 0)
(0.3931095 0.0041233078 0)
(0.38411139 0.0037668809 0)
(0.37554768 0.0034556871 0)
(0.36741143 0.00318294 0)
(0.35968856 0.0029427966 0)
(0.35236073 0.0027303518 0)
(0.34540729 0.002541529 0)
(0.33880665 0.002372933 0)
(0.33253713 0.0022217339 0)
(0.32657761 0.0020855652 0)
(0.32090785 0.0019624382 0)
(0.31550874 0.0018506713 0)
(0.31036239 0.0017488421 0)
(0.30545218 0.0016557473 0)
(0.3007627 0.0015703598 0)
(0.29627975 0.0014917933 0)
(0.29199026 0.0014192858 0)
(0.2878822 0.0013521831 0)
(0.28394449 0.0012899167 0)
(0.28016697 0.0012319869 0)
(0.27654029 0.001177957 0)
(0.27305588 0.0011274451 0)
(0.2697058 0.0010801136 0)
(0.26648281 0.001035662 0)
(0.2633802 0.00099382291 0)
(0.26039182 0.00095435739 0)
(0.25751199 0.00091705448 0)
(0.25473546 0.0008817266 0)
(0.25205742 0.00084820244 0)
(0.24947341 0.00081632304 0)
(0.24697932 0.0007859459 0)
(0.24457139 0.00075694582 0)
(0.24224611 0.00072921104 0)
(0.24000025 0.00070263764 0)
(0.23783085 0.00067712808 0)
(0.23573516 0.00065259163 0)
(0.23371067 0.00062894654 0)
(0.23175506 0.00060611993 0)
(0.22986617 0.00058404759 0)
(0.22804203 0.00056267275 0)
(0.22628081 0.00054194446 0)
(0.22458081 0.00052181288 0)
(0.22294048 0.00050222821 0)
(0.22135839 0.0004831428 0)
(0.21983324 0.00046451364 0)
(0.21836383 0.00044630268 0)
(0.21694907 0.00042847891 0)
(0.21558792 0.00041101872 0)
(0.21427943 0.00039390389 0)
(0.21302267 0.00037711876 0)
(0.21181677 0.00036064994 0)
(0.2106609 0.00034448602 0)
(0.20955423 0.00032861714 0)
(0.20849599 0.00031303563 0)
(0.20748539 0.00029773728 0)
(0.20652165 0.00028272129 0)
(0.20560401 0.00026799022 0)
(0.20473164 0.00025355031 0)
(0.20390372 0.00023941096 0)
(0.20311938 0.000225584 0)
(0.20237769 0.00021208402 0)
(0.20167769 0.00019892942 0)
(0.20101833 0.00018614169 0)
(0.20039847 0.00017374528 0)
(0.19981694 0.00016176746 0)
(0.19927242 0.0001502381 0)
(0.19876354 0.00013918762 0)
(0.19828879 0.00012864641 0)
(0.19784662 0.00011864404 0)
(0.19743533 0.00010920923 0)
(0.19705319 0.00010036828 0)
(0.19669836 9.2146251e-05 0)
(0.19636895 8.45662e-05 0)
(0.19606298 7.7648599e-05 0)
(0.19577851 7.140742e-05 0)
(0.1955135 6.5847931e-05 0)
(0.19526603 6.0960513e-05 0)
(0.19503418 5.6716492e-05 0)
(0.19481625 5.3062948e-05 0)
(0.19461063 4.9924706e-05 0)
(0.19441606 4.720643e-05 0)
(0.19423142 4.4801901e-05 0)
(0.194056 4.2602866e-05 0)
(0.1938892 4.0513481e-05 0)
(0.19373076 3.8457421e-05 0)
(0.19358044 3.6385854e-05 0)
(0.19343823 3.4276051e-05 0)
(0.19330399 3.2132137e-05 0)
(0.1931777 2.9975426e-05 0)
(0.19305912 2.783966e-05 0)
(0.19294813 2.5759512e-05 0)
(0.19284432 2.3768385e-05 0)
(0.19274744 2.1889726e-05 0)
(0.19265699 2.0138685e-05 0)
(0.19257267 1.8517685e-05 0)
(0.19249396 1.7024389e-05 0)
(0.19242061 1.5648763e-05 0)
(0.19235211 1.4380674e-05 0)
(0.19228831 1.3205507e-05 0)
(0.19222875 1.2112649e-05 0)
(0.19217335 1.1090325e-05 0)
(0.19212169 1.0133031e-05 0)
(0.19207374 9.2330505e-06 0)
(0.19202911 8.3881243e-06 0)
(0.19198781 7.5928021e-06 0)
(0.19194946 6.8472713e-06 0)
(0.19191411 6.1472151e-06 0)
(0.19188135 5.4934115e-06 0)
(0.19185129 4.88096e-06 0)
(0.19182351 4.3106976e-06 0)
(0.19179814 3.777319e-06 0)
(0.19177477 3.2822768e-06 0)
(0.19175356 2.8197963e-06 0)
(0.1917341 2.3915694e-06 0)
(0.19171657 1.9919201e-06 0)
(0.19170055 1.6237754e-06 0)
(0.19168627 1.2808066e-06 0)
(0.19167329 9.6655786e-07 0)
(0.19166187 6.7542058e-07 0)
(0.19165155 4.0743565e-07 0)
(0.19164263 1.5250168e-07 0)
(0.19163464 -7.4449781e-08 0)
(0.19162792 -2.8328841e-07 0)
(0.19162195 -4.6953757e-07 0)
(0.19161714 -6.4135083e-07 0)
(0.19161293 -8.0407817e-07 0)
(0.19160976 -9.5154439e-07 0)
(0.19160706 -1.0772055e-06 0)
(0.1916053 -1.191027e-06 0)
(0.19160386 -1.2858724e-06 0)
(0.19160329 -1.3714336e-06 0)
(0.19160292 -1.4393538e-06 0)
(0.19160332 -1.4956424e-06 0)
(0.19160381 -1.5376658e-06 0)
(0.19160502 -1.5746468e-06 0)
(0.1916062 -1.5967276e-06 0)
(0.19160804 -1.6163741e-06 0)
(0.19160976 -1.6227215e-06 0)
(0.1916121 -1.6295384e-06 0)
(0.19161423 -1.6229991e-06 0)
(0.19161695 -1.6199379e-06 0)
(0.19161939 -1.6058813e-06 0)
(0.19162239 -1.5959826e-06 0)
(0.19162503 -1.5750424e-06 0)
(0.19162824 -1.5596849e-06 0)
(0.19163101 -1.5330845e-06 0)
(0.19163433 -1.5135585e-06 0)
(0.19163715 -1.4807075e-06 0)
(0.19164053 -1.4562417e-06 0)
(0.19164333 -1.4190094e-06 0)
(0.1916467 -1.390292e-06 0)
(0.19164943 -1.3481895e-06 0)
(0.19165273 -1.3160026e-06 0)
(0.19165534 -1.2699402e-06 0)
(0.19165853 -1.2354049e-06 0)
(0.19166098 -1.1856655e-06 0)
(0.19166403 -1.1493248e-06 0)
(0.19166628 -1.0977562e-06 0)
(0.19166916 -1.0606552e-06 0)
(0.1916712 -1.007404e-06 0)
(0.19167389 -9.7017596e-07 0)
(0.1916757 -9.1580435e-07 0)
(0.19167819 -8.7912058e-07 0)
(0.19167976 -8.242818e-07 0)
(0.19168204 -7.8890717e-07 0)
(0.19168337 -7.3429336e-07 0)
(0.19168544 -7.0088736e-07 0)
(0.19168654 -6.4696446e-07 0)
(0.1916884 -6.1599165e-07 0)
(0.19168928 -5.6299008e-07 0)
(0.19169093 -5.3458233e-07 0)
(0.1916916 -4.8266159e-07 0)
(0.19169306 -4.567537e-07 0)
(0.19169352 -4.0567501e-07 0)
(0.19169478 -3.8209189e-07 0)
(0.19169507 -3.3175105e-07 0)
(0.19169613 -3.1044481e-07 0)
(0.19169625 -2.6088671e-07 0)
(0.19169713 -2.4221582e-07 0)
(0.19169711 -1.9395208e-07 0)
(0.19169779 -1.7856906e-07 0)
(0.19169766 -1.3217191e-07 0)
(0.19169813 -1.2138544e-07 0)
(0.19169794 -7.7203744e-08 0)
(0.19169819 -7.2865642e-08 0)
(0.19169799 -2.9352093e-08 0)
(0.48575991 0.016047435 0)
(0.49009958 0.022580139 0)
(0.49786702 0.022340663 0)
(0.50341405 0.018863463 0)
(0.50493285 0.015203398 0)
(0.50319303 0.012805695 0)
(0.49971465 0.011323431 0)
(0.49545875 0.01021711 0)
(0.49075731 0.0092656132 0)
(0.48565906 0.0084429821 0)
(0.48017026 0.0077460631 0)
(0.47433795 0.0071498547 0)
(0.4682398 0.0066259118 0)
(0.46195917 0.0061556668 0)
(0.45557088 0.0057298535 0)
(0.44913729 0.0053435256 0)
(0.44270907 0.0049928493 0)
(0.43632703 0.0046741713 0)
(0.43002367 0.0043840618 0)
(0.42382443 0.0041194554 0)
(0.41774869 0.0038776673 0)
(0.41181074 0.0036563311 0)
(0.40602063 0.0034533546 0)
(0.40038494 0.0032668813 0)
(0.39490742 0.0030952545 0)
(0.38958956 0.0029369878 0)
(0.38443112 0.0027907557 0)
(0.3794305 0.0026553829 0)
(0.37458509 0.0025298203 0)
(0.36989155 0.0024131242 0)
(0.36534601 0.0023044531 0)
(0.36094425 0.0022030614 0)
(0.35668183 0.0021082816 0)
(0.3525542 0.0020195113 0)
(0.34855681 0.001936211 0)
(0.34468512 0.0018578987 0)
(0.34093469 0.0017841417 0)
(0.3373012 0.0017145476 0)
(0.33378046 0.0016487597 0)
(0.33036847 0.0015864554 0)
(0.32706137 0.0015273473 0)
(0.32385551 0.001471176 0)
(0.32074739 0.001417701 0)
(0.31773372 0.0013666981 0)
(0.31481138 0.0013179646 0)
(0.31197745 0.0012713198 0)
(0.30922915 0.0012266005 0)
(0.3065639 0.0011836545 0)
(0.30397925 0.0011423384 0)
(0.30147295 0.0011025177 0)
(0.29904287 0.0010640706 0)
(0.29668705 0.0010268879 0)
(0.29440364 0.00099087209 0)
(0.29219095 0.00095593546 0)
(0.29004736 0.00092199914 0)
(0.28797141 0.00088898659 0)
(0.28596172 0.00085682148 0)
(0.28401703 0.00082543016 0)
(0.28213619 0.00079474656 0)
(0.28031813 0.00076471265 0)
(0.27856188 0.00073528033 0)
(0.27686652 0.00070641163 0)
(0.27523119 0.00067807733 0)
(0.27365507 0.00065025315 0)
(0.27213739 0.0006229185 0)
(0.27067737 0.00059605528 0)
(0.2692743 0.00056964879 0)
(0.26792745 0.00054368846 0)
(0.2666361 0.00051816951 0)
(0.26539952 0.00049309204 0)
(0.26421698 0.00046846191 0)
(0.26308768 0.00044429093 0)
(0.26201085 0.0004205966 0)
(0.26098558 0.00039740025 0)
(0.26001098 0.00037472811 0)
(0.25908603 0.00035261203 0)
(0.25820968 0.00033108936 0)
(0.25738073 0.00031020181 0)
(0.25659794 0.00028999578 0)
(0.25585989 0.00027052098 0)
(0.25516514 0.00025182848 0)
(0.25451205 0.00023396889 0)
(0.25389892 0.00021699182 0)
(0.2533239 0.00020094455 0)
(0.25278511 0.00018587067 0)
(0.25228047 0.00017181014 0)
(0.25180794 0.00015879877 0)
(0.25136529 0.00014686567 0)
(0.25095039 0.00013602877 0)
(0.25056094 0.00012629032 0)
(0.25019485 0.00011762976 0)
(0.24984992 0.0001099971 0)
(0.24952427 0.0001033078 0)
(0.249216 9.7444576e-05 0)
(0.24892363 9.2262401e-05 0)
(0.24864575 8.7600609e-05 0)
(0.24838142 8.329748e-05 0)
(0.24812975 7.9209014e-05 0)
(0.24789027 7.5220966e-05 0)
(0.24766247 7.1258428e-05 0)
(0.24744619 6.7285846e-05 0)
(0.24724106 6.3305671e-05 0)
(0.247047 5.9346612e-05 0)
(0.24686357 5.5454584e-05 0)
(0.24669062 5.1678736e-05 0)
(0.24652757 4.8065425e-05 0)
(0.24637416 4.4647987e-05 0)
(0.24622972 4.1446529e-05 0)
(0.24609394 3.8464417e-05 0)
(0.24596613 3.5696656e-05 0)
(0.24584601 3.3128574e-05 0)
(0.24573291 3.0743453e-05 0)
(0.24562665 2.851976e-05 0)
(0.24552659 2.644002e-05 0)
(0.24543265 2.4486893e-05 0)
(0.24534424 2.265013e-05 0)
(0.24526134 2.091829e-05 0)
(0.24518339 1.9285861e-05 0)
(0.24511041 1.7744965e-05 0)
(0.24504187 1.6293751e-05 0)
(0.24497785 1.4926218e-05 0)
(0.24491778 1.364143e-05 0)
(0.2448618 1.2432814e-05 0)
(0.24480935 1.1299582e-05 0)
(0.24476061 1.0234706e-05 0)
(0.24471499 9.2380747e-06 0)
(0.24467274 8.3023757e-06 0)
(0.24463326 7.4279881e-06 0)
(0.24459683 6.6075896e-06 0)
(0.24456284 5.8428381e-06 0)
(0.24453163 5.1260881e-06 0)
(0.24450255 4.4597011e-06 0)
(0.244476 3.8359503e-06 0)
(0.24445131 3.2587049e-06 0)
(0.24442893 2.7209146e-06 0)
(0.24440815 2.2240642e-06 0)
(0.24438947 1.7608498e-06 0)
(0.24437217 1.3366509e-06 0)
(0.24435679 9.4218665e-07 0)
(0.24434257 5.7153269e-07 0)
(0.24433013 2.296545e-07 0)
(0.24431864 -7.5542622e-08 0)
(0.24430878 -3.5545861e-07 0)
(0.24429968 -6.0202332e-07 0)
(0.24429208 -8.2612778e-07 0)
(0.24428506 -1.0208856e-06 0)
(0.24427943 -1.2126034e-06 0)
(0.24427421 -1.3678746e-06 0)
(0.24427027 -1.5066902e-06 0)
(0.24426658 -1.6194267e-06 0)
(0.24426409 -1.7217262e-06 0)
(0.2442617 -1.8017109e-06 0)
(0.24426043 -1.876008e-06 0)
(0.24425912 -1.9265743e-06 0)
(0.24425889 -1.9746596e-06 0)
(0.24425847 -2.0045078e-06 0)
(0.24425908 -2.0342642e-06 0)
(0.24425939 -2.0457255e-06 0)
(0.24426069 -2.059153e-06 0)
(0.24426156 -2.0541541e-06 0)
(0.2442634 -2.0534321e-06 0)
(0.2442647 -2.0321625e-06 0)
(0.24426694 -2.0180133e-06 0)
(0.24426853 -1.9846153e-06 0)
(0.24427106 -1.9585659e-06 0)
(0.24427283 -1.9128688e-06 0)
(0.24427552 -1.8769108e-06 0)
(0.24427737 -1.8211173e-06 0)
(0.24428014 -1.7778444e-06 0)
(0.24428198 -1.7132547e-06 0)
(0.24428476 -1.664092e-06 0)
(0.24428651 -1.593904e-06 0)
(0.24428923 -1.5410241e-06 0)
(0.24429085 -1.4661504e-06 0)
(0.24429346 -1.4111515e-06 0)
(0.2442949 -1.3329859e-06 0)
(0.24429736 -1.2774084e-06 0)
(0.24429859 -1.1973811e-06 0)
(0.24430087 -1.1428026e-06 0)
(0.24430188 -1.0623011e-06 0)
(0.24430397 -1.010117e-06 0)
(0.24430474 -9.3014657e-07 0)
(0.24430663 -8.8122611e-07 0)
(0.24430716 -8.0225837e-07 0)
(0.24430884 -7.5732194e-07 0)
(0.24430915 -6.7993335e-07 0)
(0.24431063 -6.389767e-07 0)
(0.24431072 -5.6277262e-07 0)
(0.24431199 -5.2571072e-07 0)
(0.24431189 -4.5053181e-07 0)
(0.24431296 -4.17492e-07 0)
(0.24431268 -3.4350735e-07 0)
(0.24431355 -3.1510208e-07 0)