/*--------------------------------*- C++ -*----------------------------------*\
| =========                 |                                                 |
| \\      /  F ield         | OpenFOAM: The Open Source CFD Toolbox           |
|  \\    /   O peration     | Version:  5.x                                   |
|   \\  /    A nd           | Web:      www.OpenFOAM.org                      |
|    \\/     M anipulation  |                                                 |
\*---------------------------------------------------------------------------*/
FoamFile
{
    version     2.0;
    format      ascii;
    class       volScalarField;
    location    "0.5";
    object      p;
}
// * * * * * * * * * * * * * * * * * * * * * * * * * * * * * * * * * * * * * //

dimensions      [0 2 -2 0 0 0 0];

internalField   nonuniform List<scalar> 
10800
(
0.037171
0.032921
0.0267779
0.0211938
0.0161115
0.0111035
0.00613673
0.00176865
-0.00109655
-0.00206817
-0.0015812
-0.00043667
0.00077022
0.00175071
0.00242172
0.00281323
0.00300066
0.00306239
0.00306178
0.00304145
0.00302395
0.00301587
0.00301433
0.0030139
0.00301132
0.0030054
0.00299526
0.00298034
0.0029614
0.0029403
0.00291855
0.0028961
0.00287161
0.00284412
0.00281347
0.00277987
0.00274341
0.00270456
0.00266427
0.00262363
0.00258276
0.00254097
0.00249752
0.00245314
0.00240869
0.00236455
0.00232101
0.00227879
0.00223754
0.00219671
0.0021556
0.00211405
0.00207197
0.00203003
0.00198792
0.00194542
0.00190169
0.00185689
0.00181127
0.00176605
0.00172143
0.00167745
0.00163345
0.00158985
0.00154626
0.00150329
0.00146024
0.0014167
0.00137185
0.00132641
0.00128048
0.00123483
0.00118864
0.00114237
0.00109627
0.00105102
0.00100546
0.000959465
0.000912996
0.000866408
0.000819069
0.000771197
0.000723497
0.000675985
0.000629001
0.000581841
0.000535395
0.000488109
0.000441722
0.000394206
0.000348957
0.0003023
0.000259566
0.000214603
0.000175419
0.000132404
9.87156e-05
5.88972e-05
3.52807e-05
4.99811e-07
0.0339806
0.0315519
0.0263325
0.0209283
0.0159173
0.0110685
0.00631271
0.00212146
-0.000710619
-0.00176643
-0.00137541
-0.000292368
0.000874023
0.00182532
0.00247646
0.00285575
0.00303584
0.00309296
0.00308907
0.00306609
0.00304628
0.0030362
0.0030329
0.00303093
0.00302699
0.00301988
0.00300869
0.00299281
0.00297299
0.0029511
0.00292866
0.0029056
0.00288056
0.00285255
0.00282142
0.00278738
0.0027505
0.00271127
0.00267062
0.00262964
0.00258847
0.0025464
0.00250268
0.00245804
0.00241336
0.002369
0.00232525
0.00228282
0.0022414
0.0022004
0.00215913
0.00211742
0.0020752
0.00203311
0.00199088
0.00194826
0.00190441
0.0018595
0.00181378
0.00176845
0.00172373
0.00167966
0.00163558
0.00159189
0.00154823
0.00150517
0.00146206
0.00141845
0.00137354
0.00132803
0.00128204
0.00123634
0.00119009
0.00114376
0.00109762
0.00105232
0.00100672
0.000960671
0.000914169
0.000867532
0.000820164
0.000772243
0.000724518
0.000676959
0.000629955
0.00058275
0.000536288
0.00048896
0.000442559
0.000395
0.000349742
0.000303043
0.000260305
0.0002153
0.000176117
0.00013306
9.93772e-05
5.95182e-05
3.59103e-05
1.10641e-06
0.0315427
0.0302685
0.0259471
0.0207758
0.0158171
0.0111278
0.00666702
0.00276079
8.43608e-06
-0.0011904
-0.00100961
-7.6978e-05
0.00100327
0.00190326
0.00252629
0.00289234
0.00306726
0.00312287
0.00311855
0.00309485
0.00307358
0.00306138
0.00305569
0.00305137
0.00304531
0.00303636
0.00302358
0.00300633
0.00298532
0.00296238
0.00293903
0.00291518
0.00288944
0.0028608
0.00282912
0.00279458
0.00275726
0.0027176
0.00267655
0.00263521
0.00259372
0.00255136
0.00250736
0.00246247
0.00241756
0.00237297
0.00232902
0.00228641
0.00224481
0.00220366
0.00216224
0.00212039
0.00207804
0.00203582
0.00199347
0.00195073
0.00190679
0.00186177
0.00181594
0.00177052
0.00172572
0.00168156
0.00163741
0.00159365
0.00154991
0.00150679
0.00146362
0.00141996
0.00137499
0.00132941
0.00128338
0.00123762
0.00119133
0.00114494
0.00109876
0.00105342
0.00100779
0.000961695
0.000915162
0.000868484
0.000821091
0.000773127
0.000725378
0.000677781
0.000630758
0.000583516
0.00053704
0.000489675
0.000443263
0.000395667
0.000350401
0.000303664
0.000260922
0.000215881
0.000176697
0.000133603
9.99234e-05
6.00267e-05
3.64149e-05
1.57483e-06
0.0296782
0.0290038
0.0254648
0.0206315
0.015779
0.011249
0.00707601
0.00346015
0.000821923
-0.000488591
-0.000530389
0.000212425
0.00117911
0.0020191
0.00260963
0.00295723
0.00312154
0.00317129
0.0031637
0.00313748
0.00311327
0.00309751
0.00308797
0.00307997
0.0030707
0.00305904
0.00304397
0.00302477
0.00300207
0.00297763
0.00295295
0.00292791
0.00290112
0.00287157
0.0028391
0.00280386
0.00276592
0.00272571
0.00268413
0.00264228
0.0026003
0.0025575
0.0025131
0.00246784
0.00242261
0.00237773
0.0023335
0.00229064
0.00224882
0.00220746
0.00216584
0.00212381
0.00208129
0.00203891
0.00199641
0.00195354
0.00190945
0.00186431
0.00181836
0.00177282
0.00172792
0.00168366
0.00163942
0.00159557
0.00155176
0.00150855
0.00146532
0.00142158
0.00137655
0.00133091
0.00128481
0.00123899
0.00119265
0.00114621
0.00109998
0.00105459
0.00100892
0.000962778
0.00091621
0.000869489
0.000822064
0.000774054
0.000726277
0.000678639
0.000631594
0.000584314
0.00053782
0.000490418
0.00044399
0.000396355
0.000351076
0.000304301
0.00026155
0.000216474
0.000177283
0.000134153
0.000100466
6.05374e-05
3.68869e-05
2.01717e-06
0.028126
0.0277413
0.0248427
0.0204341
0.0157694
0.0114061
0.00748073
0.00412114
0.00160648
0.000222779
-1.72476e-05
0.000532332
0.00137603
0.00215314
0.00271167
0.0030405
0.00319261
0.00323465
0.00322246
0.00319295
0.00316525
0.00314521
0.00313098
0.00311846
0.00310516
0.00308999
0.0030719
0.0030501
0.00302515
0.00299868
0.00297212
0.00294537
0.00291706
0.00288617
0.00285253
0.00281631
0.00277754
0.0027366
0.00269433
0.00265179
0.00260913
0.00256571
0.00252077
0.00247501
0.00242932
0.00238401
0.00233939
0.00229617
0.00225401
0.00221234
0.00217045
0.00212819
0.00208545
0.00204286
0.00200015
0.00195707
0.0019128
0.00186747
0.00182137
0.00177567
0.00173062
0.00168623
0.00164187
0.0015979
0.00155399
0.00151068
0.00146736
0.00142353
0.00137841
0.00133268
0.00128651
0.00124061
0.0011942
0.00114769
0.0011014
0.00105595
0.00101024
0.000964033
0.00091742
0.000870646
0.000823179
0.000775117
0.000727303
0.000679617
0.000632542
0.000585218
0.000538699
0.000491256
0.000444803
0.000397125
0.000351825
0.00030501
0.000262241
0.000217128
0.000177918
0.000134753
0.000101039
6.10887e-05
3.73445e-05
2.46604e-06
0.0267647
0.0265103
0.0241155
0.0201787
0.0157785
0.011595
0.0078748
0.00472935
0.00233769
0.000913781
0.00050699
0.000871068
0.00158612
0.00229575
0.00282177
0.00313268
0.00327281
0.0033066
0.00328906
0.00325573
0.00322429
0.00319985
0.00318081
0.00316361
0.0031461
0.0031272
0.00310585
0.00308119
0.00305371
0.0030249
0.00299613
0.00296732
0.00293714
0.00290459
0.00286949
0.00283203
0.00279224
0.00275043
0.00270734
0.00266396
0.00262046
0.00257627
0.00253066
0.0024843
0.00243803
0.00239217
0.00234704
0.00230333
0.0022607
0.0022186
0.00217634
0.00213376
0.00209074
0.00204788
0.0020049
0.00196155
0.00191704
0.00187151
0.00182519
0.00177929
0.00173403
0.00168946
0.00164493
0.00160081
0.00155677
0.00151333
0.00146988
0.00142593
0.0013807
0.00133487
0.00128859
0.00124259
0.00119609
0.00114948
0.00110312
0.00105759
0.00101181
0.000965537
0.000918861
0.000872022
0.000824497
0.000776372
0.000728508
0.000680766
0.000633648
0.000586273
0.000539717
0.000492225
0.000445737
0.00039801
0.000352678
0.000305817
0.000263018
0.000217865
0.00017862
0.000135421
0.000101653
6.16953e-05
3.77792e-05
2.93086e-06
0.0255374
0.0253432
0.0233431
0.0198755
0.015795
0.0118104
0.00826293
0.00529093
0.00301418
0.00157689
0.00103539
0.00122702
0.00180989
0.00244608
0.00293757
0.00323118
0.00336009
0.00338546
0.0033617
0.00332362
0.00328781
0.00325865
0.00323463
0.00321267
0.00319089
0.00316819
0.00314349
0.00311588
0.00308576
0.00305449
0.00302338
0.00299236
0.00296018
0.00292581
0.00288912
0.00285029
0.00280937
0.0027666
0.00272262
0.00267832
0.00263391
0.00258889
0.00254257
0.00249556
0.00244865
0.00240218
0.00235646
0.00231217
0.00226896
0.00222631
0.00218358
0.00214061
0.00209726
0.00205407
0.00201075
0.00196709
0.0019223
0.00187652
0.00182996
0.0017838
0.00173829
0.00169348
0.00164873
0.00160442
0.0015602
0.00151661
0.00147299
0.00142889
0.00138353
0.00133757
0.00129116
0.00124502
0.0011984
0.00115169
0.00110522
0.00105959
0.00101372
0.000967367
0.000920612
0.000873688
0.000826088
0.000777886
0.000729955
0.000682143
0.000634968
0.00058753
0.000540924
0.000493373
0.000446836
0.000399052
0.000353672
0.000306759
0.000263912
0.000218716
0.000179414
0.000136182
0.000102322
6.23777e-05
3.81891e-05
3.43432e-06
0.0244148
0.0242561
0.0225702
0.0195371
0.0158035
0.0120389
0.00864696
0.00581436
0.00363857
0.00220654
0.001561
0.00159763
0.00204818
0.00260509
0.00305893
0.0033353
0.00345383
0.00347085
0.00344004
0.00339607
0.00335498
0.00332058
0.0032913
0.00326443
0.0032383
0.00321172
0.00318357
0.00315289
0.00312003
0.0030862
0.00305268
0.00301939
0.00298515
0.00294891
0.00291054
0.00287026
0.00282815
0.00278437
0.00273946
0.0026942
0.00264885
0.00260297
0.00255594
0.00250829
0.00246075
0.00241365
0.00236733
0.00232241
0.00227857
0.00223531
0.00219203
0.00214861
0.00210487
0.0020613
0.00201761
0.00197359
0.0019285
0.00188246
0.00183566
0.00178923
0.00174343
0.00169834
0.00165333
0.00160878
0.00156435
0.00152055
0.00147674
0.00143246
0.00138695
0.00134085
0.00129428
0.00124798
0.00120121
0.00115437
0.00110778
0.00106202
0.00101604
0.000969585
0.000922735
0.000875709
0.000828016
0.000779719
0.000731704
0.000683803
0.000636556
0.000589042
0.000542373
0.000494749
0.000448149
0.000400293
0.000354851
0.000307874
0.000264963
0.000219716
0.000180331
0.000137068
0.000103068
6.31619e-05
3.85838e-05
4.00835e-06
0.0233784
0.0232538
0.0218239
0.0191771
0.0157919
0.0122637
0.0090234
0.00630576
0.00421478
0.00279933
0.00207766
0.00197984
0.00230169
0.00277432
0.00318642
0.00344457
0.00355318
0.00356208
0.00352369
0.00347281
0.00342549
0.00338523
0.00335038
0.00331842
0.00328782
0.00325729
0.00322558
0.00319172
0.00315601
0.00311953
0.00308351
0.00304791
0.00301156
0.00297338
0.00293326
0.00289147
0.00284812
0.00280327
0.00275737
0.00271112
0.00266479
0.00261805
0.00257032
0.00252204
0.00247387
0.00242615
0.00237922
0.00233368
0.0022892
0.00224529
0.00220144
0.00215752
0.00211335
0.00206936
0.00202525
0.00198085
0.00193545
0.00188916
0.00184213
0.00179543
0.00174933
0.00170394
0.00165866
0.00161383
0.00156916
0.00152512
0.00148108
0.0014366
0.00139094
0.00134468
0.00129796
0.00125147
0.00120454
0.00115754
0.00111081
0.00106489
0.00101878
0.000972206
0.000925253
0.000878107
0.000830313
0.000781905
0.000733792
0.00068578
0.000638447
0.000590838
0.000544096
0.000496385
0.000449712
0.00040177
0.000356249
0.000309195
0.000266201
0.000220896
0.0001814
0.000138107
0.000103914
6.40708e-05
3.89804e-05
4.67998e-06
0.0224152
0.0223337
0.0211188
0.0188077
0.0157537
0.0124701
0.00938576
0.00677023
0.00474997
0.00335635
0.00258145
0.00237015
0.00256997
0.00295469
0.00332035
0.00355833
0.00365707
0.00365824
0.00361221
0.0035538
0.00349939
0.00345259
0.0034118
0.00337454
0.00333935
0.00330477
0.0032694
0.00323223
0.00319355
0.00315432
0.00311572
0.00307773
0.00303921
0.00299902
0.00295709
0.00291371
0.00286905
0.00282308
0.00277615
0.00272886
0.00268154
0.00263391
0.00258546
0.00253653
0.00248773
0.00243938
0.00239186
0.00234568
0.00230055
0.00225599
0.00221155
0.00216711
0.00212249
0.00207804
0.00203349
0.00198867
0.00194296
0.00189642
0.00184916
0.00180221
0.00175582
0.00171015
0.00166458
0.00161946
0.00157454
0.00153022
0.00148592
0.00144121
0.00139538
0.00134897
0.0013021
0.00125543
0.00120834
0.00116117
0.00111428
0.00106817
0.00102192
0.000975203
0.000928143
0.000880861
0.00083297
0.000784438
0.000736224
0.000688078
0.000640649
0.000592922
0.000546101
0.000498287
0.000451538
0.000403493
0.000357884
0.000310736
0.000267644
0.00022227
0.000182637
0.000139317
0.000104874
6.51178e-05
3.9399e-05
5.45926e-06
0.0215191
0.0214931
0.0204629
0.0184388
0.0156877
0.0126484
0.00972779
0.00721149
0.00525165
0.00388002
0.00306844
0.00276324
0.00285047
0.00314606
0.00346102
0.00367643
0.00376497
0.00375885
0.00370545
0.00363926
0.00357705
0.00352294
0.0034757
0.00343289
0.00339294
0.0033542
0.00331509
0.00327449
0.00323269
0.00319059
0.0031493
0.00310883
0.00306806
0.00302579
0.00298197
0.00293694
0.00289091
0.00284376
0.00279574
0.00274737
0.00269901
0.00265046
0.00260126
0.00255166
0.00250221
0.00245322
0.00240508
0.00235827
0.00231248
0.00226725
0.0022222
0.00217722
0.00213213
0.00208721
0.00204219
0.00199694
0.0019509
0.00190409
0.00185662
0.00180941
0.00176275
0.00171679
0.00167095
0.00162553
0.00158034
0.00153574
0.00149116
0.00144619
0.0014002
0.00135362
0.00130661
0.00125975
0.00121251
0.00116518
0.00111813
0.00107181
0.0010254
0.000978522
0.00093135
0.000883917
0.000835937
0.000787276
0.000738967
0.00069067
0.000643141
0.000595271
0.000548369
0.000500435
0.000453612
0.000405452
0.000359751
0.000312493
0.000269288
0.000223835
0.000184042
0.000140698
0.000105955
6.63028e-05
3.98574e-05
6.33341e-06
0.0206924
0.0207339
0.0198616
0.018079
0.0155973
0.0127946
0.0100442
0.0076296
0.00572358
0.00437121
0.00353424
0.00315317
0.00313967
0.00334784
0.00360884
0.00379899
0.00387653
0.00386334
0.00380292
0.00372903
0.00365858
0.00359643
0.00354211
0.00349343
0.00344855
0.00340553
0.00336259
0.00331849
0.00327342
0.0032283
0.00318423
0.00314119
0.0030981
0.00305369
0.00300789
0.00296114
0.00291368
0.0028653
0.00281613
0.00276663
0.00271719
0.00266769
0.0026177
0.0025674
0.00251727
0.0024676
0.00241883
0.00237137
0.00232491
0.002279
0.00223332
0.00218779
0.00214221
0.00209679
0.0020513
0.0020056
0.00195922
0.00191212
0.00186444
0.00181696
0.00177003
0.00172379
0.00167768
0.00163194
0.0015865
0.00154159
0.00149672
0.00145148
0.00140531
0.00135855
0.0013114
0.00126435
0.00121698
0.00116948
0.00112228
0.00107573
0.00102917
0.000982104
0.000934816
0.000887217
0.000839157
0.000790362
0.000741971
0.000693513
0.000645883
0.000597851
0.000550862
0.000502792
0.0004559
0.000407616
0.000361825
0.000314447
0.000271115
0.000225575
0.000185599
0.000142236
0.000107147
6.76131e-05
4.03676e-05
7.26995e-06
0.0199479
0.0200647
0.0193239
0.0177408
0.0154932
0.0129109
0.0103314
0.00802281
0.00616833
0.00483237
0.0039774
0.00353643
0.00343508
0.00355977
0.00376452
0.00392641
0.00399161
0.00397118
0.00390397
0.00382265
0.00374387
0.00367309
0.00361101
0.00355606
0.00350607
0.00345866
0.00341181
0.00336413
0.00331568
0.00326742
0.00322045
0.00317479
0.0031293
0.00308268
0.00303484
0.00298631
0.00293735
0.00288767
0.00283729
0.00278662
0.00273607
0.00268558
0.00263478
0.00258374
0.00253289
0.00248253
0.0024331
0.00238497
0.00233782
0.00229121
0.0022449
0.00219879
0.00215271
0.00210678
0.00206079
0.00201462
0.00196788
0.00192049
0.00187257
0.00182482
0.00177762
0.00173109
0.00168471
0.00163866
0.00159294
0.00154772
0.00150255
0.00145703
0.00141067
0.00136372
0.00131643
0.00126919
0.00122169
0.00117402
0.00112668
0.00107989
0.00103316
0.000985904
0.000938496
0.000890715
0.000842578
0.000793645
0.000745182
0.000696559
0.000648832
0.000600624
0.000553543
0.000505323
0.000458362
0.000409951
0.000364071
0.000316569
0.000273097
0.000227467
0.000187282
0.000143909
0.000108436
6.90267e-05
4.09343e-05
8.22797e-06
0.0192978
0.019494
0.0188597
0.0174362
0.0153873
0.0130033
0.010589
0.00839028
0.00658941
0.00526871
0.00440018
0.0039119
0.00373542
0.00378205
0.00392924
0.00405978
0.00411085
0.00408267
0.00400868
0.00392016
0.00383319
0.00375343
0.00368289
0.00362111
0.00356577
0.00351381
0.00346291
0.00341155
0.00335964
0.00330808
0.0032581
0.00320972
0.00316175
0.00311284
0.00306288
0.00301248
0.00296196
0.00291093
0.00285929
0.00280739
0.00275569
0.00270417
0.00265251
0.0026007
0.0025491
0.00249801
0.0024479
0.00239908
0.00235122
0.0023039
0.00225692
0.00221022
0.00216361
0.00211715
0.00207066
0.002024
0.00197689
0.00192919
0.00188102
0.00183298
0.0017855
0.00173868
0.00169202
0.00164564
0.00159965
0.00155411
0.00150864
0.00146282
0.00141627
0.00136911
0.00132168
0.00127424
0.00122661
0.00117876
0.00113128
0.00108426
0.00103736
0.000989893
0.000942357
0.000894386
0.00084617
0.000797095
0.000748563
0.000699774
0.000651951
0.00060356
0.00055638
0.000508001
0.000460965
0.000412427
0.000366453
0.000318833
0.000275206
0.000229487
0.000189067
0.000145692
0.0001098
7.05187e-05
4.15565e-05
9.1706e-06
0.0187174
0.0190061
0.0184644
0.0171672
0.015283
0.0130735
0.0108146
0.00872814
0.00698542
0.00568133
0.00480267
0.00427717
0.00403755
0.00401286
0.00410265
0.00419918
0.00423418
0.00419763
0.00411673
0.00402112
0.00392629
0.0038376
0.00375806
0.00368879
0.00362774
0.00357107
0.00351594
0.00346079
0.00340532
0.00335036
0.0032972
0.00324602
0.0031955
0.00314421
0.00309204
0.00303972
0.00298757
0.00293512
0.00288215
0.00282897
0.00277607
0.00272348
0.00267092
0.00261831
0.00256592
0.00251406
0.00246323
0.0024137
0.00236512
0.00231706
0.00226939
0.00222208
0.00217493
0.00212793
0.00208091
0.00203376
0.00198625
0.00193823
0.00188979
0.00184145
0.00179368
0.00174655
0.00169961
0.00165289
0.00160662
0.00156075
0.00151497
0.00146884
0.00142209
0.00137472
0.00132714
0.00127949
0.00123172
0.0011837
0.00113607
0.00108881
0.00104174
0.000994056
0.000946386
0.000898218
0.000849915
0.000800697
0.000752092
0.000703138
0.000655215
0.000606639
0.00055935
0.00051081
0.000463686
0.000415026
0.000368947
0.000321218
0.000277418
0.000231618
0.000190933
0.000147567
0.000111223
7.20661e-05
4.22307e-05
1.00723e-05
0.018179
0.018576
0.0181254
0.0169316
0.0151823
0.0131233
0.0110071
0.00903214
0.00735283
0.00606904
0.00518382
0.00462941
0.0043376
0.00424915
0.00428328
0.00434397
0.00436098
0.00431535
0.00422736
0.00412467
0.00402237
0.00392517
0.00383643
0.00375899
0.00369171
0.00363017
0.00357069
0.00351161
0.00345255
0.00339413
0.0033377
0.00328362
0.0032305
0.00317675
0.0031223
0.00306798
0.00301414
0.00296022
0.00290586
0.00285135
0.00279721
0.00274352
0.00269002
0.00263656
0.00258334
0.00253068
0.00247911
0.00242885
0.00237952
0.0023307
0.00228233
0.00223439
0.00218668
0.00213911
0.00209155
0.00204388
0.00199598
0.00194762
0.00189889
0.00185024
0.00180216
0.00175472
0.00170749
0.00166042
0.00161385
0.00156765
0.00152155
0.00147511
0.00142814
0.00138055
0.00133281
0.00128494
0.00123703
0.00118883
0.00114104
0.00109353
0.00104629
0.000998388
0.000950575
0.000902208
0.000853809
0.000804445
0.000755759
0.000706642
0.00065861
0.000609852
0.000562442
0.000513742
0.000466516
0.00041774
0.000371538
0.000323712
0.000279717
0.000233848
0.000192869
0.000149521
0.000112698
7.36514e-05
4.29533e-05
1.09198e-05
0.0176772
0.0181933
0.017836
0.0167307
0.0150911
0.0131596
0.0111708
0.0093029
0.00769111
0.00643279
0.00554487
0.00496816
0.00463386
0.00448957
0.00447095
0.00449469
0.00449172
0.00443606
0.00434081
0.00423091
0.0041213
0.00401604
0.00391819
0.00383197
0.0037578
0.00369113
0.00362726
0.00356413
0.00350139
0.00343949
0.0033797
0.00332258
0.00326679
0.00321053
0.00315369
0.0030973
0.00304171
0.00298624
0.00293044
0.00287456
0.00281913
0.00276429
0.00270981
0.00265547
0.00260139
0.0025479
0.00249555
0.00244453
0.00239443
0.00234484
0.00229575
0.00224715
0.00219886
0.00215071
0.0021026
0.0020544
0.00200608
0.00195736
0.00190833
0.00185935
0.00181096
0.00176319
0.00171565
0.00166822
0.00162135
0.00157481
0.00152838
0.00148162
0.00143442
0.0013866
0.00133869
0.00129061
0.00124254
0.00119415
0.0011462
0.00109844
0.00105101
0.00100289
0.000954926
0.000906357
0.000857851
0.000808341
0.000759562
0.000710284
0.000662131
0.000613196
0.000565649
0.000516796
0.000469447
0.000420564
0.000374219
0.000326309
0.000282094
0.00023617
0.000194869
0.000151545
0.00011422
7.5262e-05
4.37221e-05
1.17084e-05
0.0172063
0.0178486
0.0175884
0.0165638
0.0150138
0.0131885
0.0113111
0.00954285
0.00800023
0.00677268
0.00588658
0.00529325
0.00492496
0.00473278
0.00466523
0.00465174
0.0046269
0.00456004
0.00445725
0.00433993
0.00422284
0.00410988
0.00400331
0.00390804
0.0038263
0.00375411
0.0036858
0.00361853
0.00355193
0.00348647
0.00342327
0.003363
0.00330443
0.00324559
0.0031863
0.00312774
0.00307033
0.00301326
0.00295595
0.00289865
0.00284188
0.00278585
0.00273035
0.00267508
0.00262009
0.00256572
0.00251257
0.00246078
0.00240988
0.0023595
0.00230966
0.00226038
0.00221149
0.00216275
0.00211406
0.00206532
0.00201656
0.00196748
0.00191812
0.00186879
0.00182007
0.00177197
0.00172411
0.00167631
0.00162912
0.00158223
0.00153547
0.00148838
0.00144094
0.00139289
0.0013448
0.00129649
0.00124825
0.00119967
0.00115155
0.00110354
0.00105591
0.00100757
0.000959441
0.00091067
0.000862043
0.000812388
0.000763503
0.000714065
0.000665779
0.000616671
0.000568971
0.000519973
0.000472482
0.000423501
0.00037699
0.000329007
0.000284548
0.00023858
0.000196931
0.000153634
0.000115791
7.68898e-05
4.45362e-05
1.24394e-05
0.0167633
0.0175345
0.0173744
0.0164273
0.0149526
0.0132147
0.0114326
0.00975455
0.00827997
0.00708761
0.00620847
0.00560399
0.00520919
0.00497676
0.00486487
0.00481483
0.00476658
0.00468705
0.0045763
0.00445141
0.00432661
0.00420614
0.00409149
0.00398737
0.00389748
0.00381915
0.00374623
0.00367478
0.00360413
0.00353498
0.00346837
0.0034049
0.00334344
0.00328195
0.00322013
0.00315931
0.00310002
0.00304129
0.00298241
0.00292361
0.00286547
0.0028082
0.00275164
0.0026954
0.00263946
0.00258418
0.00253019
0.00247759
0.00242589
0.00237468
0.00232408
0.0022741
0.00222459
0.00217524
0.00212595
0.00207666
0.00202744
0.00197797
0.00192826
0.00187857
0.00182951
0.00178107
0.00173287
0.0016847
0.00163718
0.00158994
0.00154283
0.0014954
0.00144771
0.00139942
0.00135113
0.00130259
0.00125418
0.00120539
0.00115709
0.00110883
0.00106099
0.00101243
0.000964125
0.000915151
0.000866391
0.000816591
0.000767584
0.000717991
0.000669555
0.00062028
0.000572411
0.000523274
0.00047562
0.00042655
0.00037985
0.000331805
0.000287079
0.000241076
0.000199058
0.000155782
0.000117414
7.85295e-05
4.53948e-05
1.31165e-05
0.0163475
0.0172472
0.017188
0.016317
0.0149083
0.013242
0.0115395
0.00994106
0.00853112
0.00737673
0.00650973
0.00589961
0.00548503
0.00521964
0.00506847
0.00498342
0.0049107
0.00481693
0.00469762
0.00456522
0.00443257
0.00430458
0.0041824
0.0040699
0.0039715
0.00388625
0.00380838
0.00373279
0.00365803
0.003585
0.00351495
0.00344829
0.00338383
0.0033196
0.0032552
0.00319203
0.00313077
0.00307033
0.00300982
0.00294947
0.00288991
0.00283135
0.00277368
0.00271644
0.00265952
0.00260327
0.00254842
0.00249498
0.00244245
0.0023904
0.00233901
0.00228832
0.00223817
0.00218819
0.00213829
0.00208841
0.00203874
0.00198886
0.00193878
0.00188871
0.0018393
0.00179049
0.00174195
0.00169339
0.00164553
0.00159792
0.00155047
0.00150269
0.00145474
0.00140619
0.0013577
0.00130892
0.00126032
0.00121133
0.00116283
0.00111432
0.00106626
0.00101748
0.000968984
0.000919807
0.000870898
0.000820955
0.00077181
0.000722065
0.000673463
0.000624028
0.000575971
0.000526704
0.000478866
0.000429715
0.000382804
0.000334705
0.00028969
0.000243655
0.000201254
0.000157987
0.000119094
8.01777e-05
4.62969e-05
1.37454e-05
0.015957
0.0169843
0.0170244
0.0162282
0.0148797
0.0132724
0.0116351
0.0101054
0.00875529
0.00763985
0.00678948
0.00617928
0.00575126
0.00545972
0.0052745
0.00515669
0.00505916
0.00494975
0.00482109
0.00468126
0.00454077
0.00440499
0.00427551
0.00415524
0.00404837
0.00395553
0.0038722
0.00379249
0.00371368
0.00363658
0.00356296
0.00349315
0.00342566
0.00335855
0.00329151
0.00322593
0.0031626
0.00310038
0.00303821
0.00297625
0.00291521
0.00285532
0.0027965
0.00273821
0.00268026
0.00262303
0.00256728
0.00251298
0.00245959
0.00240668
0.00235448
0.00230304
0.00225224
0.00220161
0.00215108
0.00210061
0.00205045
0.00200015
0.00194969
0.00189922
0.00184944
0.00180026
0.00175135
0.0017024
0.00165419
0.00160621
0.00155839
0.00151026
0.00146203
0.00141323
0.00136452
0.00131549
0.00126668
0.00121749
0.00116878
0.00112001
0.00107172
0.00102272
0.000974022
0.000924643
0.00087557
0.000825484
0.000776185
0.000726292
0.000677507
0.000627919
0.000579656
0.000530265
0.000482224
0.000432998
0.000385854
0.000337707
0.000292386
0.000246318
0.000203523
0.000160245
0.000120832
8.18329e-05
4.72405e-05
1.43321e-05
0.0155893
0.0167433
0.0168802
0.0161565
0.0148639
0.0133068
0.0117224
0.0102507
0.00895492
0.00787792
0.00704735
0.00644225
0.0060068
0.00569537
0.00548127
0.00533353
0.00521175
0.00508577
0.00494677
0.00479934
0.00465104
0.00450716
0.00437033
0.00424292
0.00412808
0.00402727
0.00393779
0.00385382
0.00377111
0.00368983
0.00361239
0.0035394
0.00346894
0.00339885
0.00332907
0.00326104
0.00319555
0.00313146
0.00306759
0.00300398
0.0029414
0.00288014
0.00282012
0.00276074
0.00270172
0.00264345
0.00258677
0.00253159
0.00247732
0.00242352
0.00237049
0.00231829
0.00226682
0.00221551
0.00216434
0.00211326
0.00206259
0.00201186
0.00196098
0.0019101
0.00185994
0.00181038
0.00176109
0.00171173
0.00166315
0.00161479
0.0015666
0.00151812
0.0014696
0.00142053
0.00137158
0.00132231
0.00127328
0.00122387
0.00117494
0.00112592
0.00107738
0.00102816
0.000979246
0.000929665
0.000880413
0.000830185
0.000780714
0.000730676
0.000681693
0.000631955
0.00058347
0.000533961
0.000485697
0.0004364
0.000389007
0.00034081
0.000295171
0.000249061
0.000205869
0.000162553
0.000122634
8.34947e-05
4.82229e-05
1.4883e-05
0.0152416
0.0165213
0.0167525
0.0160985
0.0148583
0.0133452
0.0118042
0.0103804
0.00913275
0.00809261
0.00728348
0.00668762
0.00625038
0.00592496
0.0056871
0.00551285
0.00536818
0.00522518
0.00507464
0.00491909
0.00476312
0.00461104
0.00446667
0.00433256
0.00421047
0.00410168
0.00400534
0.00391668
0.00383021
0.0037448
0.00366328
0.00358698
0.00351362
0.00344054
0.00336788
0.00329735
0.00322966
0.00316361
0.00309797
0.00303267
0.00296849
0.00290581
0.00284456
0.00278404
0.00272391
0.00266457
0.00260691
0.00255083
0.00249566
0.00244095
0.00238706
0.00233408
0.00228191
0.00222992
0.00217807
0.00212637
0.00207518
0.00202399
0.00197268
0.00192137
0.00187081
0.00182085
0.00177117
0.0017214
0.00167244
0.00162369
0.00157512
0.00152628
0.00147744
0.0014281
0.00137891
0.00132938
0.00128011
0.00123049
0.00118133
0.00113204
0.00108325
0.0010338
0.000984663
0.00093488
0.000885432
0.000835062
0.000785403
0.000735223
0.000686024
0.000636142
0.000587419
0.000537793
0.000489292
0.000439922
0.000392266
0.000344015
0.00029805
0.000251884
0.000208298
0.000164911
0.000124499
8.51642e-05
4.92408e-05
1.54043e-05
0.0149111
0.0163154
0.016639
0.0160519
0.014861
0.0133873
0.0118823
0.0104972
0.00929119
0.00828577
0.00749852
0.00691463
0.00648059
0.00614702
0.00589059
0.00569349
0.00552777
0.00536782
0.00520467
0.00504025
0.00487678
0.00471668
0.00456448
0.00442374
0.00429511
0.00417871
0.00407498
0.003981
0.0038908
0.00380146
0.00371569
0.00363582
0.00355962
0.00348365
0.00340799
0.00333485
0.00326495
0.00319685
0.00312935
0.00306232
0.00299649
0.00293234
0.00286982
0.00280812
0.00274685
0.00268639
0.00262772
0.0025707
0.00251461
0.00245898
0.0024042
0.00235042
0.00229753
0.00224484
0.0021923
0.00213996
0.00208823
0.00203657
0.0019848
0.00193303
0.00188206
0.0018317
0.00178161
0.00173142
0.00168205
0.00163291
0.00158395
0.00153474
0.00148558
0.00143596
0.0013865
0.00133671
0.00128719
0.00123735
0.00118794
0.00113839
0.00108933
0.00103966
0.000990277
0.000940292
0.000890634
0.000840121
0.000790258
0.000739935
0.000690508
0.000640482
0.000591508
0.000541765
0.000493014
0.000443567
0.000395638
0.000347322
0.000301028
0.000254786
0.000210812
0.000167316
0.000126429
8.68431e-05
5.02903e-05
1.59017e-05
0.0145958
0.0161232
0.016538
0.0160153
0.0148704
0.0134321
0.0119573
0.0106032
0.00943245
0.00845929
0.00769364
0.00712305
0.00669625
0.00636031
0.00609057
0.00587418
0.00568943
0.00551321
0.00533691
0.00516284
0.00499189
0.00482399
0.00466369
0.00451611
0.00438147
0.00425812
0.00414681
0.00404681
0.00395269
0.00385975
0.00376972
0.00368597
0.00360687
0.00352817
0.00344946
0.00337351
0.00330135
0.0032312
0.00316175
0.00309294
0.00302543
0.00295974
0.00289591
0.002833
0.00277053
0.00270893
0.00264922
0.00259123
0.00253419
0.00247761
0.00242192
0.00236732
0.00231369
0.00226028
0.00220703
0.00215403
0.00210175
0.00204959
0.00199734
0.00194511
0.00189371
0.00184292
0.0017924
0.00174179
0.00169201
0.00164247
0.00159311
0.00154352
0.00149401
0.00144411
0.00139437
0.00134431
0.00129453
0.00124446
0.00119479
0.00114498
0.00109564
0.00104574
0.000996098
0.000945907
0.000896024
0.000845366
0.000795285
0.000744817
0.00069515
0.000644978
0.000595743
0.000545879
0.000496868
0.000447334
0.000399126
0.000350731
0.00030411
0.000257767
0.000213413
0.000169769
0.000128422
8.85341e-05
5.13675e-05
1.63806e-05
0.014295
0.015943
0.0164479
0.0159874
0.014885
0.013478
0.0120293
0.0107003
0.00955876
0.0086149
0.00787034
0.00731347
0.00689665
0.00656354
0.00628568
0.00605353
0.00585191
0.00566074
0.0054714
0.00528691
0.00510815
0.0049327
0.00476416
0.00460941
0.0044691
0.00433958
0.00422085
0.00411425
0.00401583
0.00391953
0.00382543
0.00373749
0.00365526
0.00357397
0.00349231
0.00341335
0.00333881
0.00326666
0.0031952
0.00312452
0.00305532
0.00298804
0.00292283
0.00285868
0.00279497
0.00273219
0.0026714
0.00261242
0.00255442
0.00249686
0.00244024
0.0023848
0.00233041
0.00227627
0.00222228
0.00216861
0.00211575
0.00206308
0.00201032
0.00195761
0.00190577
0.00185454
0.00180357
0.00175254
0.00170232
0.00165236
0.00160259
0.00155262
0.00150275
0.00145256
0.00140253
0.00135219
0.00130213
0.00125182
0.00120188
0.0011518
0.00110217
0.00105204
0.00100213
0.000951732
0.000901611
0.000850803
0.000800491
0.000749873
0.000699956
0.000649634
0.000600129
0.000550137
0.00050086
0.000451226
0.000402737
0.000354243
0.000307299
0.000260826
0.000216105
0.000172272
0.000130479
9.02402e-05
5.24686e-05
1.68453e-05
0.0140083
0.0157735
0.0163667
0.0159663
0.0149033
0.0135241
0.0120979
0.0107898
0.00967208
0.00875423
0.00803021
0.00748703
0.00708146
0.00675524
0.00647443
0.00623029
0.00601406
0.00580958
0.00560789
0.00541242
0.00522533
0.00504255
0.00486583
0.00470353
0.00455761
0.00442264
0.00429697
0.00418342
0.00408017
0.0039806
0.00388273
0.00379042
0.00370469
0.00362089
0.00353651