/*--------------------------------*- C++ -*----------------------------------*\
| =========                 |                                                 |
| \\      /  F ield         | OpenFOAM: The Open Source CFD Toolbox           |
|  \\    /   O peration     | Version:  5.x                                   |
|   \\  /    A nd           | Web:      www.OpenFOAM.org                      |
|    \\/     M anipulation  |                                                 |
\*---------------------------------------------------------------------------*/
FoamFile
{
    version     2.0;
    format      ascii;
    class       surfaceScalarField;
    location    "0.5";
    object      phi;
}
// * * * * * * * * * * * * * * * * * * * * * * * * * * * * * * * * * * * * * //

dimensions      [0 3 -1 0 0 0 0];

internalField   nonuniform List<scalar> 
21390
(
7.40855e-08
6.84166e-09
-8.09272e-08
6.56644e-08
8.42113e-09
5.7392e-08
8.2724e-09
4.93816e-08
8.01044e-09
4.16514e-08
7.7302e-09
3.45002e-08
7.15117e-09
2.84009e-08
6.09929e-09
2.37492e-08
4.6517e-09
2.06066e-08
3.14262e-09
1.86311e-08
1.97553e-09
1.73695e-08
1.26153e-09
1.65101e-08
8.59433e-10
1.58736e-08
6.3651e-10
1.53498e-08
5.23777e-10
1.48732e-08
4.76594e-10
1.44144e-08
4.58781e-10
1.39655e-08
4.48885e-10
1.35292e-08
4.36368e-10
1.31115e-08
4.17681e-10
1.27178e-08
3.93663e-10
1.23507e-08
3.67118e-10
1.20097e-08
3.40988e-10
1.16925e-08
3.17221e-10
1.13962e-08
2.96322e-10
1.11182e-08
2.7796e-10
1.08565e-08
2.61699e-10
1.06092e-08
2.4733e-10
1.03747e-08
2.34504e-10
1.01518e-08
2.22857e-10
9.93981e-09
2.1202e-10
9.73781e-09
2.02006e-10
9.54494e-09
1.92867e-10
9.36023e-09
1.84706e-10
9.183e-09
1.77237e-10
9.0126e-09
1.70391e-10
8.84864e-09
1.63969e-10
8.69058e-09
1.58051e-10
8.53821e-09
1.52373e-10
8.39123e-09
1.46984e-10
8.2495e-09
1.41728e-10
8.11258e-09
1.36917e-10
7.98012e-09
1.32467e-10
7.85161e-09
1.28503e-10
7.72706e-09
1.24557e-10
7.60617e-09
1.20882e-10
7.4889e-09
1.17271e-10
7.37499e-09
1.13909e-10
7.26452e-09
1.10476e-10
7.15711e-09
1.07403e-10
7.05275e-09
1.04367e-10
6.95103e-09
1.01718e-10
6.85201e-09
9.90229e-11
6.75538e-09
9.66226e-11
6.66137e-09
9.40135e-11
6.5696e-09
9.17701e-11
6.48018e-09
8.94175e-11
6.39265e-09
8.75352e-11
6.30718e-09
8.54639e-11
6.22345e-09
8.37289e-11
6.14183e-09
8.16217e-11
6.06193e-09
7.99004e-11
5.984e-09
7.79351e-11
5.90754e-09
7.64592e-11
5.83293e-09
7.46061e-11
5.75967e-09
7.32571e-11
5.68824e-09
7.14302e-11
5.61807e-09
7.01764e-11
5.54951e-09
6.85558e-11
5.48195e-09
6.75639e-11
5.41594e-09
6.60042e-11
5.35092e-09
6.50249e-11
5.28749e-09
6.34278e-11
5.22487e-09
6.26215e-11
5.16373e-09
6.11421e-11
5.10338e-09
6.03451e-11
5.0446e-09
5.87777e-11
4.98644e-09
5.81664e-11
4.92968e-09
5.67559e-11
4.87346e-09
5.62251e-11
4.81869e-09
5.47701e-11
4.76427e-09
5.4414e-11
4.71125e-09
5.30222e-11
4.65856e-09
5.26889e-11
4.60732e-09
5.12395e-11
4.5563e-09
5.10193e-11
4.50671e-09
4.95903e-11
4.45724e-09
4.94754e-11
4.40915e-09
4.80901e-11
4.36104e-09
4.81089e-11
4.3143e-09
4.67348e-11
4.26749e-09
4.68097e-11
4.22201e-09
4.54842e-11
4.1764e-09
4.56055e-11
4.13201e-09
4.43924e-11
4.08745e-09
4.4562e-11
4.04384e-09
4.36049e-11
4.00014e-09
4.37007e-11
3.95686e-09
4.32868e-11
3.91395e-09
4.29121e-11
4.50969e-11
8.53721e-08
6.36357e-09
-8.4894e-08
8.44452e-08
9.348e-09
8.25548e-08
1.01628e-08
8.01363e-08
1.04289e-08
7.72021e-08
1.06644e-08
7.37796e-08
1.05737e-08
7.00091e-08
9.86975e-09
6.61466e-08
8.51419e-09
6.2501e-08
6.78821e-09
5.92629e-08
5.21363e-09
5.64135e-08
4.11095e-09
5.38607e-08
3.41225e-09
5.15524e-08
2.94485e-09
4.94631e-08
2.61304e-09
4.75639e-08
2.37583e-09
4.58287e-08
2.19395e-09
4.42356e-08
2.04197e-09
4.27674e-08
1.90455e-09
4.14116e-08
1.77351e-09
4.01584e-08
1.64682e-09
3.89988e-08
1.52672e-09
3.79232e-08
1.41663e-09
3.69216e-08
1.31883e-09
3.59849e-08
1.23298e-09
3.51054e-08
1.15751e-09
3.42765e-08
1.09058e-09
3.34928e-08
1.03098e-09
3.27501e-08
9.77241e-10
3.20446e-08
9.28339e-10
3.13734e-08
8.83243e-10
3.07334e-08
8.41974e-10
3.0122e-08
8.04279e-10
2.95365e-08
7.70257e-10
2.89748e-08
7.38954e-10
2.84349e-08
7.10212e-10
2.79157e-08
6.83214e-10
2.74156e-08
6.58109e-10
2.6934e-08
6.34016e-10
2.64697e-08
6.11293e-10
2.60219e-08
5.89462e-10
2.55894e-08
5.69483e-10
2.51711e-08
5.50785e-10
2.47658e-08
5.33802e-10
2.43731e-08
5.17175e-10
2.39923e-08
5.01767e-10
2.36228e-08
4.86693e-10
2.3264e-08
4.72737e-10
2.29157e-08
4.58798e-10
2.25769e-08
4.46238e-10
2.22474e-08
4.33832e-10
2.19263e-08
4.22792e-10
2.16138e-08
4.11547e-10
2.1309e-08
4.01407e-10
2.10123e-08
3.9071e-10
2.07227e-08
3.81404e-10
2.04404e-08
3.71741e-10
2.01642e-08
3.63675e-10
1.98948e-08
3.54905e-10
1.96311e-08
3.47427e-10
1.93739e-08
3.38825e-10
1.9122e-08
3.31758e-10
1.88762e-08
3.23767e-10
1.86351e-08
3.17532e-10
1.83997e-08
3.09975e-10
1.81687e-08
3.04256e-10
1.79433e-08
2.96922e-10
1.77217e-08
2.9174e-10
1.75052e-08
2.85068e-10
1.72921e-08
2.80674e-10
1.70839e-08
2.74194e-10
1.68789e-08
2.7003e-10
1.66787e-08
2.63604e-10
1.64812e-08
2.60077e-10
1.62884e-08
2.53936e-10
1.60982e-08
2.50611e-10
1.59126e-08
2.44375e-10
1.5729e-08
2.41745e-10
1.55499e-08
2.35866e-10
1.53725e-08
2.33612e-10
1.51996e-08
2.2766e-10
1.5028e-08
2.26047e-10
1.48608e-08
2.20166e-10
1.46947e-08
2.18827e-10
1.45332e-08
2.12774e-10
1.43722e-08
2.11978e-10
1.42159e-08
2.05893e-10
1.40597e-08
2.05647e-10
1.39083e-08
1.99543e-10
1.37565e-08
1.99918e-10
1.36095e-08
1.93657e-10
1.34618e-08
1.94544e-10
1.33191e-08
1.88195e-10
1.31751e-08
1.89639e-10
1.30361e-08
1.83323e-10
1.28953e-08
1.85399e-10
1.27595e-08
1.79419e-10
1.26213e-08
1.81924e-10
1.24875e-08
1.77033e-10
1.23515e-08
1.78947e-10
1.81456e-10
8.92108e-08
5.95443e-09
-8.88017e-08
8.96257e-08
8.93308e-09
8.95672e-08
1.02213e-08
8.93206e-08
1.06755e-08
8.89524e-08
1.10326e-08
8.83318e-08
1.11943e-08
8.73392e-08
1.08623e-08
8.59686e-08
9.88484e-09
8.43392e-08
8.41764e-09
8.26315e-08
6.92123e-09
8.09423e-08
5.80023e-09
7.92646e-08
5.08989e-09
7.75815e-08
4.628e-09
7.58993e-08
4.2952e-09
7.42309e-08
4.04429e-09
7.25831e-08
3.84168e-09
7.09606e-08
3.66447e-09
6.93678e-08
3.49734e-09
6.78101e-08
3.33129e-09
6.62933e-08
3.16358e-09
6.48229e-08
2.99716e-09
6.34024e-08
2.83712e-09
6.20333e-08
2.68786e-09
6.0716e-08
2.55031e-09
5.94495e-08
2.42405e-09
5.82323e-08
2.30775e-09
5.70623e-08
2.20098e-09
5.59375e-08
2.10209e-09
5.48555e-08
2.01026e-09
5.38146e-08
1.92416e-09
5.28122e-08
1.84439e-09
5.1846e-08
1.77044e-09
5.09135e-08
1.70276e-09
5.00128e-08
1.63972e-09
4.91416e-08
1.58142e-09
4.82986e-08
1.52619e-09
4.74823e-08
1.47439e-09
4.66921e-08
1.42418e-09
4.59269e-08
1.37649e-09
4.51861e-08
1.33029e-09
4.4468e-08
1.28763e-09
4.37716e-08
1.24717e-09
4.30954e-08
1.21002e-09
4.24389e-08
1.17368e-09
4.18006e-08
1.14004e-09
4.11802e-08
1.10711e-09
4.05762e-08
1.07673e-09
3.99884e-08
1.04654e-09
3.94154e-08
1.01931e-09
3.88569e-08
9.92314e-10
3.83115e-08
9.68142e-10
3.77797e-08
9.43382e-10
3.72602e-08
9.20933e-10
3.67536e-08
8.9731e-10
3.62584e-08
8.76615e-10
3.5775e-08
8.55055e-10
3.53019e-08
8.36777e-10
3.48399e-08
8.16928e-10
3.43874e-08
7.9996e-10
3.39454e-08
7.80777e-10
3.35122e-08
7.65037e-10
3.30887e-08
7.47202e-10
3.26731e-08
7.33143e-10
3.22669e-08
7.16226e-10
3.18678e-08
7.03272e-10
3.14779e-08
6.86875e-10
3.10945e-08
6.75164e-10
3.07195e-08
6.60006e-10
3.03504e-08
6.49803e-10
2.99895e-08
6.35043e-10
2.9634e-08
6.2555e-10
2.92866e-08
6.11079e-10
2.89437e-08
6.02932e-10
2.86087e-08
5.88919e-10
2.82779e-08
5.81396e-10
2.7955e-08
5.67342e-10
2.76354e-08
5.61266e-10
2.73236e-08
5.47732e-10
2.70146e-08
5.42586e-10
2.67133e-08
5.28956e-10
2.64142e-08
5.25193e-10
2.61228e-08
5.11557e-10
2.5833e-08
5.08612e-10
2.55512e-08
4.946e-10
2.52702e-08
4.92958e-10
2.49974e-08
4.7872e-10
2.47246e-08
4.78448e-10
2.44602e-08
4.63931e-10
2.41949e-08
4.65184e-10
2.39385e-08
4.50089e-10
2.36802e-08
4.52805e-10
2.34312e-08
4.3717e-10
2.31793e-08
4.41537e-10
2.29372e-08
4.25483e-10
2.26908e-08
4.31738e-10
2.24546e-08
4.15687e-10
2.22129e-08
4.23626e-10
2.19809e-08
4.08949e-10
2.17433e-08
4.16636e-10
4.15198e-10
9.30149e-08
5.79344e-09
-9.28539e-08
9.35302e-08
8.41779e-09
9.38022e-08
9.94928e-09
9.39738e-08
1.0504e-08
9.42138e-08
1.07926e-08
9.44578e-08
1.09503e-08
9.45564e-08
1.07637e-08
9.44032e-08
1.0038e-08
9.39861e-08
8.83473e-09
9.34008e-08
7.50653e-09
9.27508e-08
6.45028e-09
9.20604e-08
5.78029e-09
9.13143e-08
5.37411e-09
9.05101e-08
5.09943e-09
8.96579e-08
4.89645e-09
8.87646e-08
4.735e-09
8.78329e-08
4.59611e-09
8.68649e-08
4.46537e-09
8.58631e-08
4.3331e-09
8.48319e-08
4.19475e-09
8.37768e-08
4.05223e-09
8.2704e-08
3.90998e-09
8.16189e-08
3.77294e-09
8.05271e-08
3.64215e-09
7.94332e-08
3.51794e-09
7.83416e-08
3.39932e-09
7.72556e-08
3.287e-09
7.61781e-08
3.17962e-09
7.51109e-08
3.0774e-09
7.4056e-08
2.97907e-09
7.30141e-08
2.88633e-09
7.19859e-08
2.79861e-09
7.09714e-08
2.71722e-09
6.99712e-08
2.63997e-09
6.89849e-08
2.56776e-09
6.8013e-08
2.49806e-09
6.70556e-08
2.43178e-09
6.61139e-08
2.36589e-09
6.51883e-08
2.30211e-09
6.42801e-08
2.2385e-09
6.33892e-08
2.17853e-09
6.25164e-08
2.11992e-09
6.16614e-08
2.06509e-09
6.08247e-08
2.01031e-09
6.00055e-08
1.95925e-09
5.92041e-08
1.90856e-09
5.84189e-08
1.86185e-09
5.76504e-08
1.81512e-09
5.68965e-08
1.77315e-09
5.61577e-08
1.73116e-09
5.5432e-08
1.69376e-09
5.47205e-08
1.65493e-09
5.40216e-08
1.61979e-09
5.33368e-08
1.58218e-09
5.26642e-08
1.54913e-09
5.20053e-08
1.51397e-09
5.13581e-08
1.48401e-09
5.07241e-08
1.45093e-09
5.01013e-08
1.42277e-09
4.94913e-08
1.39074e-09
4.88916e-08
1.36478e-09
4.83038e-08
1.33494e-09
4.77253e-08
1.31164e-09
4.71583e-08
1.28325e-09
4.65999e-08
1.26169e-09
4.60528e-08
1.23396e-09
4.55137e-08
1.21433e-09
4.49854e-08
1.18825e-09
4.44644e-08
1.1708e-09
4.39542e-08
1.14521e-09
4.34507e-08
1.12907e-09
4.29577e-08
1.10406e-09
4.24705e-08
1.09016e-09
4.19937e-08
1.06571e-09
4.15221e-08
1.053e-09
4.10609e-08
1.02852e-09
4.06041e-08
1.01813e-09
4.01577e-08
9.94164e-10
3.97148e-08
9.8542e-10
3.92825e-08
9.61277e-10
3.88528e-08
9.54877e-10
3.84338e-08
9.30524e-10
3.80167e-08
9.25752e-10
3.76106e-08
9.00672e-10
3.72054e-08
8.98222e-10
3.68116e-08
8.72519e-10
3.64174e-08
8.72579e-10
3.60353e-08
8.46101e-10
3.56515e-08
8.48964e-10
3.52804e-08
8.21213e-10
3.49062e-08
8.26932e-10
3.45456e-08
7.9785e-10
3.41803e-08
8.06821e-10
3.38293e-08
7.76491e-10
3.34718e-08
7.89176e-10
3.31294e-08
7.5815e-10
3.27787e-08
7.74317e-10
3.24428e-08
7.44829e-10
3.20981e-08
7.61301e-10
7.51186e-10
9.705e-08
5.74687e-09
-9.70034e-08
9.75068e-08
7.96097e-09
9.78714e-08
9.58468e-09
9.81149e-08
1.02605e-08
9.84141e-08
1.04933e-08
9.87865e-08
1.0578e-08
9.91305e-08
1.04197e-08
9.93327e-08
9.83571e-09
9.93401e-08
8.82742e-09
9.91985e-08
7.64812e-09
9.89984e-08
6.65033e-09
9.87799e-08
5.99877e-09
9.85337e-08
5.62032e-09
9.82495e-08
5.38368e-09
9.79302e-08
5.21574e-09
9.75799e-08
5.0853e-09
9.71986e-08
4.97745e-09
9.67839e-08
4.87999e-09
9.63331e-08
4.78393e-09
9.58446e-08
4.68323e-09
9.53184e-08
4.57848e-09
9.4756e-08
4.47236e-09
9.41595e-08
4.36942e-09
9.35319e-08
4.26975e-09
9.2876e-08
4.17382e-09
9.21954e-08
4.08e-09
9.14926e-08
3.98974e-09
9.07709e-08
3.90134e-09
9.00323e-08
3.81604e-09
8.9279e-08
3.73227e-09
8.85124e-08
3.65294e-09
8.77341e-08
3.57699e-09
8.69444e-08
3.50691e-09
8.61445e-08
3.43979e-09
8.53346e-08
3.37773e-09
8.45155e-08
3.3171e-09
8.36875e-08
3.25978e-09
8.28523e-08
3.20111e-09
8.20106e-08
3.14382e-09
8.11649e-08
3.08418e-09
8.03164e-08
3.02704e-09
7.9468e-08
2.96834e-09
7.8621e-08
2.9121e-09
7.77785e-08
2.85283e-09
7.69411e-08
2.79666e-09
7.61111e-08
2.73855e-09
7.52881e-08
2.68484e-09
7.44736e-08
2.6296e-09
7.36662e-08
2.58059e-09
7.28668e-08
2.53054e-09
7.20735e-08
2.48703e-09
7.12877e-08
2.44076e-09
7.05077e-08
2.3998e-09
6.97356e-08
2.3543e-09
6.89699e-08
2.31484e-09
6.82131e-08
2.27076e-09
6.74636e-08
2.23346e-09
6.67244e-08
2.19012e-09
6.59935e-08
2.15365e-09
6.52738e-08
2.11049e-09
6.45622e-08
2.07638e-09
6.38614e-08
2.03576e-09
6.31679e-08
2.0051e-09
6.24848e-08
1.96639e-09
6.18083e-08
1.93817e-09
6.11422e-08
1.9e-09
6.04825e-08
1.87403e-09
5.98335e-08
1.83733e-09
5.91906e-08
1.81366e-09
5.85589e-08
1.7769e-09
5.79332e-08
1.75476e-09
5.73188e-08
1.71851e-09
5.67094e-08
1.6995e-09
5.61114e-08
1.66378e-09
5.55178e-08
1.64657e-09
5.49356e-08
1.61068e-09
5.43572e-08
1.5966e-09
5.37905e-08
1.56083e-09
5.32269e-08
1.549e-09
5.26755e-08
1.51267e-09
5.21262e-08
1.50418e-09
5.15895e-08
1.46721e-09
5.1054e-08
1.46131e-09
5.05316e-08
1.42307e-09
5.00092e-08
1.42065e-09
4.95006e-08
1.38108e-09
4.89907e-08
1.38246e-09
4.84955e-08
1.3413e-09
4.79975e-08
1.347e-09
4.75151e-08
1.30356e-09
4.70282e-08
1.31383e-09
4.65582e-08
1.26792e-09
4.60816e-08
1.28337e-09
4.56231e-08
1.23502e-09
4.51559e-08
1.25637e-09
4.47077e-08
1.20633e-09
4.42487e-08
1.23328e-09
4.38087e-08
1.18484e-09
4.33572e-08
1.21286e-09
1.18942e-09
1.01261e-07
5.739e-09
-1.01253e-07
1.01632e-07
7.5891e-09
1.02032e-07
9.18469e-09
1.02322e-07
9.9709e-09
1.02611e-07
1.0204e-08
1.02963e-07
1.0226e-08
1.03327e-07
1.00563e-08
1.036e-07
9.56247e-09
1.0372e-07
8.7075e-09
1.03706e-07
7.66205e-09
1.03638e-07
6.71842e-09
1.03566e-07
6.07031e-09
1.03493e-07
5.69361e-09
1.03406e-07
5.47083e-09
1.03303e-07
5.31847e-09
1.03188e-07
5.20017e-09
1.03062e-07
5.10374e-09
1.02922e-07
5.01969e-09
1.02765e-07
4.94118e-09
1.02587e-07
4.86148e-09
1.02385e-07
4.78056e-09
1.02158e-07
4.6992e-09
1.01906e-07
4.62168e-09
1.01629e-07
4.54683e-09
1.01327e-07
4.47545e-09
1.01002e-07
4.4048e-09
1.00655e-07
4.33707e-09
1.00286e-07
4.26971e-09
9.98974e-08
4.20509e-09
9.94889e-08
4.14078e-09
9.90608e-08
4.08098e-09
9.86142e-08
4.02364e-09
9.81484e-08
3.97267e-09
9.76641e-08
3.92411e-09
9.71601e-08
3.88174e-09
9.66366e-08
3.84063e-09
9.60921e-08
3.80421e-09
9.55273e-08
3.76598e-09
9.4941e-08
3.73013e-09
9.43345e-08
3.69059e-09
9.3708e-08
3.65359e-09
9.3064e-08
3.61237e-09
9.24035e-08
3.57255e-09
9.17306e-08
3.52578e-09
9.10465e-08
3.48072e-09
9.03552e-08
3.42989e-09
8.96571e-08
3.38288e-09
8.89554e-08
3.33132e-09
8.82491e-08
3.28683e-09
8.75404e-08
3.23927e-09
8.68272e-08
3.20029e-09
8.6111e-08
3.15692e-09
8.53895e-08
3.12127e-09
8.46649e-08
3.07896e-09
8.39349e-08
3.04484e-09
8.32028e-08
3.00287e-09
8.24671e-08
2.96914e-09
8.17323e-08
2.92492e-09
8.0997e-08
2.88892e-09
8.02659e-08
2.84161e-09
7.95364e-08
2.80593e-09
7.88123e-08
2.75978e-09
7.80901e-08
2.72736e-09
7.73733e-08
2.68315e-09
7.66575e-08
2.654e-09
7.59471e-08
2.61037e-09
7.52373e-08
2.58382e-09
7.45336e-08
2.54103e-09
7.38312e-08
2.51614e-09
7.31365e-08
2.47155e-09
7.2444e-08
2.44723e-09
7.17606e-08
2.40196e-09
7.10791e-08
2.381e-09
7.04071e-08
2.3358e-09
6.97364e-08
2.31722e-09
6.90755e-08
2.27161e-09
6.84151e-08
2.25696e-09
6.77653e-08
2.21065e-09
6.71159e-08
2.1984e-09
6.64781e-08
2.15044e-09
6.58402e-08
2.14211e-09
6.52148e-08
2.09256e-09
6.45884e-08
2.08774e-09
6.39753e-08
2.03614e-09
6.336e-08
2.036e-09
6.2759e-08
1.98203e-09
6.21546e-08
1.9869e-09
6.15659e-08
1.93004e-09
6.09722e-08
1.94067e-09
6.03956e-08
1.88018e-09
5.98122e-08
1.89716e-09
5.92474e-08
1.83275e-09
5.86738e-08
1.85694e-09
5.81203e-08
1.78857e-09
5.75558e-08
1.82088e-09
5.70125e-08
1.74957e-09
5.64562e-08
1.78963e-09
5.59211e-08
1.71989e-09
5.5372e-08
1.76194e-09
1.72186e-09
1.05607e-07
5.73478e-09
-1.05603e-07
1.059e-07
7.29617e-09
1.063e-07
8.78475e-09
1.06631e-07
9.63995e-09
1.06922e-07
9.91337e-09
1.07244e-07
9.90362e-09
1.07587e-07
9.7132e-09
1.07869e-07
9.28038e-09
1.08024e-07
8.5531e-09
1.08051e-07
7.63481e-09
1.08017e-07
6.75279e-09
1.07978e-07
6.10875e-09
1.07949e-07
5.72299e-09
1.07918e-07
5.50139e-09
1.07881e-07
5.35542e-09
1.07841e-07
5.2408e-09
1.07799e-07
5.1458e-09
1.07755e-07
5.06316e-09
1.07707e-07
4.98906e-09
1.07652e-07
4.9166e-09
1.07587e-07
4.84596e-09
1.0751e-07
4.77596e-09
1.07421e-07
4.71107e-09
1.07319e-07
4.64867e-09
1.07204e-07
4.59038e-09
1.07076e-07
4.53215e-09
1.06936e-07
4.47731e-09
1.06784e-07
4.42211e-09
1.06618e-07
4.3704e-09
1.06441e-07
4.31845e-09
1.0625e-07
4.27196e-09
1.06046e-07
4.22739e-09
1.05828e-07
4.19036e-09
1.05597e-07
4.15544e-09
1.0535e-07
4.12856e-09
1.05088e-07
4.10318e-09
1.04807e-07
4.085e-09
1.04507e-07
4.0655e-09
1.04186e-07
4.05115e-09
1.03844e-07
4.03323e-09
1.03477e-07
4.01997e-09
1.03088e-07
4.00128e-09
1.02676e-07
3.98478e-09
1.02244e-07
3.9583e-09
1.01791e-07
3.93314e-09
1.01323e-07
3.89821e-09
1.00839e-07
3.86672e-09
1.00344e-07
3.82693e-09
9.98355e-08
3.79489e-09
9.93178e-08
3.75691e-09
9.87885e-08
3.72963e-09
9.82494e-08
3.69604e-09
9.76972e-08
3.67343e-09
9.71336e-08
3.64257e-09
9.65548e-08
3.6236e-09
9.59635e-08
3.59424e-09
9.53568e-08
3.57583e-09
9.47395e-08
3.54218e-09
9.41102e-08
3.51821e-09
9.3475e-08
3.47683e-09
9.28319e-08
3.44899e-09
9.21867e-08
3.40501e-09
9.15358e-08
3.37823e-09
9.08841e-08
3.33492e-09
9.02261e-08
3.31198e-09
8.95667e-08
3.2698e-09
8.88997e-08
3.25082e-09
8.8231e-08
3.20966e-09
8.75551e-08
3.19203e-09
8.68798e-08
3.14688e-09
8.61994e-08
3.12768e-09
8.55225e-08
3.07884e-09
8.48419e-08
3.06158e-09
8.41665e-08
3.01119e-09
8.34873e-08
2.99645e-09
8.28135e-08
2.94538e-09
8.21348e-08
2.93573e-09
8.14621e-08
2.88329e-09
8.07845e-08
2.876e-09
8.01149e-08
2.82005e-09
7.94407e-08
2.8163e-09
7.87765e-08
2.75676e-09
7.81074e-08
2.75683e-09
7.74494e-08
2.69415e-09
7.67853e-08
2.70013e-09
7.61334e-08
2.63393e-09
7.54743e-08
2.64598e-09
7.48292e-08
2.5751e-09
7.41761e-08
2.59382e-09
7.35389e-08
2.51741e-09
7.2892e-08
2.54401e-09
7.22627e-08
2.46204e-09
7.16219e-08
2.49772e-09
7.10004e-08
2.41007e-09
7.03656e-08
2.45574e-09
6.97515e-08
2.36368e-09
6.91222e-08
2.41888e-09
6.85138e-08
2.32835e-09
6.78894e-08
2.38637e-09
2.32915e-09
1.10073e-07
5.72244e-09
-1.10061e-07
1.10304e-07
7.06572e-09
1.10682e-07
8.4065e-09
1.11041e-07
9.28133e-09
1.11344e-07
9.60955e-09
1.11649e-07
9.59938e-09
1.11967e-07
9.39498e-09
1.12244e-07
9.00294e-09
1.12417e-07
8.3807e-09
1.1247e-07
7.58176e-09
1.12451e-07
6.77127e-09
1.12421e-07
6.13928e-09
1.12401e-07
5.74294e-09
1.12386e-07
5.51633e-09
1.12368e-07
5.37327e-09
1.12348e-07
5.26063e-09
1.12329e-07
5.16488e-09
1.12313e-07
5.07972e-09
1.12297e-07
5.0048e-09
1.1228e-07
4.93317e-09
1.1226e-07
4.86605e-09
1.12236e-07
4.8002e-09
1.12206e-07
4.74064e-09
1.12172e-07
4.68301e-09
1.12132e-07
4.63019e-09
1.12088e-07
4.57655e-09
1.12038e-07
4.52702e-09
1.11984e-07
4.47636e-09
1.11924e-07
4.43027e-09
1.11859e-07
4.38331e-09
1.11788e-07
4.34308e-09
1.11711e-07
4.30397e-09
1.11628e-07
4.2737e-09
1.11539e-07
4.24481e-09
1.11441e-07
4.22582e-09
1.11336e-07
4.2081e-09
1.11221e-07
4.20023e-09
1.11095e-07
4.19137e-09
1.10956e-07
4.19101e-09
1.10801e-07
4.1876e-09
1.10629e-07
4.19215e-09
1.10439e-07
4.19095e-09
1.1023e-07
4.19438e-09
1.10002e-07
4.18591e-09
1.09755e-07
4.17982e-09
1.09493e-07
4.1606e-09
1.09214e-07
4.14539e-09
1.08923e-07
4.11812e-09
1.08618e-07
4.09971e-09
1.08303e-07
4.07211e-09
1.07975e-07
4.05746e-09
1.07637e-07
4.03408e-09
1.07285e-07
4.0254e-09
1.06921e-07
4.00697e-09
1.06539e-07
4.00548e-09
1.06141e-07
3.99214e-09
1.05722e-07
3.9945e-09
1.05287e-07
3.97802e-09
1.04831e-07
3.97402e-09
1.04361e-07
3.94641e-09
1.03876e-07
3.93425e-09
1.03382e-07
3.8991e-09
1.02876e-07
3.88415e-09
1.02364e-07
3.84667e-09
1.01841e-07
3.83499e-09
1.01312e-07
3.79912e-09
1.00769e-07
3.79379e-09
1.00217e-07
3.76102e-09
9.96507e-08
3.75886e-09
9.90761e-08
3.72144e-09
9.84878e-08
3.71602e-09
9.78955e-08
3.67111e-09
9.72926e-08
3.66447e-09
9.66894e-08
3.61445e-09
9.60767e-08
3.60908e-09
9.54644e-08
3.55766e-09
9.48412e-08
3.55899e-09
9.42179e-08
3.5066e-09
9.35827e-08
3.51121e-09
9.2949e-08
3.4537e-09
9.23045e-08
3.46079e-09
9.16648e-08
3.39643e-09
9.10155e-08
3.40622e-09
9.03728e-08
3.33677e-09
8.97195e-08
3.35349e-09
8.90736e-08
3.27979e-09
8.84157e-08
3.30389e-09
8.77671e-08
3.22374e-09
8.71062e-08
3.25471e-09
8.64572e-08
3.16643e-09
8.57953e-08
3.20591e-09
8.5147e-08
3.11032e-09
8.44843e-08
3.16044e-09
8.38367e-08
3.05768e-09
8.31734e-08
3.11901e-09
8.25267e-08
3.01033e-09
8.18636e-08
3.08202e-09
8.1217e-08
2.97498e-09
8.05535e-08
3.04981e-09
2.97911e-09
1.1466e-07
5.70232e-09
-1.1464e-07
1.14847e-07
6.87897e-09
1.15192e-07
8.06114e-09
1.15562e-07
8.91172e-09
1.15883e-07
9.28865e-09
1.1618e-07
9.30247e-09
1.16476e-07
9.0991e-09
1.16743e-07
8.73576e-09
1.16926e-07
8.19714e-09
1.17002e-07
7.50593e-09
1.16999e-07
6.77398e-09
1.16975e-07
6.16399e-09
1.16958e-07
5.76011e-09
1.16949e-07
5.52503e-09
1.1694e-07
5.38253e-09
1.16928e-07
5.27189e-09
1.16917e-07
5.17607e-09
1.16909e-07
5.08807e-09
1.16903e-07
5.01095e-09
1.16898e-07
4.93777e-09
1.16893e-07
4.87149e-09
1.16886e-07
4.8068e-09
1.16877e-07
4.74971e-09
1.16866e-07
4.69365e-09
1.16853e-07
4.64316e-09
1.16839e-07
4.59069e-09
1.16823e-07
4.54317e-09
1.16806e-07
4.49341e-09
1.16787e-07
4.44944e-09
1.16767e-07
4.40366e-09
1.16744e-07
4.36593e-09
1.16719e-07
4.32813e-09
1.16693e-07
4.30045e-09
1.16665e-07
4.27283e-09
1.16634e-07
4.25674e-09
1.16601e-07
4.24093e-09
1.16564e-07
4.23726e-09
1.16523e-07
4.23212e-09
1.16476e-07
4.2386e-09
1.16421e-07
4.24195e-09
1.16357e-07
4.25674e-09
1.16282e-07
4.26536e-09
1.16195e-07
4.28179e-09
1.16096e-07
4.28482e-09
1.15983e-07
4.29235e-09
1.1586e-07
4.2839e-09
1.15725e-07
4.28095e-09
1.1558e-07
4.26249e-09
1.15425e-07
4.25457e-09
1.15263e-07
4.23408e-09
1.15092e-07
4.22899e-09
1.14914e-07
4.21225e-09
1.14725e-07
4.21385e-09
1.14528e-07
4.20371e-09
1.14318e-07
4.21587e-09
1.14095e-07
4.21509e-09
1.13853e-07
4.23618e-09
1.13595e-07
4.23616e-09
1.13316e-07
4.25316e-09
1.13021e-07
4.24132e-09
1.12708e-07
4.24761e-09
1.12383e-07
4.22402e-09
1.12044e-07
4.22348e-09
1.11697e-07
4.19369e-09
1.11337e-07
4.19453e-09
1.1097e-07
4.16583e-09
1.10589e-07
4.17534e-09
1.10197e-07
4.15314e-09
1.09786e-07
4.17001e-09
1.09362e-07
4.1454e-09
1.08918e-07
4.15977e-09
1.08464e-07
4.12522e-09
1.07993e-07
4.13501e-09
1.07517e-07
4.09053e-09
1.07028e-07
4.09849e-09
1.06535e-07
4.05053e-09
1.06027e-07
4.06641e-09
1.05515e-07
4.01903e-09
1.04985e-07
4.04095e-09
1.0445e-07
3.98886e-09
1.03898e-07
4.01308e-09
1.03344e-07
3.95065e-09
1.02775e-07
3.97489e-09
1.02208e-07
3.90394e-09
1.01626e-07
3.93498e-09
1.01047e-07
3.85951e-09
1.0045e-07
3.90002e-09
9.98565e-08
3.81762e-09
9.92461e-08
3.86513e-09
9.86409e-08
3.77167e-09
9.80199e-08
3.82684e-09
9.74063e-08
3.72396e-09
9.67761e-08
3.79063e-09
9.61537e-08
3.68009e-09
9.5514e-08
3.75871e-09
9.48831e-08
3.64122e-09
9.42356e-08
3.72957e-09
9.35965e-08
3.61401e-09
9.29415e-08
3.70486e-09
3.62862e-09
1.19383e-07
5.67962e-09
-1.1936e-07
1.19541e-07
6.7211e-09
1.19851e-07
7.75076e-09
1.20217e-07
8.54579e-09
1.20552e-07
8.95352e-09
1.20849e-07
9.00597e-09
1.21128e-07
8.82053e-09
1.21382e-07
8.48175e-09
1.2157e-07
8.0085e-09
1.21665e-07
7.41065e-09
1.2168e-07
6.75924e-09
1.21663e-07
6.18086e-09
1.21649e-07
5.77485e-09
1.21644e-07
5.52992e-09
1.21641e-07
5.38558e-09
1.21636e-07
5.27664e-09
1.2163e-07
5.18196e-09
1.21626e-07
5.09189e-09
1.21624e-07
5.01263e-09
1.21625e-07
4.93702e-09
1.21626e-07
4.87041e-09
1.21628e-07
4.80552e-09
1.21627e-07
4.7498e-09
1.21627e-07
4.69421e-09
1.21625e-07
4.64514e-09
1.21623e-07
4.5928e-09
1.2162e-07
4.5464e-09
1.21617e-07
4.4965e-09
1.21612e-07
4.45368e-09
1.21608e-07
4.40787e-09
1.21603e-07
4.37149e-09
1.21597e-07
4.33359e-09
1.2159e-07
4.30707e-09
1.21584e-07
4.27896e-09
1.21577e-07
4.26386e-09
1.21571e-07
4.2475e-09
1.21563e-07
4.24519e-09
1.21555e-07
4.24017e-09
1.21544e-07
4.2494e-09
1.21531e-07
4.25463e-09
1.21514e-07
4.27437e-09
1.21492e-07
4.28699e-09
1.21463e-07
4.31059e-09
1.21429e-07
4.31926e-09
1.21386e-07
4.33498e-09
1.21338e-07
4.33217e-09
1.21282e-07
4.33693e-09
1.21221e-07
4.32302e-09
1.21154e-07
4.32173e-09
1.21084e-07
4.3046e-09
1.21007e-07
4.30539e-09
1.20928e-07
4.29137e-09
1.20843e-07
4.29894e-09
1.20755e-07
4.29213e-09
1.20658e-07
4.31239e-09
1.20555e-07
4.31823e-09
1.20439e-07
4.35218e-09
1.20312e-07
4.36349e-09
1.20167e-07
4.39729e-09
1.2001e-07
4.39828e-09
1.19837e-07
4.42085e-09
1.19654e-07
4.40751e-09
1.19457e-07
4.42023e-09
1.19253e-07
4.39717e-09
1.19039e-07
4.40879e-09
1.1882e-07
4.3852e-09
1.18589e-07
4.40661e-09
1.18349e-07
4.39273e-09
1.18092e-07
4.42668e-09
1.17823e-07
4.41486e-09
1.17533e-07
4.44973e-09
1.1723e-07
4.42826e-09
1.16908e-07
4.45679e-09
1.16578e-07
4.42098e-09
1.16233e-07
4.4435e-09
1.15882e-07
4.40071e-09
1.15518e-07
4.43096e-09
1.15147e-07
4.3904e-09
1.14757e-07
4.43074e-09
1.14357e-07
4.38855e-09
1.13937e-07
4.43338e-09
1.13508e-07
4.37917e-09
1.13062e-07
4.42097e-09
1.12612e-07
4.35359e-09
1.12147e-07
4.4e-09
1.11679e-07
4.32749e-09
1.11194e-07
4.38592e-09
1.10703e-07
4.30834e-09
1.10193e-07
4.37513e-09
1.0968e-07
4.28455e-09
1.0915e-07
4.35674e-09
1.0862e-07
4.25404e-09
1.08073e-07
4.33715e-09
1.07526e-07
4.22757e-09
1.06961e-07
4.32344e-09
1.06395e-07
4.20743e-09
1.05813e-07
4.31115e-09
1.0523e-07
4.19743e-09
1.04633e-07
4.3015e-09
4.23044e-09
1.2426e-07
5.66341e-09
-1.24243e-07
1.244e-07
6.5812e-09
1.2468e-07
7.47031e-09
1.25032e-07
8.19364e-09
1.25374e-07
8.61176e-09
1.25673e-07
8.70658e-09
1.2594e-07
8.55354e-09
1.26181e-07
8.24139e-09
1.26369e-07
7.81991e-09
1.2648e-07
7.30033e-09
1.26512e-07
6.72652e-09
1.26505e-07
6.1878e-09
1.26494e-07
5.78609e-09
1.26492e-07
5.53209e-09
1.26494e-07
5.38365e-09
1.26495e-07
5.27549e-09
1.26494e-07
5.18291e-09
1.26494e-07
5.09183e-09
1.26496e-07
5.01101e-09
1.265e-07
4.93283e-09
1.26505e-07
4.86525e-09
1.26511e-07
4.79933e-09
1.26517e-07
4.74437e-09
1.26522e-07
4.68885e-09
1.26526e-07
4.64095e-09
1.26531e-07
4.58858e-09
1.26534e-07
4.54326e-09
1.26537e-07
4.49317e-09
1.26539e-07
4.45145e-09
1.26542e-07
4.4055e-09
1.26543e-07
4.37039e-09
1.26544e-07
4.3322e-09
1.26544e-07
4.3067e-09
1.26546e-07
4.27784e-09
1.26546e-07
4.26341e-09
1.26548e-07
4.24595e-09
1.26549e-07
4.24422e-09
1.26551e-07
4.2381e-09
1.26552e-07
4.24839e-09
1.26553e-07
4.25324e-09
1.26552e-07
4.27514e-09
1.26551e-07
4.2885e-09
1.26546e-07
4.31564e-09
1.26539e-07
4.32626e-09
1.26527e-07
4.34649e-09
1.26513e-07
4.34593e-09
1.26495e-07
4.3552e-09
1.26475e-07
4.34305e-09
1.26451e-07
4.34571e-09
1.26426e-07
4.32956e-09
1.26398e-07
4.33376e-09
1.26369e-07
4.32008e-09
1.26337e-07
4.33076e-09
1.26305e-07
4.32412e-09
1.26269e-07
4.34827e-09
1.26232e-07
4.35602e-09
1.26187e-07
4.3971e-09
1.26136e-07
4.41412e-09
1.26074e-07
4.45889e-09
1.26005e-07
4.46795e-09
1.25923e-07
4.50223e-09
1.25835e-07
4.49586e-09
1.25737e-07
4.51855e-09
1.25634e-07
4.50003e-09
1.25523e-07
4.51943e-09
1.2541e-07
4.49828e-09
1.2529e-07
4.52716e-09
1.25165e-07
4.51768e-09
1.25028e-07
4.56356e-09
1.24882e-07
4.56109e-09
1.24719e-07
4.61255e-09
1.24544e-07
4.60293e-09
1.24352e-07
4.64839e-09
1.24152e-07
4.62183e-09
1.23938e-07
4.6574e-09
1.23719e-07
4.61977e-09
1.23488e-07
4.66129e-09
1.23252e-07
4.62663e-09
1.23001e-07
4.68204e-09
1.22739e-07
4.65046e-09
1.22457e-07
4.71482e-09
1.22164e-07
4.67254e-09
1.21853e-07
4.73211e-09
1.21534e-07
4.67225e-09
1.21202e-07
4.73227e-09
1.20864e-07
4.6655e-09
1.20511e-07
4.73932e-09
1.20148e-07
4.67132e-09
1.19766e-07
4.7569e-09
1.19374e-07
4.67652e-09
1.18966e-07
4.76493e-09
1.1855e-07
4.66947e-09
1.18121e-07
4.76602e-09
1.17684e-07
4.66517e-09
1.17232e-07
4.77562e-09
1.16768e-07
4.67126e-09
1.16291e-07
4.7877e-09
1.15802e-07
4.68629e-09
1.15305e-07
4.79891e-09
4.74354e-09
1.29305e-07
5.66324e-09
-1.29304e-07
1.29438e-07
6.44741e-09
1.29696e-07
7.21284e-09
1.30029e-07
7.86083e-09
1.30368e-07
8.27289e-09
1.3067e-07
8.40392e-09
1.30931e-07
8.29279e-09
1.31159e-07
8.0128e-09
1.31345e-07
7.63477e-09
1.31465e-07
7.17965e-09
1.31515e-07
6.67671e-09
1.3152e-07
6.18316e-09
1.31513e-07
5.79248e-09
1.31514e-07
5.53194e-09
1.31519e-07
5.37781e-09
1.31526e-07
5.26911e-09
1.3153e-07
5.17906e-09
1.31533e-07
5.08806e-09
1.31538e-07
5.00652e-09
1.31545e-07
4.92613e-09
1.31552e-07
4.85734e-09
1.31562e-07
4.78986e-09
1.31571e-07
4.73515e-09
1.31581e-07
4.67947e-09
1.31589e-07
4.63266e-09
1.31597e-07
4.58032e-09
1.31604e-07
4.53617e-09
1.31611e-07
4.4861e-09
1.31617e-07
4.4456e-09
1.31623e-07
4.39972e-09
1.31627e-07
4.36596e-09
1.31632e-07
4.32771e-09
1.31635e-07
4.3033e-09
1.31639e-07
4.27394e-09
1.31642e-07
4.26027e-09
1.31646e-07
4.24192e-09
1.3165e-07
4.24067e-09
1.31655e-07
4.23335e-09
1.31659e-07
4.24409e-09
1.31664e-07
4.24783e-09
1.31669e-07
4.27051e-09
1.31674e-07
4.28313e-09
1.31678e-07
4.31176e-09
1.31682e-07
4.32246e-09
1.31683e-07
4.34501e-09
1.31684e-07
4.34501e-09
1.31683e-07
4.35695e-09
1.3168e-07
4.34532e-09
1.31676e-07
4.35047e-09
1.31671e-07
4.33444e-09
1.31664e-07
4.34081e-09
1.31657e-07
4.32676e-09
1.31648e-07
4.33921e-09
1.31641e-07
4.33169e-09
1.31632e-07
4.3575e-09
1.31623e-07
4.36479e-09
1.31611e-07
4.40906e-09
1.31597e-07
4.42793e-09
1.31577e-07
4.47867e-09
1.31554e-07
4.49174e-09
1.31523e-07
4.53308e-09
1.31488e-07
4.53057e-09
1.31447e-07
4.55961e-09
1.31403e-07
4.54373e-09
1.31355e-07
4.56803e-09
1.31305e-07
4.54765e-09
1.31252e-07
4.58025e-09
1.31198e-07
4.57212e-09
1.31137e-07
4.62455e-09
1.31071e-07
4.62737e-09
1.30994e-07
4.68955e-09
1.30908e-07
4.68853e-09
1.3081e-07
4.74636e-09
1.30704e-07
4.72777e-09
1.30588e-07
4.77299e-09
1.30468e-07
4.73983e-09
1.30341e-07
4.78838e-09
1.3021e-07
4.75781e-09
1.30069e-07
4.82263e-09
1.2992e-07
4.79971e-09
1.29756e-07
4.87867e-09
1.2958e-07
4.84887e-09
1.29389e-07
4.92323e-09
1.29188e-07
4.87311e-09
1.28977e-07
4.94301e-09
1.2876e-07
4.88308e-09
1.28532e-07
4.96681e-09
1.28294e-07
4.90995e-09
1.2804e-07
5.01023e-09
1.27772e-07
4.9447e-09
1.27491e-07
5.04626e-09
1.27197e-07
4.96345e-09
1.26895e-07
5.06829e-09
1.26579e-07
4.98108e-09
1.26253e-07
5.10096e-09
1.25909e-07
5.01546e-09
1.25556e-07
5.14086e-09
1.25182e-07
5.06006e-09
1.24805e-07
5.17572e-09
5.14311e-09
1.34538e-07
5.65426e-09
-1.34529e-07
1.34674e-07
6.31106e-09
1.34912e-07
6.97519e-09
1.35224e-07
7.54852e-09
1.35553e-07
7.94433e-09
1.35856e-07
8.10049e-09
1.36115e-07
8.03387e-09
1.36335e-07
7.79267e-09
1.36515e-07
7.45452e-09
1.36642e-07
7.0527e-09
1.36707e-07
6.61224e-09
1.36724e-07
6.16572e-09
1.36724e-07
5.79281e-09
1.36727e-07
5.52928e-09
1.36735e-07
5.36889e-09
1.36746e-07
5.2584e-09
1.36755e-07
5.17071e-09
1.36762e-07
5.08075e-09
1.36769e-07
4.9994e-09
1.36778e-07
4.91751e-09
1.36787e-07
4.84761e-09
1.36799e-07
4.77838e-09
1.36811e-07
4.72339e-09
1.36823e-07
4.66742e-09