/*--------------------------------*- C++ -*----------------------------------*\
| =========                 |                                                 |
| \\      /  F ield         | OpenFOAM: The Open Source CFD Toolbox           |
|  \\    /   O peration     | Version:  5.x                                   |
|   \\  /    A nd           | Web:      www.OpenFOAM.org                      |
|    \\/     M anipulation  |                                                 |
\*---------------------------------------------------------------------------*/
FoamFile
{
    version     2.0;
    format      ascii;
    class       volVectorField;
    location    "0.5";
    object      U;
}
// * * * * * * * * * * * * * * * * * * * * * * * * * * * * * * * * * * * * * //

dimensions      [0 1 -1 0 0 0 0];

internalField   nonuniform List<vector> 
10800
(
(0.912895 0.0109092 0)
(0.818302 0.0143116 0)
(0.724554 0.0140426 0)
(0.630176 0.0129015 0)
(0.536457 0.0117415 0)
(0.446516 0.0101635 0)
(0.365975 0.00788312 0)
(0.30183 0.00474119 0)
(0.257746 0.00173474 0)
(0.229959 5.58901e-06 0)
(0.211938 -0.000527622 0)
(0.19965 -0.000564309 0)
(0.190878 -0.000452345 0)
(0.184079 -0.000288423 0)
(0.178211 -0.000122304 0)
(0.172721 8.39798e-06 0)
(0.167391 9.31765e-05 0)
(0.162182 0.000137907 0)
(0.157155 0.0001543 0)
(0.152374 0.000154044 0)
(0.147894 0.000145872 0)
(0.143722 0.00013521 0)
(0.139847 0.000124725 0)
(0.136231 0.000115226 0)
(0.13285 0.000106751 0)
(0.129668 9.92704e-05 0)
(0.12667 9.27579e-05 0)
(0.123827 8.69718e-05 0)
(0.121134 8.16109e-05 0)
(0.118567 7.64744e-05 0)
(0.11613 7.16528e-05 0)
(0.113798 6.72813e-05 0)
(0.111575 6.34311e-05 0)
(0.109437 5.9934e-05 0)
(0.107391 5.67498e-05 0)
(0.105414 5.37994e-05 0)
(0.103519 5.11134e-05 0)
(0.101682 4.85335e-05 0)
(0.0999223 4.60493e-05 0)
(0.098213 4.36033e-05 0)
(0.0965761 4.13793e-05 0)
(0.0949795 3.93754e-05 0)
(0.0934476 3.76191e-05 0)
(0.0919462 3.58618e-05 0)
(0.0905069 3.42243e-05 0)
(0.0890921 3.26374e-05 0)
(0.0877383 3.11464e-05 0)
(0.0864034 2.96293e-05 0)
(0.0851296 2.82756e-05 0)
(0.0838674 2.69708e-05 0)
(0.0826648 2.5842e-05 0)
(0.0814656 2.47279e-05 0)
(0.0803266 2.37271e-05 0)
(0.079185 2.2653e-05 0)
(0.0781066 2.1718e-05 0)
(0.0770183 2.07733e-05 0)
(0.0759945 2.00161e-05 0)
(0.0749515 1.92227e-05 0)
(0.0739765 1.85357e-05 0)
(0.0729755 1.77282e-05 0)
(0.0720493 1.70382e-05 0)
(0.0710889 1.6306e-05 0)
(0.0702087 1.57288e-05 0)
(0.0692839 1.50591e-05 0)
(0.0684468 1.45378e-05 0)
(0.0675548 1.38906e-05 0)
(0.06676 1.34016e-05 0)
(0.0658974 1.28545e-05 0)
(0.0651409 1.24758e-05 0)
(0.0643022 1.19714e-05 0)
(0.0635828 1.1594e-05 0)
(0.0627669 1.10866e-05 0)
(0.0620849 1.07717e-05 0)
(0.0612879 1.03298e-05 0)
(0.0606423 1.00133e-05 0)
(0.0598627 9.55141e-06 0)
(0.0592546 9.29341e-06 0)
(0.058488 8.90847e-06 0)
(0.057916 8.67168e-06 0)
(0.0571591 8.28837e-06 0)
(0.056624 8.10089e-06 0)
(0.0558723 7.7622e-06 0)
(0.0553748 7.57114e-06 0)
(0.0546254 7.23408e-06 0)
(0.0541682 7.06382e-06 0)
(0.0534167 6.75544e-06 0)
(0.0530019 6.6e-06 0)
(0.0522429 6.32881e-06 0)
(0.0518726 6.19439e-06 0)
(0.0510997 5.95258e-06 0)
(0.0507778 5.81064e-06 0)
(0.0499842 5.60779e-06 0)
(0.0497158 5.45119e-06 0)
(0.0488931 5.30292e-06 0)
(0.0486841 5.12817e-06 0)
(0.0478211 5.06741e-06 0)
(0.0476781 4.83864e-06 0)
(0.0467601 4.9226e-06 0)
(0.0466922 4.55127e-06 0)
(0.0456979 5.10682e-06 0)
(0.967783 0.0191255 0)
(0.960284 0.0266346 0)
(0.946839 0.0279291 0)
(0.925421 0.02744 0)
(0.895505 0.0268053 0)
(0.857975 0.0255841 0)
(0.815324 0.0232362 0)
(0.771141 0.0192746 0)
(0.729266 0.01438 0)
(0.691457 0.00999399 0)
(0.657223 0.00693875 0)
(0.6261 0.00498699 0)
(0.598011 0.00372806 0)
(0.572803 0.00294707 0)
(0.550111 0.00248176 0)
(0.529532 0.00219762 0)
(0.510743 0.00200346 0)
(0.493458 0.00184525 0)
(0.477511 0.00169649 0)
(0.462755 0.0015505 0)
(0.449109 0.00141104 0)
(0.43645 0.00128399 0)
(0.424694 0.00117266 0)
(0.413708 0.00107633 0)
(0.403426 0.000992354 0)
(0.393736 0.000918252 0)
(0.384605 0.00085266 0)
(0.375942 0.000794072 0)
(0.367742 0.000741231 0)
(0.359926 0.000692876 0)
(0.352503 0.000648804 0)
(0.345394 0.000608794 0)
(0.338619 0.00057285 0)
(0.332098 0.000539974 0)
(0.325864 0.000509871 0)
(0.319841 0.000481862 0)
(0.314074 0.000456072 0)
(0.308487 0.000431749 0)
(0.303139 0.000409041 0)
(0.297945 0.000387489 0)
(0.292973 0.000367777 0)
(0.288121 0.000349506 0)
(0.283473 0.000332907 0)
(0.278919 0.000316876 0)
(0.274559 0.000302007 0)
(0.27027 0.000287721 0)
(0.266171 0.000274463 0)
(0.262123 0.000261496 0)
(0.258261 0.000249724 0)
(0.254428 0.000238368 0)
(0.250779 0.000228155 0)
(0.247137 0.00021812 0)
(0.243683 0.000208988 0)
(0.240217 0.000199739 0)
(0.236946 0.000191501 0)
(0.23364 0.000183285 0)
(0.230534 0.000176177 0)
(0.227369 0.000168893 0)
(0.224417 0.000162443 0)
(0.221381 0.000155534 0)
(0.218577 0.000149541 0)
(0.215661 0.000143278 0)
(0.212995 0.000138027 0)
(0.210187 0.000132288 0)
(0.20765 0.000127548 0)
(0.204941 0.000122178 0)
(0.20253 0.000117895 0)
(0.199908 0.000113122 0)
(0.197615 0.000109448 0)
(0.195068 0.000105 0)
(0.192889 0.000101572 0)
(0.190411 9.73314e-05 0)
(0.188345 9.43495e-05 0)
(0.185925 9.04636e-05 0)
(0.18397 8.76802e-05 0)
(0.181601 8.39092e-05 0)
(0.179758 8.1542e-05 0)
(0.177428 7.81336e-05 0)
(0.175696 7.60106e-05 0)
(0.173395 7.27284e-05 0)
(0.171775 7.09475e-05 0)
(0.169491 6.78778e-05 0)
(0.167987 6.62482e-05 0)
(0.165711 6.32656e-05 0)
(0.164328 6.18807e-05 0)
(0.162045 5.90515e-05 0)
(0.16079 5.78879e-05 0)
(0.158485 5.52212e-05 0)
(0.157366 5.42874e-05 0)
(0.15502 5.17335e-05 0)
(0.15405 5.09508e-05 0)
(0.151643 4.8536e-05 0)
(0.150835 4.78917e-05 0)
(0.148342 4.56606e-05 0)
(0.147715 4.5153e-05 0)
(0.145103 4.32063e-05 0)
(0.144678 4.27347e-05 0)
(0.141907 4.12797e-05 0)
(0.14171 4.05544e-05 0)
(0.13873 4.12904e-05 0)
(0.971987 0.0180448 0)
(0.972671 0.0257166 0)
(0.975136 0.0285046 0)
(0.976363 0.0291275 0)
(0.974495 0.0293674 0)
(0.96876 0.0291413 0)
(0.959088 0.0277658 0)
(0.945888 0.0246781 0)
(0.930123 0.0203755 0)
(0.912843 0.0161395 0)
(0.894574 0.0129613 0)
(0.875703 0.0108549 0)
(0.856709 0.00942034 0)
(0.837918 0.00838616 0)
(0.819458 0.00759322 0)
(0.801306 0.00694476 0)
(0.783485 0.00638323 0)
(0.765959 0.00587309 0)
(0.748799 0.00539345 0)
(0.732016 0.00493731 0)
(0.715724 0.00450936 0)
(0.699927 0.00411801 0)
(0.684709 0.0037689 0)
(0.670029 0.00346109 0)
(0.655941 0.00319012 0)
(0.642369 0.0029503 0)
(0.629359 0.00273737 0)
(0.616818 0.00254639 0)
(0.604796 0.00237402 0)
(0.593193 0.00221712 0)
(0.582067 0.00207502 0)
(0.571302 0.00194613 0)
(0.560968 0.00182988 0)
(0.550938 0.00172357 0)
(0.541297 0.00162642 0)
(0.531912 0.00153612 0)
(0.522889 0.00145267 0)
(0.514087 0.00137402 0)
(0.505635 0.00130087 0)
(0.497377 0.00123206 0)
(0.489457 0.00116916 0)
(0.481693 0.00111062 0)
(0.474249 0.00105707 0)
(0.466926 0.00100589 0)
(0.459913 0.000958561 0)
(0.452987 0.000913244 0)
(0.446365 0.000871327 0)
(0.439797 0.000830742 0)
(0.43353 0.000793718 0)
(0.427281 0.000757986 0)
(0.421334 0.00072551 0)
(0.41537 0.000693594 0)
(0.409721 0.000664401 0)
(0.404024 0.000635241 0)
(0.398658 0.000609099 0)
(0.393209 0.000583136 0)
(0.388103 0.00056024 0)
(0.382875 0.000536926 0)
(0.378015 0.000516169 0)
(0.372992 0.00049447 0)
(0.368365 0.000475557 0)
(0.363528 0.00045587 0)
(0.359119 0.000439087 0)
(0.35445 0.000421022 0)
(0.350249 0.000405854 0)
(0.345734 0.000389074 0)
(0.341735 0.000375471 0)
(0.337357 0.000360339 0)
(0.33355 0.000348377 0)
(0.329292 0.000334253 0)
(0.325673 0.000323282 0)
(0.321524 0.000309999 0)
(0.318089 0.000300345 0)
(0.314032 0.000288011 0)
(0.310779 0.000279165 0)
(0.306802 0.000267412 0)
(0.303732 0.000259785 0)
(0.299816 0.000248924 0)
(0.296929 0.000242134 0)
(0.293059 0.000231757 0)
(0.290358 0.000225977 0)
(0.286515 0.000216135 0)
(0.284007 0.000210996 0)
(0.280173 0.000201477 0)
(0.277867 0.000197164 0)
(0.27402 0.000188039 0)
(0.271927 0.000184506 0)
(0.268041 0.000175749 0)
(0.266176 0.000172996 0)
(0.262222 0.000164467 0)
(0.260605 0.000162383 0)
(0.256549 0.000154109 0)
(0.255205 0.000152696 0)
(0.251006 0.00014473 0)
(0.249964 0.00014401 0)
(0.24557 0.000136511 0)
(0.244867 0.000136333 0)
(0.240217 0.000129736 0)
(0.239891 0.000129457 0)
(0.234919 0.000127883 0)
(0.976527 0.0169453 0)
(0.97681 0.0236341 0)
(0.980001 0.0270717 0)
(0.984313 0.028199 0)
(0.988205 0.0285789 0)
(0.990985 0.0285169 0)
(0.992343 0.0275286 0)
(0.991942 0.0251224 0)
(0.989556 0.0215882 0)
(0.985164 0.0178916 0)
(0.979068 0.0149789 0)
(0.971678 0.0130601 0)
(0.963536 0.0118274 0)
(0.954927 0.010955 0)
(0.946037 0.0102658 0)
(0.936807 0.00967819 0)
(0.92727 0.00915233 0)
(0.917321 0.00866071 0)
(0.907033 0.00818316 0)
(0.896352 0.00770983 0)
(0.885419 0.0072443 0)
(0.87421 0.00679624 0)
(0.862888 0.00637525 0)
(0.851415 0.00598368 0)
(0.839952 0.0056211 0)
(0.828435 0.00528482 0)
(0.817022 0.00497418 0)
(0.805622 0.00468568 0)
(0.794391 0.00441771 0)
(0.783209 0.00416723 0)
(0.772235 0.00393531 0)
(0.761322 0.00372039 0)
(0.750639 0.00352291 0)
(0.740014 0.00333917 0)
(0.729631 0.00316909 0)
(0.719296 0.00300896 0)
(0.709219 0.00285913 0)
(0.699188 0.00271581 0)
(0.689442 0.00258066 0)
(0.679747 0.00245165 0)
(0.670368 0.00233227 0)
(0.661033 0.00221979 0)
(0.652038 0.00211609 0)
(0.643074 0.00201679 0)
(0.634468 0.00192494 0)
(0.625867 0.00183689 0)
(0.617636 0.00175557 0)
(0.609376 0.00167693 0)
(0.601495 0.00160506 0)
(0.593542 0.00153548 0)
(0.585978 0.00147198 0)
(0.578299 0.00140926 0)
(0.571035 0.00135162 0)
(0.56362 0.0012939 0)
(0.556652 0.00124188 0)
(0.549493 0.00119004 0)
(0.542814 0.00114401 0)
(0.535897 0.00109714 0)
(0.529501 0.00105538 0)
(0.522814 0.001012 0)
(0.516693 0.000974191 0)
(0.510214 0.000934753 0)
(0.504352 0.000900968 0)
(0.49806 0.000864675 0)
(0.492446 0.000834016 0)
(0.486328 0.000800239 0)
(0.480959 0.000772688 0)
(0.474999 0.000741954 0)
(0.469869 0.000717465 0)
(0.464051 0.000688738 0)
(0.459161 0.000666415 0)
(0.453469 0.000639503 0)
(0.448813 0.000619742 0)
(0.443227 0.000594592 0)
(0.438808 0.000576594 0)
(0.433313 0.00055272 0)
(0.429131 0.000537056 0)
(0.423706 0.00051477 0)
(0.419767 0.000500865 0)
(0.414392 0.000479605 0)
(0.410701 0.000467692 0)
(0.405351 0.000447412 0)
(0.401919 0.000436941 0)
(0.396571 0.000417321 0)
(0.393411 0.000408558 0)
(0.388035 0.000389643 0)
(0.385165 0.000382532 0)
(0.379729 0.000364224 0)
(0.37717 0.000358762 0)
(0.371633 0.000340806 0)
(0.369413 0.000336867 0)
(0.363732 0.000319251 0)
(0.361886 0.000316873 0)
(0.356005 0.000299633 0)
(0.354575 0.000298874 0)
(0.348428 0.000282223 0)
(0.347461 0.000282871 0)
(0.340971 0.000267584 0)
(0.340514 0.000268403 0)
(0.333605 0.00026132 0)
(0.980669 0.0164663 0)
(0.980707 0.0221746 0)
(0.983323 0.0259261 0)
(0.987472 0.0274092 0)
(0.991889 0.0277567 0)
(0.995895 0.0275194 0)
(0.999324 0.0265391 0)
(1.00192 0.0244776 0)
(1.00344 0.0214645 0)
(1.00354 0.0181978 0)
(1.00232 0.0154958 0)
(1 0.0136796 0)
(0.997145 0.0125513 0)
(0.993966 0.0117928 0)
(0.990704 0.0112079 0)
(0.987231 0.0107112 0)
(0.983605 0.0102696 0)
(0.979613 0.00986036 0)
(0.975331 0.00946447 0)
(0.970581 0.00906881 0)
(0.965509 0.00867359 0)
(0.959967 0.00828516 0)
(0.954151 0.0079126 0)
(0.947913 0.007557 0)
(0.94147 0.00721883 0)
(0.934658 0.00689563 0)
(0.927716 0.00658896 0)
(0.920457 0.00629593 0)
(0.913136 0.00601729 0)
(0.905535 0.00575038 0)
(0.897922 0.00549867 0)
(0.890045 0.00526067 0)
(0.882196 0.00503882 0)
(0.87409 0.00482865 0)
(0.866039 0.00463186 0)
(0.857725 0.00444339 0)
(0.849494 0.00426476 0)
(0.840997 0.0040901 0)
(0.832624 0.0039223 0)
(0.823993 0.00375753 0)
(0.815541 0.00360157 0)
(0.80685 0.00345031 0)
(0.798403 0.00330787 0)
(0.789738 0.00316829 0)
(0.781386 0.00303762 0)
(0.772821 0.00291046 0)
(0.764623 0.00279251 0)
(0.756195 0.00267753 0)
(0.748172 0.00257248 0)
(0.739882 0.00247005 0)
(0.732027 0.00237673 0)
(0.723855 0.0022837 0)
(0.716156 0.00219799 0)
(0.708096 0.00211098 0)
(0.700562 0.00203199 0)
(0.692625 0.00195205 0)
(0.685277 0.0018806 0)
(0.677482 0.001807 0)
(0.67035 0.0017414 0)
(0.662716 0.00167289 0)
(0.655816 0.00161344 0)
(0.648336 0.00155097 0)
(0.641664 0.00149762 0)
(0.634323 0.00143993 0)
(0.627871 0.00139127 0)
(0.620653 0.00133714 0)
(0.614423 0.001293 0)
(0.607319 0.00124316 0)
(0.601319 0.00120345 0)
(0.594326 0.00115656 0)
(0.588569 0.00112033 0)
(0.581678 0.00107637 0)
(0.576166 0.00104419 0)
(0.569358 0.00100287 0)
(0.564098 0.000973573 0)
(0.557355 0.000934289 0)
(0.552352 0.000908571 0)
(0.545655 0.000871543 0)
(0.540922 0.000848669 0)
(0.534253 0.000813284 0)
(0.529803 0.000793599 0)
(0.523137 0.000759686 0)
(0.518985 0.000742476 0)
(0.512293 0.000709586 0)
(0.50846 0.000695173 0)
(0.501711 0.000663294 0)
(0.49822 0.000651636 0)
(0.491375 0.000620591 0)
(0.488257 0.000611706 0)
(0.481271 0.000581113 0)
(0.478561 0.000574874 0)
(0.471383 0.000544654 0)
(0.469125 0.000541141 0)
(0.46169 0.00051131 0)
(0.459937 0.000510622 0)
(0.452169 0.000481468 0)
(0.450978 0.000483278 0)
(0.44279 0.000456055 0)
(0.442216 0.000458361 0)
(0.433525 0.000442592 0)
(0.984215 0.0162887 0)
(0.984184 0.0211654 0)
(0.986351 0.0249406 0)
(0.990051 0.026694 0)
(0.994292 0.0270656 0)
(0.998269 0.0266722 0)
(1.00183 0.0256363 0)
(1.00474 0.0237914 0)
(1.00695 0.0211626 0)
(1.00809 0.0182302 0)
(1.00825 0.0156783 0)
(1.00749 0.0138872 0)
(1.00639 0.0127688 0)
(1.00508 0.0120422 0)
(1.00392 0.0115002 0)
(1.00272 0.0110442 0)
(1.00164 0.0106406 0)
(1.00035 0.0102705 0)
(0.999035 0.00991986 0)
(0.997379 0.009575 0)
(0.99562 0.00923442 0)
(0.99347 0.00890035 0)
(0.991218 0.00858067 0)
(0.988565 0.00827391 0)
(0.985833 0.00798073 0)
(0.982699 0.00769705 0)
(0.97952 0.00742569 0)
(0.975946 0.00716259 0)
(0.972364 0.0069105 0)
(0.968386 0.00666592 0)
(0.964428 0.00643447 0)
(0.960065 0.00621349 0)
(0.95575 0.00600756 0)
(0.951012 0.00581091 0)
(0.946341 0.00562753 0)
(0.941216 0.00545056 0)
(0.93617 0.00528341 0)
(0.930635 0.00511761 0)
(0.925197 0.00495777 0)
(0.919241 0.00479703 0)
(0.913417 0.00464302 0)
(0.907063 0.00448866 0)
(0.900905 0.00434032 0)
(0.894229 0.00418928 0)
(0.887834 0.00404515 0)
(0.880935 0.00390033 0)
(0.874406 0.00376457 0)
(0.86737 0.00362922 0)
(0.860776 0.00350553 0)
(0.853645 0.00338314 0)
(0.84701 0.00327262 0)
(0.839783 0.00316111 0)
(0.833101 0.00305935 0)
(0.825763 0.00295404 0)
(0.819026 0.00285861 0)
(0.811575 0.0027592 0)
(0.804807 0.00266993 0)
(0.797277 0.00257505 0)
(0.790538 0.00249028 0)
(0.782987 0.00239959 0)
(0.776341 0.00232134 0)
(0.768807 0.0022377 0)
(0.762282 0.00216711 0)
(0.754768 0.00208965 0)
(0.748365 0.00202524 0)
(0.740853 0.00195202 0)
(0.734574 0.00189296 0)
(0.727053 0.00182437 0)
(0.720913 0.00177021 0)
(0.713395 0.0017046 0)
(0.70743 0.00165454 0)
(0.69993 0.0015925 0)
(0.694166 0.00154784 0)
(0.686676 0.00148922 0)
(0.681127 0.00144853 0)
(0.67363 0.00139255 0)
(0.668304 0.00135657 0)
(0.660781 0.00130316 0)
(0.655702 0.00127087 0)
(0.648143 0.00121947 0)
(0.643336 0.00119152 0)
(0.635724 0.00114195 0)
(0.631216 0.00111759 0)
(0.623523 0.00106934 0)
(0.619339 0.00104891 0)
(0.611532 0.00100183 0)
(0.607704 0.000985294 0)
(0.599746 0.00093914 0)
(0.596314 0.000926598 0)
(0.588161 0.00088091 0)
(0.585169 0.000872273 0)
(0.576766 0.0008269 0)
(0.574266 0.000822282 0)
(0.565546 0.000777225 0)
(0.563597 0.000776763 0)
(0.554483 0.000732444 0)
(0.553152 0.00073566 0)
(0.543552 0.000693905 0)
(0.542899 0.000698002 0)
(0.532728 0.000670755 0)
(0.987111 0.0162112 0)
(0.987067 0.0204161 0)
(0.988912 0.0239743 0)
(0.992168 0.0258701 0)
(0.996149 0.0263187 0)
(0.999954 0.0258558 0)
(1.00343 0.0247848 0)
(1.00623 0.0230998 0)
(1.00846 0.0207949 0)
(1.00975 0.0181688 0)
(1.0103 0.015772 0)
(1.00997 0.0139996 0)
(1.00938 0.012863 0)
(1.00855 0.0121346 0)
(1.008 0.0116059 0)
(1.00742 0.0111627 0)
(1.00714 0.0107676 0)
(1.00671 0.0104038 0)
(1.00644 0.010064 0)
(1.0059 0.00973624 0)
(1.00547 0.00941943 0)
(1.0047 0.00911167 0)
(1.00404 0.00882028 0)
(1.00302 0.00854107 0)
(1.00214 0.00827559 0)
(1.00087 0.0080175 0)
(0.999757 0.00777136 0)
(0.998243 0.00753135 0)
(0.996912 0.0073024 0)
(0.995152 0.00707923 0)
(0.993595 0.00686966 0)
(0.991578 0.00666883 0)
(0.989789 0.00648382 0)
(0.987506 0.00630686 0)
(0.985469 0.00614491 0)
(0.98289 0.00598885 0)
(0.980565 0.00584495 0)
(0.977639 0.00570187 0)
(0.974972 0.00556688 0)
(0.971636 0.00542948 0)
(0.968572 0.00529945 0)
(0.964783 0.00516542 0)
(0.961307 0.00503609 0)
(0.957075 0.00489831 0)
(0.953229 0.00476516 0)
(0.948616 0.00462532 0)
(0.944483 0.00449308 0)
(0.93957 0.00435643 0)
(0.935227 0.00423188 0)
(0.930071 0.00410543 0)
(0.92556 0.00399309 0)
(0.920173 0.00387768 0)
(0.915492 0.00377515 0)
(0.90985 0.00366692 0)
(0.904967 0.00357141 0)
(0.899028 0.00346839 0)
(0.893923 0.00337711 0)
(0.887683 0.00327495 0)
(0.882398 0.00318389 0)
(0.875917 0.00308143 0)
(0.870538 0.00299364 0)
(0.863892 0.00289612 0)
(0.858492 0.00281539 0)
(0.85172 0.00272427 0)
(0.846325 0.00265097 0)
(0.839415 0.00256487 0)
(0.834015 0.00249774 0)
(0.826939 0.00241614 0)
(0.821535 0.00235335 0)
(0.814295 0.00227323 0)
(0.808933 0.00221344 0)
(0.801566 0.00213587 0)
(0.796303 0.00208169 0)
(0.788831 0.00200764 0)
(0.783704 0.0019583 0)
(0.77612 0.00188737 0)
(0.771137 0.00184372 0)
(0.763413 0.00177526 0)
(0.758595 0.00173555 0)
(0.750726 0.00166866 0)
(0.746113 0.00163381 0)
(0.738098 0.00156859 0)
(0.733738 0.00153821 0)
(0.72556 0.00147443 0)
(0.721483 0.00144906 0)
(0.713109 0.00138635 0)
(0.709349 0.0013658 0)
(0.700745 0.00130377 0)
(0.697351 0.00128821 0)
(0.688482 0.00122644 0)
(0.68551 0.00121598 0)
(0.676326 0.00115432 0)
(0.673831 0.0011491 0)
(0.664268 0.00108755 0)
(0.662314 0.0010877 0)
(0.6523 0.00102687 0)
(0.650959 0.00103179 0)
(0.640409 0.000974158 0)
(0.639744 0.000980325 0)
(0.628575 0.000939851 0)
(0.989361 0.0161507 0)
(0.989312 0.0198098 0)
(0.99092 0.0230375 0)
(0.993763 0.0249484 0)
(0.997465 0.0254861 0)
(1.00106 0.0250375 0)
(1.00445 0.0239675 0)
(1.00712 0.0224062 0)
(1.00931 0.0203748 0)
(1.01059 0.0180414 0)
(1.01131 0.0158207 0)
(1.01114 0.0140862 0)
(1.01078 0.0129296 0)
(1.01008 0.0121855 0)
(1.00971 0.0116567 0)
(1.00925 0.011216 0)
(1.0092 0.0108199 0)
(1.00896 0.0104512 0)
(1.00902 0.0101091 0)
(1.00877 0.00978287 0)
(1.00878 0.00947399 0)
(1.00842 0.00917631 0)
(1.00836 0.00889726 0)
(1.00789 0.00862944 0)
(1.00774 0.00837628 0)
(1.00717 0.00812869 0)
(1.00694 0.0078939 0)
(1.00627 0.00766387 0)
(1.00597 0.0074464 0)
(1.00519 0.00723354 0)
(1.00481 0.00703589 0)
(1.0039 0.00684555 0)
(1.00344 0.00667266 0)
(1.0024 0.00650666 0)
(1.00184 0.00635819 0)
(1.00065 0.00621528 0)
(0.999957 0.00608805 0)
(0.998569 0.00596198 0)
(0.9977 0.00584814 0)
(0.996049 0.00573199 0)
(0.994931 0.00562658 0)
(0.992947 0.00551554 0)
(0.991527 0.00541078 0)
(0.989173 0.00529359 0)
(0.987442 0.00518072 0)
(0.984733 0.0050557 0)
(0.982734 0.00493766 0)
(0.979717 0.00480988 0)
(0.977507 0.00469466 0)
(0.974231 0.00457333 0)
(0.97185 0.00446822 0)
(0.968331 0.0043572 0)
(0.965784 0.00426277 0)
(0.961997 0.00416072 0)
(0.959244 0.00407596 0)
(0.955123 0.00398117 0)
(0.952102 0.00390151 0)
(0.947588 0.00380597 0)
(0.94428 0.00372295 0)
(0.939386 0.0036217 0)
(0.935852 0.00353643 0)
(0.930652 0.00343505 0)
(0.926986 0.0033533 0)
(0.921547 0.00325619 0)
(0.917804 0.00318187 0)
(0.912134 0.00309051 0)
(0.908307 0.00302398 0)
(0.90236 0.00293798 0)
(0.898415 0.00287583 0)
(0.892156 0.00278953 0)
(0.888109 0.00272806 0)
(0.881563 0.00264125 0)
(0.877487 0.0025834 0)
(0.870707 0.00249846 0)
(0.866671 0.00244531 0)
(0.859673 0.00236367 0)
(0.855694 0.00231737 0)
(0.848445 0.00223827 0)
(0.844523 0.00219596 0)
(0.836999 0.00211726 0)
(0.83317 0.0020792 0)
(0.825382 0.00200082 0)
(0.821715 0.00196723 0)
(0.813671 0.00188997 0)
(0.810212 0.00186231 0)
(0.801883 0.00178597 0)
(0.798657 0.00176382 0)
(0.790006 0.00168746 0)
(0.787062 0.00167068 0)
(0.778065 0.00159387 0)
(0.77547 0.00158298 0)
(0.766095 0.00150595 0)
(0.763905 0.00150129 0)
(0.754094 0.00142403 0)
(0.75237 0.00142555 0)
(0.742063 0.00134883 0)
(0.740876 0.00135582 0)
(0.730006 0.00128294 0)
(0.729417 0.00129135 0)
(0.717914 0.0012378 0)
(0.991063 0.0160757 0)
(0.990993 0.019278 0)
(0.992416 0.0221499 0)
(0.99488 0.0239849 0)
(0.998303 0.0245976 0)
(1.00166 0.024226 0)
(1.00497 0.0232048 0)
(1.00751 0.0217523 0)
(1.00968 0.0199454 0)
(1.01092 0.0178763 0)
(1.01176 0.0158365 0)
(1.0117 0.0141552 0)
(1.01152 0.0129813 0)
(1.01087 0.0122139 0)
(1.01061 0.0116783 0)
(1.01015 0.0112374 0)
(1.01021 0.0108415 0)
(1.00997 0.0104689 0)
(1.01018 0.0101233 0)
(1.00996 0.0097945 0)
(1.01016 0.00948799 0)
(1.00989 0.00919395 0)
(1.01006 0.00892082 0)
(1.00973 0.00865725 0)
(1.00988 0.00840941 0)
(1.0095 0.00816491 0)
(1.00964 0.0079343 0)
(1.00921 0.00770671 0)
(1.00935 0.00749357 0)
(1.00887 0.00728347 0)
(1.009 0.00709052 0)
(1.00847 0.00690308 0)
(1.00859 0.00673492 0)
(1.008 0.00657183 0)
(1.00811 0.00642875 0)
(1.00746 0.00629008 0)
(1.00755 0.00617056 0)
(1.00681 0.00605188 0)
(1.00686 0.00594988 0)
(1.00598 0.00584561 0)
(1.00592 0.00575651 0)
(1.00486 0.00566092 0)
(1.00465 0.00557502 0)
(1.00334 0.00547405 0)
(1.00294 0.00537906 0)
(1.00138 0.0052675 0)
(1.00082 0.00516378 0)
(0.99903 0.00504542 0)
(0.998336 0.00494089 0)
(0.996342 0.00482588 0)
(0.995547 0.00472944 0)
(0.993367 0.00462367 0)
(0.992479 0.00453834 0)
(0.990098 0.00444323 0)
(0.98909 0.00437089 0)
(0.986449 0.00428692 0)
(0.985248 0.00422355 0)
(0.982258 0.00414081 0)
(0.980799 0.00407377 0)
(0.977419 0.00398216 0)
(0.975717 0.00390813 0)
(0.971987 0.00381076 0)
(0.970116 0.00373531 0)
(0.966105 0.0036382 0)
(0.964136 0.00356838 0)
(0.959874 0.0034768 0)
(0.957816 0.00341664 0)
(0.953259 0.0033327 0)
(0.951059 0.00327897 0)
(0.946131 0.00319484 0)
(0.943754 0.00314041 0)
(0.938438 0.00305236 0)
(0.935929 0.00299797 0)
(0.93028 0.00290807 0)
(0.927729 0.00285637 0)
(0.921793 0.00276887 0)
(0.919241 0.00272504 0)
(0.912992 0.00264093 0)
(0.910418 0.00260201 0)
(0.903801 0.00251756 0)
(0.901206 0.00248178 0)
(0.894217 0.00239513 0)
(0.89167 0.00236228 0)
(0.884344 0.00227532 0)
(0.881916 0.00224875 0)
(0.874243 0.00216275 0)
(0.871952 0.00214252 0)
(0.863882 0.00205584 0)
(0.861752 0.00204072 0)
(0.853264 0.00195221 0)
(0.851365 0.00194287 0)
(0.842454 0.00185352 0)
(0.840847 0.00185103 0)
(0.831468 0.00176122 0)
(0.830195 0.00176523 0)
(0.820298 0.00167564 0)
(0.819419 0.00168504 0)
(0.808965 0.00159989 0)
(0.808536 0.00161045 0)
(0.797479 0.00154645 0)
(0.992368 0.0159851 0)
(0.992252 0.0187904 0)
(0.993524 0.0213175 0)
(0.99564 0.0230236 0)
(0.998796 0.0236873 0)
(1.00189 0.0234264 0)
(1.0051 0.0224986 0)
(1.00752 0.021151 0)
(1.00968 0.0195204 0)
(1.01086 0.0176751 0)
(1.01181 0.0158102 0)
(1.01182 0.0141991 0)
(1.01182 0.0130213 0)
(1.01121 0.0122324 0)
(1.01106 0.0116886 0)
(1.01058 0.0112475 0)
(1.01071 0.0108538 0)
(1.01046 0.0104792 0)
(1.01075 0.0101309 0)
(1.01053 0.00979749 0)
(1.01084 0.00949005 0)
(1.01057 0.00919595 0)
(1.01088 0.00892584 0)
(1.01056 0.00866356 0)
(1.01087 0.00841858 0)
(1.01052 0.00817464 0)
(1.01084 0.00794596 0)
(1.01045 0.00771803 0)
(1.0108 0.00750667 0)
(1.01038 0.00729643 0)
(1.01073 0.00710552 0)
(1.01028 0.00691791 0)
(1.01065 0.00675159 0)
(1.01016 0.00658786 0)
(1.01056 0.00644647 0)
(1.01003 0.00630742 0)
(1.01046 0.00619055 0)
(1.00989 0.00607305 0)
(1.01033 0.00597621 0)
(1.0097 0.00587618 0)
(1.01013 0.00579568 0)
(1.0094 0.00570748 0)
(1.00978 0.00563302 0)
(1.00891 0.0055412 0)
(1.00922 0.00545815 0)
(1.00819 0.00535479 0)
(1.00843 0.00526127 0)
(1.00724 0.00514879 0)
(1.00743 0.0050522 0)
(1.00611 0.00494091 0)
(1.00627 0.00485089 0)
(1.00483 0.00474777 0)
(1.00497 0.00466878 0)
(1.0034 0.00457719 0)
(1.00352 0.00451372 0)
(1.00178 0.00443704 0)
(1.00182 0.00438732 0)
(0.999838 0.00431601 0)
(0.999717 0.00426519 0)
(0.997426 0.00418478 0)
(0.997125 0.00412454 0)
(0.994527 0.00403422 0)
(0.994093 0.00396817 0)
(0.991237 0.00387383 0)
(0.99073 0.00381056 0)
(0.987655 0.0037203 0)
(0.987105 0.00366773 0)
(0.983788 0.00358784 0)
(0.983145 0.00354535 0)
(0.979497 0.00346776 0)
(0.97869 0.00342558 0)
(0.974651 0.00334245 0)
(0.973679 0.00329716 0)
(0.969274 0.00320773 0)
(0.968217 0.00316149 0)
(0.963508 0.003072 0)
(0.962428 0.00303367 0)
(0.957414 0.00294876 0)
(0.956291 0.00291748 0)
(0.950897 0.00283319 0)
(0.949686 0.00280495 0)
(0.943869 0.0027161 0)
(0.942608 0.00268807 0)
(0.936408 0.00259602 0)
(0.935183 0.00257328 0)
(0.928627 0.00248211 0)
(0.92746 0.00246693 0)
(0.920491 0.00237541 0)
(0.919367 0.00236516 0)
(0.911946 0.00227013 0)
(0.910916 0.00226434 0)
(0.903059 0.00216728 0)
(0.902191 0.0021683 0)
(0.893882 0.00207103 0)
(0.893193 0.00207859 0)
(0.884383 0.00198139 0)
(0.883905 0.00199332 0)
(0.87458 0.00190094 0)
(0.874361 0.00191318 0)
(0.86451 0.00184358 0)
(0.993411 0.0158821 0)
(0.993226 0.0183215 0)
(0.994369 0.0205225 0)
(0.996176 0.0220755 0)
(0.999085 0.0227656 0)
(1.0019 0.0226208 0)
(1.005 0.0218135 0)
(1.0073 0.0205724 0)
(1.00945 0.0190855 0)
(1.01057 0.0174312 0)
(1.01161 0.0157392 0)
(1.01167 0.0142191 0)
(1.01184 0.0130576 0)
(1.01127 0.0122536 0)
(1.01122 0.0117006 0)
(1.01072 0.0112575 0)
(1.01092 0.0108657 0)
(1.01063 0.0104894 0)
(1.011 0.0101391 0)
(1.01075 0.00980028 0)
(1.01116 0.00948972 0)
(1.01087 0.00919285 0)
(1.01127 0.00892399 0)
(1.01094 0.00866163 0)
(1.01136 0.0084186 0)
(1.011 0.00817445 0)
(1.01143 0.00794734 0)
(1.01104 0.00771845 0)
(1.0115 0.00750843 0)
(1.01107 0.00729754 0)
(1.01154 0.00710829 0)
(1.01107 0.00691987 0)
(1.01157 0.00675487 0)
(1.01107 0.00658967 0)
(1.0116 0.00644905 0)
(1.01107 0.00630816 0)
(1.01164 0.0061921 0)
(1.01107 0.00607314 0)
(1.01168 0.00597823 0)
(1.01108 0.00587834 0)
(1.01172 0.00580177 0)
(1.01105 0.00571573 0)
(1.0117 0.00564731 0)
(1.01096 0.0055593 0)
(1.0116 0.00548322 0)
(1.01076 0.00538357 0)
(1.0114 0.00529637 0)
(1.01046 0.0051864 0)
(1.01109 0.00509484 0)
(1.01006 0.00498473 0)
(1.01071 0.00489871 0)
(1.00959 0.00479584 0)
(1.01026 0.00472038 0)
(1.00907 0.00462905 0)
(1.00977 0.00457032 0)
(1.00848 0.00449633 0)
(1.00918 0.00445519 0)
(1.00774 0.00439076 0)
(1.00839 0.0043521 0)
(1.00674 0.00428016 0)
(1.00729 0.00423162 0)
(1.00541 0.0041475 0)
(1.0059 0.00409026 0)
(1.00382 0.00399885 0)
(1.00428 0.00394156 0)
(1.00203 0.00385208 0)
(1.00249 0.00380535 0)
(1.00008 0.00372824 0)
(1.00052 0.00369537 0)
(0.997865 0.00362435 0)
(0.998207 0.00359469 0)
(0.995235 0.00351883 0)
(0.995442 0.00348472 0)
(0.992142 0.0033991 0)
(0.992262 0.00336005 0)
(0.988691 0.00327094 0)
(0.988792 0.00323849 0)
(0.984974 0.00315463 0)
(0.985052 0.00313174 0)
(0.980919 0.00305111 0)
(0.980903 0.00303304 0)
(0.976378 0.00294719 0)
(0.976257 0.00292684 0)
(0.971358 0.00283419 0)
(0.97121 0.00281648 0)
(0.965996 0.00272385 0)
(0.965861 0.0027148 0)
(0.960289 0.0026235 0)
(0.960119 0.00262026 0)
(0.954121 0.00252459 0)
(0.953922 0.00252373 0)
(0.947521 0.00242417 0)
(0.947362 0.0024289 0)
(0.940578 0.00232978 0)
(0.940462 0.00234121 0)
(0.933245 0.00224285 0)
(0.933162 0.00225714 0)
(0.925502 0.00216364 0)
(0.925486 0.00217647 0)
(0.917414 0.00210723 0)
(0.994286 0.0157874 0)
(0.994016 0.0178697 0)
(0.995049 0.0197552 0)
(0.99659 0.0211384 0)
(0.999274 0.0218196 0)
(1.00183 0.0217692 0)
(1.0048 0.0210907 0)
(1.00696 0.0199652 0)
(1.0091 0.0186093 0)
(1.01017 0.0171228 0)
(1.01127 0.0155994 0)
(1.01137 0.0141843 0)
(1.01168 0.0130562 0)
(1.01116 0.0122449 0)
(1.01121 0.0116831 0)
(1.0107 0.0112376 0)
(1.01095 0.0108492 0)
(1.01064 0.0104741 0)
(1.01107 0.0101254 0)
(1.01079 0.00978443 0)
(1.01126 0.0094723 0)
(1.01095 0.00917286 0)
(1.01143 0.00890558 0)
(1.01109 0.00864398 0)
(1.01158 0.00840384 0)
(1.0112 0.00816049 0)
(1.01171 0.00793617 0)
(1.0113 0.00770759 0)
(1.01183 0.00749991 0)
(1.01138 0.00728935 0)
(1.01193 0.00710263 0)
(1.01144 0.00691411 0)
(1.012 0.00675097 0)
(1.01148 0.00658492 0)
(1.01207 0.00644547 0)
(1.01151 0.00630308 0)
(1.01215 0.00618778 0)
(1.01156 0.00606705 0)
(1.01223 0.00597308 0)
(1.01161 0.00587194 0)
(1.01233 0.00579714 0)
(1.01167 0.00571073 0)
(1.01242 0.00564527 0)
(1.01172 0.0055581 0)
(1.0125 0.00548592 0)
(1.01173 0.00538749 0)
(1.01252 0.00530419 0)
(1.01168 0.00519502 0)
(1.0125 0.00510674 0)
(1.0116 0.00499668 0)
(1.01244 0.00491328 0)
(1.01147 0.00480975 0)
(1.01236 0.00473634 0)
(1.01132 0.00464383 0)
(1.01226 0.00458723 0)
(1.01117 0.00451305 0)
(1.01214 0.00447624 0)
(1.01096 0.00441458 0)
(1.01195 0.00438332 0)
(1.01064 0.00431619 0)
(1.0116 0.0042756 0)
(1.01015 0.00419546 0)
(1.01109 0.00414464 0)
(1.00949 0.00405528 0)
(1.01044 0.00400238 0)
(1.00872 0.00391287 0)
(1.0097 0.00386946 0)
(1.00788 0.00379319 0)
(1.00889 0.00376644 0)
(1.00692 0.00369981 0)
(1.00789 0.00367961 0)
(1.00571 0.00361027 0)
(1.0066 0.00358597 0)
(1.00418 0.0035052 0)
(1.005 0.0034728 0)
(1.00237 0.00338516 0)
(1.00319 0.00335715 0)
(1.00038 0.00327459 0)
(1.00121 0.00325803 0)
(0.998183 0.00318184 0)
(0.998948 0.00317313 0)
(0.995625 0.00309314 0)
(0.996277 0.003081 0)
(0.992644 0.00299128 0)
(0.993233 0.00297815 0)
(0.989358 0.00288658 0)
(0.989937 0.00288237 0)
(0.985808 0.0027945 0)
(0.986323 0.00279823 0)
(0.981854 0.00270687 0)
(0.982262 0.00271114 0)
(0.977461 0.00261388 0)
(0.977815 0.00262115 0)
(0.972735 0.00252485 0)
(0.973043 0.00253919 0)
(0.967639 0.00244551 0)
(0.967853 0.0024616 0)
(0.962099 0.0023728 0)
(0.962228 0.0023847 0)
(0.956191 0.00232114 0)
(0.995046 0.0158932 0)
(0.99469 0.0176158 0)
(0.995628 0.0191762 0)
(0.996952 0.0203628 0)
(0.999429 0.0209881 0)
(1.00174 0.0209917 0)
(1.00456 0.0204301 0)
(1.0066 0.0194223 0)
(1.00872 0.0181829 0)
(1.00975 0.0168326 0)
(1.01089 0.0154554 0)
(1.01103 0.0141418 0)
(1.01144 0.0130529 0)
(1.01099 0.0122365 0)
(1.01111 0.0116625 0)
(1.01061 0.0112108 0)
(1.0109 0.0108236 0)
(1.01058 0.0104492 0)
(1.01103 0.0101024 0)
(1.01075 0.00976052 0)
(1.01125 0.00944725 0)
(1.01095 0.00914451 0)
(1.01145 0.00887754 0)
(1.01111 0.00861649 0)
(1.01163 0.00837922 0)
(1.01126 0.00813698 0)
(1.0118 0.00791579 0)
(1.01139 0.00768837 0)
(1.01195 0.0074834 0)
(1.0115 0.00727369 0)
(1.01207 0.0070898 0)
(1.01159 0.00690186 0)