/*--------------------------------*- C++ -*----------------------------------*\
| =========                 |                                                 |
| \\      /  F ield         | OpenFOAM: The Open Source CFD Toolbox           |
|  \\    /   O peration     | Version:  5.x                                   |
|   \\  /    A nd           | Web:      www.OpenFOAM.org                      |
|    \\/     M anipulation  |                                                 |
\*---------------------------------------------------------------------------*/
FoamFile
{
    version     2.0;
    format      ascii;
    class       volScalarField;
    location    "0.3";
    object      p;
}
// * * * * * * * * * * * * * * * * * * * * * * * * * * * * * * * * * * * * * //

dimensions      [0 2 -2 0 0 0 0];

internalField   nonuniform List<scalar> 
2475
(
0.0317625
0.0279828
0.022122
0.0164551
0.0107976
0.00487159
-0.00076279
-0.00466137
-0.00588607
-0.00505605
-0.0035063
-0.00210743
-0.00116694
-0.000666169
-0.000453703
-0.000383217
-0.000359563
-0.000339997
-0.000315206
-0.000292366
-0.00027365
-0.000257778
-0.000243229
-0.000244349
-0.000253984
-0.000269585
-0.000281667
-0.000292345
-0.000296423
-0.000294652
-0.000288141
-0.000265972
-0.000242842
-0.000166793
-0.000122605
0.0285367
0.0266064
0.0216849
0.0162116
0.0106709
0.00496623
-0.000443834
-0.00427505
-0.00559973
-0.00487963
-0.00339289
-0.0020299
-0.00111306
-0.000627128
-0.000423557
-0.000358504
-0.000338666
-0.000321938
-0.000299496
-0.00027854
-0.000261528
-0.000246982
-0.000233614
-0.000235661
-0.000246269
-0.000262564
-0.000275442
-0.000286611
-0.000291362
-0.000289904
-0.000283996
-0.000261982
-0.00023944
-0.00016337
-0.000119697
0.0259837
0.0252686
0.0213108
0.0160994
0.0106628
0.00521968
0.000169655
-0.00352758
-0.00504508
-0.00458773
-0.0032521
-0.00195756
-0.00106503
-0.000587133
-0.00038765
-0.000326229
-0.000310246
-0.000297585
-0.000279003
-0.000261354
-0.000247047
-0.000234669
-0.000223045
-0.000226514
-0.000238335
-0.000255569
-0.00026932
-0.000281122
-0.000286548
-0.000285502
-0.000280167
-0.000258406
-0.000236385
-0.000160549
-0.000117322
0.0239916
0.0239165
0.0208365
0.0160209
0.0107415
0.00555124
0.000854041
-0.00266829
-0.00434144
-0.00418414
-0.00305641
-0.00184879
-0.000983298
-0.000516239
-0.000326529
-0.000274662
-0.000266935
-0.000261595
-0.00024938
-0.000236975
-0.000226626
-0.000217409
-0.000208255
-0.00021376
-0.000227203
-0.00024589
-0.000260931
-0.000273818
-0.000280211
-0.000279901
-0.000275341
-0.00025412
-0.00023269
-0.000157672
-0.000114532
0.022299
0.0225458
0.020201
0.0158938
0.0108624
0.00591334
0.00151955
-0.00182353
-0.0036014
-0.00372678
-0.00282707
-0.00172078
-0.000883412
-0.000424415
-0.000244446
-0.000204354
-0.000207395
-0.000211634
-0.000207923
-0.000202576
-0.000197585
-0.000192798
-0.000187329
-0.000195795
-0.000211491
-0.000232177
-0.000249059
-0.000263556
-0.00027138
-0.000272177
-0.000268741
-0.000248417
-0.000227726
-0.000154381
-0.00011061
0.0207931
0.0212082
0.0194392
0.0157001
0.0110076
0.00630065
0.00215586
-0.00101867
-0.00285574
-0.00322961
-0.00256594
-0.00157838
-0.000775375
-0.000322012
-0.000149132
-0.000120907
-0.000136244
-0.000151505
-0.000157493
-0.000159986
-0.000161068
-0.000161405
-0.000160555
-0.000172566
-0.000191046
-0.00021402
-0.000233264
-0.000249758
-0.000259604
-0.00026183
-0.000259991
-0.000240906
-0.000221168
-0.000150436
-0.000105118
0.0194505
0.0199737
0.018638
0.0154468
0.0111563
0.00670805
0.00277083
-0.000257483
-0.00211729
-0.0026985
-0.0022696
-0.00141909
-0.000660752
-0.000212561
-4.32783e-05
-2.60503e-05
-5.51905e-05
-8.33712e-05
-0.000100538
-0.000111655
-0.000119362
-0.000125174
-0.000129541
-0.000145362
-0.000167019
-0.00019226
-0.000214194
-0.000232719
-0.000245097
-0.000248886
-0.000249119
-0.00023148
-0.000212969
-0.00014563
-9.80788e-05
0.0182913
0.0188986
0.0178767
0.0151565
0.0112869
0.0071208
0.00337029
0.000463314
-0.00139692
-0.00214221
-0.0019363
-0.00123817
-0.000537732
-9.71062e-05
7.17121e-05
7.97402e-05
3.577e-05
-7.44487e-06
-3.7689e-05
-5.85947e-05
-7.35773e-05
-8.51587e-05
-9.51632e-05
-0.000115038
-0.000140242
-0.000167787
-0.000192677
-0.000213177
-0.000228432
-0.000233851
-0.000236505
-0.000220441
-0.000203393
-0.000139958
-9.00758e-05
0.017305
0.0180009
0.0171937
0.0148518
0.0113838
0.00751706
0.0039514
0.00114802
-0.000701588
-0.00157019
-0.00156616
-0.0010305
-0.000402864
2.39738e-05
0.000193851
0.000195445
0.000136835
7.6856e-05
3.14165e-05
-8.2057e-07
-2.39066e-05
-4.16045e-05
-5.76044e-05
-8.18389e-05
-0.000110934
-0.00014097
-0.000169061
-0.000191629
-0.000209962
-0.000217196
-0.000222447
-0.000208201
-0.000192732
-0.000133593
-8.18322e-05
0.0164304
0.0172376
0.0165957
0.0145476
0.0114375
0.00787455
0.0045035
0.00179846
-3.46903e-05
-0.000992672
-0.00116455
-0.000794102
-0.000253854
0.000150103
0.000320685
0.000319261
0.000247839
0.000170248
0.000107481
6.20131e-05
2.97166e-05
5.42533e-06
-1.68968e-05
-4.58101e-05
-7.90731e-05
-0.000111891
-0.000143391
-0.000168281
-0.000189797
-0.000199168
-0.000207045
-0.000195026
-0.000181145
-0.000126687
-7.3797e-05
0.0156078
0.016557
0.0160698
0.0142566
0.0114515
0.00818107
0.00501669
0.00241533
0.000602241
-0.000419961
-0.000739747
-0.000529199
-8.78161e-05
0.000282952
0.00045159
0.000449817
0.000368408
0.000273368
0.000191382
0.000130497
8.75393e-05
5.59857e-05
2.70194e-05
-6.87861e-06
-4.45255e-05
-8.04764e-05
-0.000115572
-0.000143152
-0.000167908
-0.000179831
-0.000190292
-0.000181002
-0.000168713
-0.00011929
-6.61488e-05
0.0148107
0.0159286
0.0156022
0.0139889
0.0114416
0.00843808
0.00548377
0.00299607
0.00120825
0.000139786
-0.000298537
-0.000235259
9.96148e-05
0.000426472
0.00058746
0.000585917
0.000497477
0.000386377
0.000284034
0.000205551
0.000150171
0.000110386
7.43543e-05
3.51157e-05
-7.10117e-06
-4.65686e-05
-8.54384e-05
-0.000116142
-0.000144196
-0.000159129
-0.000172144
-0.00016609
-0.000155483
-0.000111368
-5.89269e-05
0.0140353
0.0153385
0.0151839
0.0137523
0.0114244
0.00865462
0.00590059
0.00353544
0.0017825
0.000682255
0.000152866
8.66008e-05
0.000311463
0.000583689
0.000729395
0.000726338
0.000633366
0.000508924
0.000386295
0.000288249
0.000218404
0.000168997
0.000125271
8.02562e-05
3.33245e-05
-1.0023e-05
-5.28232e-05
-8.71135e-05
-0.000118552
-0.00013696
-0.000152567
-0.000150203
-0.000141498
-0.000102875
-5.2135e-05
0.0132888
0.0147844
0.0148103
0.0135499
0.0114094
0.00883997
0.00626723
0.0040276
0.00232212
0.00120372
0.00060637
0.000431334
0.000547944
0.00075637
0.000879149
0.000870984
0.000774753
0.0006402
0.0004985
0.000379345
0.000292889
0.000232171
0.000179923
0.000128618
7.68526e-05
2.92993e-05
-1.75836e-05
-5.59247e-05
-9.08851e-05
-0.000113205
-0.000131538
-0.000133238
-0.000126796
-9.37703e-05
-4.57563e-05
0.0125826
0.0142683
0.0144754
0.0133774
0.0113988
0.0089999
0.00658598
0.00446762
0.00282187
0.00169988
0.00105343
0.000791667
0.000808066
0.000946531
0.00103933
0.00102117
0.000920705
0.000778461
0.00061995
0.000479126
0.000374271
0.000300524
0.000238683
0.000180363
0.000123552
7.15027e-05
2.03961e-05
-2.24155e-05
-6.10973e-05
-8.7726e-05
-0.000109032
-0.0001151
-0.000111395
-8.40349e-05
-3.97479e-05
0.0119244
0.0137902
0.0141704
0.0132262
0.0113906
0.00913728
0.00686136
0.00485516
0.00327717
0.00216661
0.00148704
0.00115967
0.00108971
0.00115591
0.00121192
0.00117834
0.00107042
0.000921686
0.000749604
0.000587936
0.000463391
0.000374842
0.000302004
0.000235662
0.000173441
0.000116651
6.12032e-05
1.35796e-05
-2.90883e-05
-6.03711e-05
-8.50062e-05
-9.5695e-05
-9.52959e-05
-7.36738e-05
-3.40583e-05
0.0113133
0.0133462
0.0138869
0.0130874
0.0113816
0.00925492
0.00709995
0.0051942
0.00368518
0.00259971
0.00190213
0.00152754
0.00138848
0.00138471
0.00139771
0.00134388
0.00122459
0.00106902
0.000886466
0.000705704
0.000560623
0.000455586
0.000370298
0.000294804
0.000226654
0.000164864
0.00010492
5.22209e-05
5.24539e-06
-3.09928e-05
-5.94035e-05
-7.49469e-05
-7.84698e-05
-6.27013e-05
-2.86003e-05
0.0107425
0.0129313
0.0136197
0.0129556
0.0113701
0.00935585
0.00730671
0.00548913
0.00404525
0.00299533
0.00229507
0.00188851
0.00169724
0.00163101
0.00159725
0.00151918
0.00138503
0.00122021
0.0010288
0.000831273
0.000665751
0.000543172
0.0004442
0.000358255
0.000283338
0.000216196
0.000151547
9.35924e-05
4.19763e-05
5.21072e-07
-3.21639e-05
-5.28065e-05
-6.08799e-05
-5.11535e-05
-2.3317e-05
0.010209
0.0125451
0.0133697
0.0128302
0.0113554
0.00944062
0.00748339
0.00574376
0.00435974
0.00335105
0.00266233
0.00223689
0.00200779
0.00189107
0.00181094
0.0017049
0.00155294
0.00137528
0.00117502
0.000963381
0.000778504
0.000637905
0.000524205
0.000426399
0.000343588
0.000270676
0.000201086
0.000137731
8.11492e-05
3.42524e-05
-3.21162e-06
-2.92361e-05
-4.24791e-05
-3.90671e-05
-1.81641e-05
0.00971409
0.0121887
0.0131379
0.0127096
0.0113338
0.00950689
0.00763061
0.00596149
0.00463268
0.00366631
0.00300009
0.00256825
0.00231333
0.00215951
0.00203777
0.00190089
0.00172865
0.001535
0.00132454
0.00110097
0.000898246
0.000739422
0.000610367
0.00049966
0.000407709
0.000328401
0.000253542
0.00018466
0.000122836
7.02782e-05
2.75218e-05
-4.20967e-06
-2.32103e-05
-2.64641e-05
-1.30459e-05
0.00925574
0.0118577
0.0129199
0.0125895
0.011301
0.00955306
0.00774975
0.00614555
0.00486842
0.00394256
0.00330508
0.00287898
0.0026088
0.00242924
0.00227414
0.00210617
0.00191178
0.00170022
0.00147728
0.00124265
0.00102375
0.000847037
0.000702541
0.000578388
0.000475998
0.000389419
0.000308906
0.000234335
0.000167004
0.000108587
6.0072e-05
2.22722e-05
-3.03353e-06
-1.3359e-05
-7.94119e-06
0.00882848
0.0115457
0.0127106
0.012468
0.0112576
0.00958127
0.00784429
0.00629966
0.00507036
0.00418189
0.00357535
0.00316528
0.00288995
0.00269369
0.00251485
0.00231932
0.00210195
0.00187136
0.00163347
0.0013872
0.00115383
0.000960218
0.000800355
0.00066247
0.000548623
0.000453848
0.000367192
0.000286669
0.000213557
0.000149146
9.45106e-05
5.02395e-05
1.80973e-05
2.29701e-07
-2.82461e-06
0.00842936
0.0112507
0.0125097
0.0123477
0.0112074
0.00959502
0.00791684
0.00642506
0.00523939
0.00438631
0.0038113
0.00342445
0.00315384
0.00294837
0.00275422
0.00253761
0.00229798
0.00204746
0.00179318
0.00153421
0.00128738
0.001078
0.000903068
0.000751575
0.000625764
0.000521812
0.000428324
0.000341617
0.000262509
0.000191901
0.000130783
7.96374e-05
4.01912e-05
1.43373e-05
2.37139e-06
0.00806027
0.0109753
0.0123198
0.0122305
0.0111516
0.00959396
0.00796601
0.00652077
0.00537633
0.00455844
0.00401496
0.00365475
0.00339693
0.00318918
0.00298671
0.00275647
0.00249734
0.00222675
0.00195599
0.00168372
0.00142326
0.00119892
0.00100976
0.000845104
0.000707149
0.000593249
0.000492238
0.000399066
0.000313694
0.000236635
0.00016879
0.000110453
6.32598e-05
2.89807e-05
7.63533e-06
0.00772225
0.0107199
0.0121391
0.0121133
0.0110871
0.00957606
0.00799204
0.00658947
0.00548469
0.00470129
0.00418819
0.00385496
0.00361544
0.00341267
0.00320785
0.00297054
0.00269696
0.00240773
0.00212048
0.00183481
0.00156051
0.00132186
0.0011195
0.000942065
0.000792057
0.000668049
0.000558855
0.000458714
0.000366879
0.000283242
0.000208462
0.000142619
8.72277e-05
4.41262e-05
1.31034e-05
0.00741243
0.0104814
0.0119648
0.0119939
0.0110138
0.0095443
0.00800001
0.00663603
0.0055674
0.00481593
0.00433139
0.00402476
0.00380731
0.00361604
0.0034138
0.00317441
0.00289287
0.00258846
0.00228446
0.00198584
0.00169846
0.00144567
0.00123086
0.0010414
0.000879702
0.000745721
0.000627913
0.000520348
0.000421877
0.000331453
0.000249413
0.000175885
0.000112037
5.97798e-05
1.88894e-05
0.00713014
0.0102604
0.011799
0.0118756
0.0109362
0.00950314
0.00799317
0.00666195
0.00562451
0.00490205
0.00444512
0.00416533
0.00397197
0.00379671
0.00360137
0.00336383
0.0030801
0.00276542
0.00244585
0.00213524
0.00183597
0.00156884
0.00134226
0.00114214
0.000969091
0.000825215
0.000698897
0.000583631
0.000478194
0.000380804
0.000291422
0.000210095
0.000137523
7.56971e-05
2.47325e-05
0.00687756
0.0100601
0.011645
0.0117611
0.0108556
0.0094526
0.00797092
0.00666717
0.00565716
0.00496197
0.00453211
0.00427857
0.00410948
0.00395279
0.00376836
0.00353622
0.00325389
0.00293404
0.00260237
0.00228067
0.00197103
0.00169042
0.00145252
0.00124295
0.00105937
0.000905849
0.000771327
0.000648173
0.00053555
0.000431042
0.000334194
0.000244828
0.000163509
9.17211e-05
2.9941e-05
0.00665047
0.00987695
0.0115
0.0116482
0.0107699
0.00939097
0.00793259
0.00665241
0.00566722
0.00499749
0.00459295
0.00436383
0.00421781
0.00408114
0.00391128
0.00368855
0.00341052
0.00308996
0.002751
0.00241919
0.00210116
0.00180981
0.00156051
0.00134221
0.00114986
0.000987249
0.000844778
0.000714032
0.000594105
0.000482209
0.000377659
0.000280231
0.000190187
0.000108251
3.40942e-05
0.00643428
0.00969945
0.0113563
0.0115326
0.0106772
0.00931773
0.00787775
0.00661656
0.00565177
0.00500368
0.00462155
0.00441535
0.00429178
0.00417658
0.00402444
0.00381457
0.00354408
0.00322686
0.00288588
0.00254675
0.00222242
0.00192375
0.00166406
0.00143806
0.00123907
0.00106836
0.000918471
0.000781024
0.000653948
0.000534849
0.000422595
0.000317257
0.000218381
0.000127167
4.47112e-05
0.00594324
0.00929582
0.0110289
0.0112643
0.0104522
0.00912599
0.00771531
0.00648338
0.00554994
0.00493825
0.00459914
0.00444262
0.00437232
0.00430923
0.00420172
0.00402657
0.00378129
0.00347948
0.00314265
0.00279564
0.0024607
0.00215023
0.00187289
0.00163194
0.00142139
0.00123608
0.00107207
0.000921846
0.000780358
0.000645994
0.000517346
0.000394554
0.000276853
0.000163935
5.57415e-05
0.00629119
0.00954228
0.0111637
0.0112869
0.010374
0.00896849
0.00750484
0.00624645
0.00531084
0.00471811
0.00441422
0.00430369
0.00428397
0.00427006
0.00420648
0.00406759
0.00385121
0.00357215
0.00325339
0.00291926
0.00259139
0.00228508
0.00200945
0.00176702
0.00155378
0.00136404
0.00119314
0.00103436
0.000882029
0.000734587
0.000590744
0.000450159
0.000313502
0.000180969
5.40907e-05
0.00491597
0.00815097
0.00981636
0.0100377
0.00925722
0.00799351
0.00666163
0.00551441
0.00466752
0.00414127
0.0038817
0.00379523
0.00378762
0.00378678
0.00374749
0.00364759
0.00348319
0.00326624
0.00301739
0.00275654
0.00249768
0.00225092
0.00202423
0.00181876
0.0016307
0.00145637
0.00129231
0.00113533
0.000982084
0.000830944
0.000681905
0.000533967
0.000386116
0.000237198
8.52005e-05
0.00379125
0.00036739
-0.00147029
-0.00184929
-0.0012177
-0.000101641
0.00107706
0.00205974
0.00272742
0.00305803
0.00310455
0.00296002
0.00271986
0.00245952
0.00222796
0.00204988
0.00192994
0.00185597
0.00180845
0.00176959
0.00172674
0.00166898
0.00158913
0.00148881
0.00137333
0.00124605
0.00111071
0.000973016
0.000836035
0.000699833
0.000565737
0.000434092
0.000304239
0.00017735
5.54001e-05
0.00268455
-0.000769572
-0.00258575
-0.00289593
-0.00216842
-0.000953735
0.000308899
0.00135473
0.00206623
0.00242351
0.0024817
0.002338
0.00209581
0.00183928
0.00162278
0.00147213
0.00139111
0.00136787
0.00138128
0.00140746
0.00142617
0.00142419
0.00139532
0.00133859
0.00125699
0.00115671
0.00104468
0.000926011
0.000804494
0.000682563
0.00056107
0.000439634
0.000317423
0.000194153
6.98413e-05
0.0035317
-5.28412e-05
-0.0020186
-0.0024875
-0.00191204
-0.000828811
0.000329972
0.00129943
0.00195897
0.00228431
0.00232433
0.00216925
0.00191647
0.00164649
0.00141304
0.00124331
0.00114363
0.00110469
0.00110789
0.00113174
0.00115696
0.00116969
0.00116148
0.00112871
0.00107229
0.000996474
0.000906472
0.000806896
0.000702264
0.000595487
0.000487363
0.000378716
0.000269996
0.000161521
5.48655e-05
0.00322246
-0.000375462
-0.00235347
-0.00283351
-0.00226796
-0.00119315
-4.10213e-05
0.000923703
0.00158039
0.00190459
0.00194476
0.00179075
0.0015397
0.00127208
0.00104173
0.000876086
0.000781759
0.000749817
0.000762127
0.000797639
0.000837342
0.000866974
0.000877927
0.000866651
0.000833652
0.000782031
0.000716244
0.00064084
0.000559454
0.000474583
0.000387706
0.000299777
0.000211586
0.000124374
4.05019e-05
0.00323876
-0.000357598
-0.00233747
-0.00282231
-0.00226357
-0.00119671
-5.30641e-05
0.000903006
0.00155108
0.00186686
0.00189894
0.00173725
0.0014789
0.00120441
0.000967645
0.000796173
0.000696721
0.00066047
0.000669406
0.000702665
0.000741428
0.000771594
0.000784669
0.000777171
0.000749575
0.000704933
0.000647513
0.000581523
0.000510258
0.000435988
0.000359825
0.000282083
0.000203047
0.00012327
4.37744e-05
0.00312227
-0.000476823
-0.00245971
-0.00294799
-0.00239313
-0.00133048
-0.000191214
0.000760455
0.00140422
0.00171585
0.00174398
0.00157861
0.0013169
0.00103943
0.000800114
0.000626581
0.000525637
0.000488557
0.000497428
0.000531475
0.000571969
0.000604911
0.00062188
0.000619451
0.000598132
0.00056098
0.000512187
0.000455898
0.000395431
0.000332999
0.000269783
0.000206451
0.000143801
8.32566e-05
2.70915e-05
0.00299435
-0.000603643
-0.00258554
-0.00307295
-0.00251733
-0.00145399
-0.000313988
0.000638522
0.00128329
0.00159608
0.00162555
0.00146165
0.00120158
0.000925866
0.000688438
0.000516919
0.000418155
0.00038347
0.000394995
0.000431996
0.00047579
0.000512449
0.000533612
0.000535908
0.000519909
0.000488727
0.000446592
0.00039763
0.000345088
0.00029105
0.000236582
0.000182143
0.000128211
7.58499e-05
2.68004e-05
0.00288885
-0.000708023
-0.00268908
-0.00317583
-0.00261959
-0.00155559
-0.000414883
0.000538386
0.00118394
0.00149755
0.00152784
0.00136478
0.00110554
0.0008307
0.000594195
0.000423687
0.000326054
0.000292663
0.000305697
0.000344482
0.000390381
0.000429483
0.000453443
0.000458915
0.000446467
0.000419193
0.00038132
0.000336984
0.000289474
0.000240935
0.000192528
0.000144908
9.88902e-05
5.6059e-05
1.88339e-05
0.00279569
-0.000800319
-0.00278069
-0.00326689
-0.00271018
-0.0016457
-0.00050445
0.000449435
0.00109568
0.00141007
0.00144121
0.00127907
0.00102082
0.000747012
0.000511622
0.000342327
0.000246035
0.000214135
0.000228834
0.00026948
0.00031746
0.000358885
0.000385447
0.000393833
0.000384654
0.000361032
0.00032722
0.000287364
0.000244769
0.00020158
0.00015898
0.000117693
7.86581e-05
4.35982e-05
1.50588e-05
0.00271877
-0.000876832
-0.00285671
-0.00334235
-0.00278501
-0.00171986
-0.000577902
0.000376736
0.0010238
0.00133905
0.00137113
0.00120998
0.000952781
0.000680101
0.000445911
0.000277904
0.000183001
0.000152604
0.00016894
0.00021137
0.000261304
0.000304872
0.00033379
0.000344763
0.00033842
0.000317894
0.000287433
0.000251159
0.000212339
0.00017309
0.000134611
9.77039e-05
6.34779e-05
3.38922e-05
1.17515e-05
0.00266395
-0.000931296
-0.00291079
-0.003396
-0.0028382
-0.00177255
-0.000630053
0.000325169
0.000972859
0.00128879
0.00132159
0.00116121
0.000904819
0.000632992
0.000399703
0.000232654
0.000138777
0.000109485
0.000127014
0.000170741
0.000222087
0.000267196
0.000297796
0.000310603
0.000306257
0.000287879
0.000259713
0.000225851
0.000189543
0.00015289
0.000117122
8.31328e-05
5.2214e-05
2.65593e-05
9.22649e-06
0.00263491
-0.000959759
-0.00293883
-0.00342376
-0.00286579
-0.00180002
-0.000657409
0.000297956
0.000945834
0.00126201
0.00129512
0.00113511
0.000879154
0.000607798
0.000375019
0.000208515
0.000115217
8.65359e-05
0.000104713
0.000149128
0.000201217
0.00024713
0.000278609
0.000292378
0.000289083
0.000271844
0.000244897
0.000212317
0.00017734
0.000142055
0.000107709
7.52555e-05
4.6098e-05
2.25774e-05
7.89692e-06
0.0114561
0.00942233
0.00924103
0.00885189
0.00907824
0.00871979
0.00869481
0.00871418
0.00876942
0.00872827
0.00905468
0.00956929
0.0103143
0.0111731
0.0124141
0.0140545
0.0161525
0.0190429
0.0225367
0.0265905
0.0114615
0.00940857
0.00924802
0.00883937
0.00908438
0.00869154
0.00870864
0.00867562
0.00879357
0.00868294
0.0090869
0.00951439
0.0103359
0.0111063
0.0124437
0.0139945
0.0161331
0.0188051
0.0218872
0.0250651
0.0114626
0.0093927
0.00925394
0.0088243
0.00909014
0.0086676
0.00871921
0.00864022
0.00881486
0.00864018
0.00911111
0.00945962
0.0103448
0.0110468
0.0124357
0.0139205
0.0159748
0.0183459
0.0209175
0.0234031
0.0114583
0.00937624
0.009258
0.00880915
0.0090955
0.00864576
0.0087249
0.00861118
0.00882339
0.00861505
0.00910717
0.00943753
0.0103116
0.0110372
0.0123451
0.0138069
0.0156473
0.0177206
0.0198312
0.0218803
0.0114506
0.00935981
0.00926167
0.00879535
0.00909891
0.00862845
0.00872479
0.00859275
0.0088157
0.00861102
0.00907469
0.00943644
0.0102304
0.0109846
0.0121861
0.0135988
0.0152064
0.0169755
0.0187451
0.0204972
0.0114407
0.00934501
0.00926461
0.0087851
0.00909747
0.00861964
0.00871383
0.00858902
0.00878883
0.00862595
0.00901324
0.00943186
0.0101327
0.0108851
0.011962
0.0132619
0.0146542
0.0161636
0.0176901
0.0192126
0.0114289
0.00933353
0.00926497
0.00878046
0.00908708
0.00862166
0.0086896
0.00860006
0.00874396
0.00864416
0.00894768
0.00940053
0.0100257
0.0107289
0.0116558
0.0127787
0.0139689
0.0152785
0.0166906
0.0179978
0.0114145
0.00932729
0.00926086
0.0087826
0.00906542
0.00863369
0.0086531
0.00862736
0.00869704
0.00864229
0.00890033
0.00934425
0.00990298
0.010517
0.0112836
0.0122274
0.0132298
0.0142559
0.0154252
0.0168
0.0113958
0.00932915
0.00925044
0.00879257
0.00903054
0.00865371
0.00860719
0.00863607
0.00866102
0.00862752
0.00886266
0.00926821
0.00975169
0.0102644
0.0108361
0.0115091
0.0122498
0.0131074
0.0142211
0.0156862
0.0113706
0.00934229
0.00923223
0.00881087
0.00898147
0.00867812
0.00856212
0.00863297
0.00864161
0.00860375
0.00881218
0.00917421
0.00952643
0.00985545
0.0102454
0.010722
0.0112785
0.0120063
0.0130773
0.0146512
0.0113368
0.00936964
0.00920585
0.00883585
0.00892267
0.00869434
0.00853294
0.0086175
0.00862553
0.00856854
0.00872123
0.00897258
0.0091998
0.00939258
0.00962505
0.00992947
0.0103339
0.0109582
0.0119995
0.0136654
0.0112926
0.00941405
0.00917294
0.00886179
0.00886723
0.00869371
0.00852133
0.0085928
0.00859748
0.0084858
0.00854012
0.00871963
0.00885099
0.0089094
0.00898616
0.00914133
0.00941614
0.00994919
0.0109655
0.0127102
0.011236
0.00947755
0.00913774
0.00887867
0.00882697
0.00867636
0.00850737
0.00855191
0.00851497
0.00835625
0.00834354
0.00844656
0.00847775
0.00840622
0.00833787
0.00835481
0.00851271
0.00896437
0.0099618
0.011781
0.0111658
0.00955999
0.0091122
0.00887977
0.0088033
0.00864916
0.0084692
0.00846329
0.0084045
0.00821632
0.00813125
0.00814657
0.00807918
0.00788766
0.00768132
0.00756229
0.00761171
0.00799516
0.00898479
0.0108818
0.0110827
0.00964633
0.00910508
0.0088727
0.00877377
0.00860472
0.00840198
0.00835688
0.00827708
0.00805903
0.0078994
0.00782146
0.00765803
0.00735405
0.00701233
0.00675921
0.00670875
0.00704113
0.00803932
0.0100221
0.0109865
0.00973165
0.00913124
0.00886207
0.00872953
0.00853858
0.00831778
0.0082357
0.00812875
0.00788042
0.00764916
0.00747478
0.00721233
0.00679762
0.00632752
0.00595062
0.00581412
0.00611372
0.00713684
0.00921273
0.0108775
0.00981233
0.00918335
0.00885151
0.0086684
0.0084515
0.00821424
0.00809582
0.00795902
0.00768121
0.00737923
0.0071015
0.00673478
0.00621612
0.00563393
0.00515382
0.00494824
0.00522816
0.00628555
0.00845621
0.0107596
0.00987917
0.00926127
0.00884806
0.00859254
0.00834097
0.00808674
0.00793596
0.00776878
0.00745733
0.0070825
0.00670029
0.00623107
0.00562109
0.00494797
0.00438572
0.00412423
0.00439027
0.00548386
0.00774663
0.0106435
0.00992369
0.00934202
0.00886014
0.00851407
0.00820903
0.00793382
0.00775418
0.00755394
0.00720461
0.00675967
0.00627966
0.00571385
0.00502174
0.00427802
0.00365078
0.0033435
0.00359942
0.00472902
0.00708024
0.0105386
0.00994158
0.00940222
0.00889197
0.00844384
0.00806327
0.00775561
0.00754656
0.00731198
0.00692512
0.00641665
0.00584696
0.00519151
0.004425
0.00362369
0.00294701
0.00260569
0.00285764
0.00402398
0.00645961
0.0104468
0.00993743
0.00943222
0.00891795
0.00838415
0.00791514
0.00756237
0.0073184
0.00704718
0.00662237
0.00605604
0.00540376
0.0046648
0.00383368
0.00298664
0.00227624
0.0019142
0.00216916
0.00337224
0.00588582
0.0103658
0.00993037
0.00943597
0.0088931
0.00830363
0.00777159
0.00737323
0.00708473
0.00676842
0.00630046
0.00567969
0.00495421
0.00414041
0.00325683
0.00237638
0.00164535
0.00127322
0.00153553
0.00277286
0.00535565
0.0102977
0.00992353
0.00941154
0.00880547
0.00818924
0.00763326
0.00719266
0.00684948
0.00648083
0.00596553
0.00529315
0.00450414
0.00363036
0.00270477
0.00179957
0.00105556
0.000679866
0.000951957
0.00222082
0.00486494
0.0102453
0.00990447
0.00934334
0.00869143
0.00805799
0.00748863
0.00701269
0.00661195
0.00618465
0.00562157
0.00490195
0.00406085
0.00313898
0.0021788
0.00125455
0.000502695
0.000128726
0.000413873
0.00171358
0.00441353
0.0101933
0.00986333
0.00926068
0.00856896
0.00791358
0.00732839
0.00682061
0.00636699
0.00588231
0.00527228
0.00450931
0.00362666
0.00266708
0.00167938
0.000741641
-1.27217e-05
-0.000379969
-7.83929e-05
0.00125184
0.00400253
0.0101301
0.00980372
0.0091694
0.00843908
0.00775585
0.00715074
0.00661505
0.00611541
0.0055772
0.00492293
0.00412207
0.00320575
0.00221776
0.00121014
0.000264513
-0.00048766
-0.000844878
-0.000525358
0.000833703
0.00362936
0.0100541
0.00972703
0.00906733
0.00830056
0.00758531
0.00695734
0.00639641
0.00585855
0.00527356
0.00457856
0.00374739
0.00280442
0.00179482
0.000773303
-0.000176061
-0.000922837
-0.00126796
-0.000929879
0.000456239
0.00329193
0.00996374
0.00963219
0.00895003
0.00815027
0.00740326
0.00675226
0.00616922
0.00560062
0.00497764
0.00424788
0.00339217
0.00242828
0.0014012
0.000368576
-0.000583312
-0.00132337
-0.0016542
-0.00129573
0.000117444
0.00299035
0.00985658
0.00951795
0.00881474
0.00798563
0.00721096
0.00654039
0.00594018
0.00534885
0.0046975
0.00394009
0.0030639
0.00208358
0.00104212
-6.29898e-07
-0.000956978
-0.00169398
-0.00201106
-0.0016299
-0.000188737
0.0027196
0.0097291
0.00938334
0.00865848
0.00780522
0.00700951
0.00632591
0.00571581
0.00511093
0.00444191
0.00366638
0.00277464
0.0017822
0.000730088
-0.000320645
-0.00128106
-0.00201659
-0.00232837
-0.00193478
-0.00046982
0.00246744
0.00936818
0.00900833
0.00824048
0.00734315
0.00651747
0.00582256
0.00521078
0.00460141
0.00392445
0.00313542
0.00222758
0.00122146
0.000157451
-0.000903287
-0.00187209
-0.00261639
-0.00293861
-0.00255264
-0.00108066
0.00189975
0.0084204
0.00808319
0.00737253
0.0065517
0.0058155
0.00521929
0.00471229
0.00421367
0.00366109
0.00301591
0.0022617
0.0014041
0.000469402
-0.000491319
-0.00139371
-0.00210456
-0.00242162
-0.0020537
-0.000617136
0.00231715
0.00744779
0.00728137
0.00678864
0.00621922
0.00572717
0.00532455
0.00493041
0.00445565
0.00384053
0.00306616
0.00214338
0.00110221
-1.29912e-05
-0.00114032
-0.00219099
-0.00303494
-0.00347112
-0.00320737
-0.00185851
0.001004
0.00387565
0.00400574
0.00443556
0.00492636
0.00532921
0.00563213
0.00591503
0.0062681
0.00674814
0.00737573
0.00814377
0.00902616
0.00998137
0.0109492
0.0118419
0.0125291
0.0128108
0.0123956
0.0108966
0.00788113
0.00306183
0.00336845
0.00402222
0.00477315
0.00542757
0.00592019
0.00629332
0.00662892
0.00700545
0.00747661
0.00806616
0.00877106
0.00956467
0.0103945
0.0111741
0.0117674
0.0119679
0.0114791
0.0099129
0.00683631
0.00209725
0.00248728
0.00329457
0.00424064
0.00511396
0.00583432
0.00643385
0.00699322
0.00758828
0.00826245
0.00902741
0.00987019
0.0107581
0.0116372
0.0124234
0.012987
0.0131307
0.0125696
0.010926
0.00777584
0.00169052
0.00212768
0.00300191
0.00403059
0.0049915
0.00579017
0.00644666
0.00703452
0.00762815
0.00827786
0.00900468
0.00980367
0.0106475
0.0114856
0.0122357
0.0127684
0.0128863
0.0123039
0.0106433
0.00747981
0.00136123
0.00181474
0.00271431
0.00377436
0.00477027
0.00560408
0.00629296
0.00690928
0.00752755
0.00819815
0.00894231
0.00975575
0.0106122
0.0114613
0.0122206
0.0127606
0.0128843
0.0123066
0.0106504
0.00749153
0.00112693
0.00158969
0.00250428
0.00358326
0.00459994
0.00545442
0.00616219
0.00679447
0.00742529
0.00810494
0.00885485
0.00967092
0.010527
0.0113731
0.0121278
0.0126627
0.0127812
0.0121991
0.0105391
0.00737754
0.000944608
0.0014113
0.00233186
0.00341822
0.00444306
0.00530547
0.00601991
0.00665721
0.00729143
0.00797311
0.008724
0.00954037
0.0103964
0.0112425
0.0119972
0.0125322
0.0126509
0.0120691
0.0104096
0.00724868
0.000794172
0.00126257
0.0021857
0.00327524
0.00430376
0.00517014
0.00588864
0.00652965
0.00716699
0.00785115
0.00860394
0.00942183
0.0102792
0.0111268
0.0118831
0.0124197
0.0125401
0.0119597
0.0103015
0.00714187
0.000671408
0.00114073
0.00206518
0.00315629
0.0041867
0.00505528
0.00577627
0.00641996
0.00705993
0.00774649
0.00850134
0.00932093
0.0101797
0.0110283
0.0117855
0.0123228
0.0124438
0.0118641
0.0102066
0.00704779
0.000576194
0.00104604
0.00197106
0.00306291
0.00409443
0.00496461
0.00568758
0.00633337
0.00697531
0.0076635
0.00841963
0.0092402
0.0100997
0.010949
0.0117068
0.0122445
0.0123659
0.0117865
0.0101293
0.00697063
0.000508918
0.000979016
0.00190419
0.00299624
0.0040283
0.0048995
0.00562388
0.00627123
0.00691459
0.00760392
0.00836089
0.00918213
0.0100422
0.010892
0.0116501
0.0121883
0.01231
0.0117309
0.0100739
0.00691551
0.000472743
0.000942807
0.00186769
0.00295945
0.00399153
0.0048632
0.00558841
0.00623672
0.00688092
0.0075709
0.00832836
0.00914995
0.0100103
0.0108604
0.0116188
0.0121572
0.0122792
0.0117004
0.0100438
0.00688587
)
;

boundaryField
{
    top
    {
        type            zeroGradient;
    }
    inlet
    {
        type            zeroGradient;
    }
    outlet
    {
        type            fixedValue;
        value           uniform 0;
    }
    plate
    {
        type            zeroGradient;
    }
    symmBound
    {
        type            zeroGradient;
    }
    frontAndBack
    {
        type            empty;
    }
}


// ************************************************************************* //
