/*--------------------------------*- C++ -*----------------------------------*\
| =========                 |                                                 |
| \\      /  F ield         | OpenFOAM: The Open Source CFD Toolbox           |
|  \\    /   O peration     | Version:  5.x                                   |
|   \\  /    A nd           | Web:      www.OpenFOAM.org                      |
|    \\/     M anipulation  |                                                 |
\*---------------------------------------------------------------------------*/
FoamFile
{
    version     2.0;
    format      ascii;
    class       surfaceScalarField;
    location    "0.3";
    object      phi;
}
// * * * * * * * * * * * * * * * * * * * * * * * * * * * * * * * * * * * * * //

dimensions      [0 3 -1 0 0 0 0];

internalField   nonuniform List<scalar> 
4850
(
7.34303e-08
6.94843e-09
-8.03788e-08
6.46196e-08
8.81076e-09
5.56987e-08
8.92091e-09
4.68381e-08
8.8606e-09
3.82108e-08
8.62729e-09
3.04228e-08
7.78801e-09
2.43445e-08
6.07822e-09
2.03887e-08
3.95588e-09
1.81027e-08
2.28598e-09
1.67099e-08
1.39274e-09
1.57414e-08
9.68519e-10
1.49684e-08
7.73051e-10
1.4274e-08
6.94347e-10
1.36143e-08
6.59696e-10
1.29859e-08
6.28463e-10
1.23939e-08
5.91966e-10
1.18469e-08
5.46952e-10
1.13434e-08
5.03547e-10
1.08818e-08
4.6156e-10
1.04533e-08
4.28528e-10
1.00566e-08
3.96744e-10
9.68412e-09
3.72438e-10
9.33711e-09
3.47013e-10
9.00561e-09
3.31496e-10
8.69507e-09
3.10545e-10
8.39628e-09
2.98783e-10
8.11743e-09
2.7885e-10
7.84629e-09
2.71138e-10
7.59425e-09
2.52045e-10
7.34516e-09
2.49092e-10
7.1153e-09
2.29855e-10
6.8827e-09
2.32598e-10
6.67042e-09
2.12285e-10
6.44987e-09
2.20554e-10
2.13194e-10
8.82285e-08
6.49543e-09
-8.77756e-08
8.7173e-08
9.86632e-09
8.50326e-08
1.10613e-08
8.21999e-08
1.16933e-08
7.86355e-08
1.21916e-08
7.43478e-08
1.20757e-08
6.9609e-08
1.08171e-08
6.49831e-08
8.58179e-09
6.08845e-08
6.38452e-09
5.7253e-08
5.02432e-09
5.39364e-08
4.28511e-09
5.08966e-08
3.81278e-09
4.81308e-08
3.46015e-09
4.5632e-08
3.15854e-09
4.33845e-08
2.876e-09
4.13532e-08
2.62318e-09
3.95153e-08
2.38489e-09
3.78363e-08
2.18257e-09
3.62977e-08
2.00015e-09
3.4868e-08
1.85818e-09
3.35423e-08
1.72253e-09
3.22959e-08
1.61877e-09
3.11322e-08
1.51077e-09
3.00244e-08
1.43924e-09
2.89877e-08
1.34728e-09
2.79931e-08
1.29332e-09
2.70644e-08
1.20757e-09
2.61627e-08
1.17283e-09
2.53243e-08
1.0905e-09
2.44962e-08
1.07712e-09
2.37342e-08
9.91935e-10
2.29619e-08
1.00482e-09
2.22641e-08
9.10108e-10
2.15317e-08
9.52973e-10
8.86523e-10
9.59976e-08
6.11132e-09
-9.56135e-08
9.64139e-08
9.45004e-09
9.63339e-08
1.11412e-08
9.60677e-08
1.19595e-08
9.56307e-08
1.26287e-08
9.47632e-08
1.29432e-08
9.32704e-08
1.23098e-08
9.12693e-08
1.05829e-08
8.90996e-08
8.55427e-09
8.6904e-08
7.21987e-09
8.46205e-08
6.5686e-09
8.22157e-08
6.21755e-09
7.97318e-08
5.94413e-09
7.7209e-08
5.68126e-09
7.46917e-08
5.39335e-09
7.21985e-08
5.11638e-09
6.97638e-08
4.8196e-09
6.73954e-08
4.55091e-09
6.51164e-08
4.27922e-09
6.29129e-08
4.06165e-09
6.0805e-08
3.83042e-09
5.87723e-08
3.65151e-09
5.68369e-08
3.44618e-09
5.49668e-08
3.30932e-09
5.31961e-08
3.118e-09
5.14813e-08
3.00812e-09
4.9867e-08
2.82182e-09
4.82884e-08
2.75142e-09
4.68109e-08
2.56798e-09
4.53435e-08
2.54455e-09
4.39868e-08
2.34867e-09
4.2607e-08
2.38465e-09
4.13571e-08
2.16001e-09
4.00424e-08
2.26766e-09
2.07475e-09
1.04255e-07
5.99897e-09
-1.04143e-07
1.04805e-07
8.90053e-09
1.05116e-07
1.08299e-08
1.05353e-07
1.1723e-08
1.05699e-07
1.22826e-08
1.06e-07
1.26417e-08
1.05986e-07
1.23244e-08
1.05532e-07
1.10371e-08
1.04805e-07
9.28112e-09
1.03995e-07
8.02987e-09
1.0309e-07
7.47347e-09
1.02024e-07
7.28325e-09
1.00804e-07
7.16438e-09
9.94375e-08
7.04764e-09
9.79493e-08
6.88148e-09
9.63362e-08
6.72956e-09
9.46246e-08
6.53116e-09
9.28172e-08
6.35832e-09
9.09514e-08
6.14506e-09
8.90184e-08
5.99464e-09
8.70546e-08
5.7942e-09
8.50401e-08
5.66603e-09
8.30151e-08
5.4711e-09
8.0949e-08
5.37551e-09
7.89049e-08
5.16202e-09
7.6844e-08
5.06909e-09
7.48466e-08
4.81923e-09
7.28384e-08
4.75957e-09
7.09182e-08
4.48819e-09
6.89701e-08
4.49265e-09
6.7137e-08
4.18179e-09
6.52468e-08
4.27479e-09
6.35063e-08
3.90053e-09
6.16658e-08
4.10813e-09
3.74929e-09
1.13329e-07
6.01904e-09
-1.13349e-07
1.13822e-07
8.40731e-09
1.14274e-07
1.03781e-08
1.14601e-07
1.13957e-08
1.1502e-07
1.18637e-08
1.15516e-07
1.21453e-08
1.15887e-07
1.19536e-08
1.15945e-07
1.09788e-08
1.15758e-07
9.46791e-09
1.1552e-07
8.26799e-09
1.15275e-07
7.71895e-09
1.14954e-07
7.6037e-09
1.14544e-07
7.57431e-09
1.14035e-07
7.55733e-09
1.13441e-07
7.47484e-09
1.12742e-07
7.42859e-09
1.11948e-07
7.32537e-09
1.11038e-07
7.26859e-09
1.1004e-07
7.14288e-09
1.08932e-07
7.10226e-09
1.07746e-07
6.98017e-09
1.06447e-07
6.96589e-09
1.05066e-07
6.85176e-09
1.03553e-07
6.88888e-09
1.01963e-07
6.75155e-09
1.00248e-07
6.78401e-09
9.85037e-08
6.56362e-09
9.66598e-08
6.60349e-09
9.48292e-08
6.3188e-09
9.28912e-08
6.43067e-09
9.09995e-08
6.07343e-09
8.89879e-08
6.28643e-09
8.70659e-08
5.82253e-09
8.50028e-08
6.17123e-09
5.69616e-09
1.23177e-07
6.09367e-09
-1.23252e-07
1.23583e-07
8.00141e-09
1.24109e-07
9.85263e-09
1.24512e-07
1.09924e-08
1.24917e-07
1.14587e-08
1.25397e-07
1.16652e-08
1.25833e-07
1.15177e-08
1.26032e-07
1.07798e-08
1.25993e-07
9.50709e-09
1.25897e-07
8.36395e-09
1.25839e-07
7.77709e-09
1.25769e-07
7.67314e-09
1.25664e-07
7.67977e-09
1.25506e-07
7.71505e-09
1.25318e-07
7.6625e-09
1.25082e-07
7.66548e-09
1.24805e-07
7.60148e-09
1.24462e-07
7.61249e-09
1.24072e-07
7.53243e-09
1.2361e-07
7.56416e-09
1.23102e-07
7.48841e-09
1.22508e-07
7.55961e-09
1.21853e-07
7.50674e-09
1.21077e-07
7.66503e-09
1.20211e-07
7.61774e-09
1.19193e-07
7.80142e-09
1.18095e-07
7.66161e-09
1.16863e-07
7.83622e-09
1.15587e-07
7.59465e-09
1.14168e-07
7.84945e-09
1.12706e-07
7.53534e-09
1.11092e-07
7.90072e-09
1.09452e-07
7.4622e-09
1.07661e-07
7.96222e-09
7.516e-09
1.33784e-07
6.16014e-09
-1.33851e-07
1.34117e-07
7.66837e-09
1.34662e-07
9.30822e-09
1.35141e-07
1.05137e-08
1.35555e-07
1.10445e-08
1.36e-07
1.12199e-08
1.36436e-07
1.1082e-08
1.36691e-07
1.05242e-08
1.36714e-07
9.48431e-09
1.36646e-07
8.43189e-09
1.36619e-07
7.80436e-09
1.36613e-07
7.67933e-09
1.36594e-07
7.69865e-09
1.3654e-07
7.76861e-09
1.36476e-07
7.72676e-09
1.36394e-07
7.74715e-09
1.36308e-07
7.6879e-09
1.36195e-07
7.72506e-09
1.36072e-07
7.65611e-09
1.35918e-07
7.71763e-09
1.35753e-07
7.65351e-09
1.35551e-07
7.76174e-09
1.35327e-07
7.73115e-09
1.3504e-07
7.95187e-09
1.34697e-07
7.96056e-09
1.34253e-07
8.24548e-09
1.33732e-07
8.18251e-09
1.33111e-07
8.45676e-09
1.32438e-07
8.26773e-09
1.31671e-07
8.61706e-09
1.30811e-07
8.39471e-09
1.29841e-07
8.87068e-09
1.28762e-07
8.54171e-09
1.27583e-07
9.1413e-09
8.85623e-09
1.45196e-07
6.20008e-09
-1.45236e-07
1.45454e-07
7.40983e-09
1.45979e-07
8.78372e-09
1.46508e-07
9.9845e-09
1.46954e-07
1.05979e-08
1.47381e-07
1.07935e-08
1.47799e-07
1.06639e-08
1.48088e-07
1.02354e-08
1.48165e-07
9.40738e-09
1.48116e-07
8.4801e-09
1.48089e-07
7.83166e-09
1.481e-07
7.66803e-09
1.48112e-07
7.68744e-09
1.48096e-07
7.78477e-09
1.48066e-07
7.75649e-09
1.4803e-07
7.78288e-09
1.47999e-07
7.71946e-09
1.47964e-07
7.76006e-09
1.47928e-07
7.69185e-09
1.47886e-07
7.75969e-09
1.47841e-07
7.69797e-09
1.4779e-07
7.81286e-09
1.47732e-07
7.78883e-09
1.4766e-07
8.0242e-09
1.47559e-07
8.0619e-09
1.47417e-07
8.3869e-09
1.47221e-07
8.37868e-09
1.4698e-07
8.69802e-09
1.46695e-07
8.55308e-09
1.46392e-07
8.92005e-09
1.45994e-07
8.7919e-09
1.45557e-07
9.30834e-09
1.44996e-07
9.10291e-09
1.4441e-07
9.72664e-09
9.63626e-09
1.57468e-07
6.17138e-09
-1.5744e-07
1.57691e-07
7.18733e-09
1.58153e-07
8.32151e-09
1.58702e-07
9.43582e-09
1.59186e-07
1.01134e-08
1.59612e-07
1.03676e-08
1.60009e-07
1.02673e-08
1.60314e-07
9.9301e-09
1.6044e-07
9.2812e-09
1.6042e-07
8.4997e-09
1.60393e-07
7.85929e-09
1.60409e-07
7.65163e-09
1.60438e-07
7.65885e-09
1.60448e-07
7.77444e-09
1.60437e-07
7.76788e-09
1.60422e-07
7.79801e-09
1.60409e-07
7.73224e-09
1.60404e-07
7.76499e-09
1.60398e-07
7.69758e-09
1.60396e-07
7.76209e-09
1.60387e-07
7.7071e-09
1.60382e-07
7.817e-09
1.60371e-07
7.80073e-09
1.60366e-07
8.02857e-09
1.60344e-07
8.08392e-09
1.60318e-07
8.41279e-09
1.60258e-07
8.43931e-09
1.60188e-07
8.76737e-09
1.60081e-07
8.65996e-09
1.60004e-07
8.99735e-09
1.59853e-07
8.94266e-09
1.59707e-07
9.45438e-09
1.59466e-07
9.3441e-09
1.59252e-07
9.9409e-09
1.00043e-08
1.70695e-07
6.07775e-09
-1.70601e-07
1.70911e-07
6.9714e-09
1.71309e-07
7.92307e-09
1.71842e-07
8.90326e-09
1.72353e-07
9.60163e-09
1.72793e-07
9.92758e-09
1.73175e-07
9.88576e-09
1.73483e-07
9.62184e-09
1.73648e-07
9.11624e-09
1.73665e-07
8.48324e-09
1.73643e-07
7.88131e-09
1.73659e-07
7.63561e-09
1.73698e-07
7.61905e-09
1.73731e-07
7.74176e-09
1.73738e-07
7.76145e-09
1.73737e-07
7.7987e-09
1.73734e-07
7.73463e-09
1.73744e-07
7.75575e-09
1.73753e-07
7.68872e-09
1.73768e-07
7.74711e-09
1.73772e-07
7.70281e-09
1.73782e-07
7.80669e-09
1.73782e-07
7.80091e-09
1.73794e-07
8.01676e-09
1.73794e-07
8.08359e-09
1.73803e-07
8.40366e-09
1.73792e-07
8.45035e-09
1.73788e-07
8.7717e-09
1.7375e-07
8.69806e-09
1.73751e-07
8.99578e-09
1.73702e-07
8.99244e-09
1.73672e-07
9.48376e-09
1.73578e-07
9.43878e-09
1.73528e-07
9.99021e-09
1.01546e-08
1.84977e-07
5.93338e-09
-1.84833e-07
1.85202e-07
6.74668e-09
1.85558e-07
7.56662e-09
1.86054e-07
8.4076e-09
1.8657e-07
9.08526e-09
1.87029e-07
9.4686e-09
1.87409e-07
9.50622e-09
1.87714e-07
9.3163e-09
1.87906e-07
8.92441e-09
1.87963e-07
8.4269e-09
1.87954e-07
7.89037e-09
1.87968e-07
7.62118e-09
1.88014e-07
7.57309e-09
1.88063e-07
7.69247e-09
1.88089e-07
7.73613e-09
1.881e-07
7.78692e-09
1.88106e-07
7.72916e-09
1.88121e-07
7.74046e-09
1.88138e-07
7.67155e-09
1.88162e-07
7.72346e-09
1.88175e-07
7.68999e-09
1.88191e-07
7.79059e-09
1.88196e-07
7.79545e-09
1.88211e-07
8.00161e-09
1.8822e-07
8.07549e-09
1.88239e-07
8.38399e-09
1.88247e-07
8.44262e-09
1.88267e-07
8.75157e-09
1.88256e-07
8.7089e-09
1.88278e-07
8.97367e-09
1.88263e-07
9.00795e-09
1.88272e-07
9.47443e-09
1.88231e-07
9.47955e-09
1.88236e-07
9.98507e-09
1.02155e-08
2.0042e-07
5.75518e-09
-2.00241e-07
2.0066e-07
6.50618e-09
2.00996e-07
7.23049e-09
2.0145e-07
7.9538e-09
2.01952e-07
8.58309e-09
2.02421e-07
8.99923e-09
2.0281e-07
9.11723e-09
2.03116e-07
9.01043e-09
2.03327e-07
8.71413e-09
2.03421e-07
8.3329e-09
2.03432e-07
7.87887e-09
2.03448e-07
7.60526e-09
2.03496e-07
7.52504e-09
2.03557e-07
7.63138e-09
2.03601e-07
7.69226e-09
2.03627e-07
7.76136e-09
2.0364e-07
7.71589e-09
2.03658e-07
7.72238e-09
2.03679e-07
7.65041e-09
2.03708e-07
7.69501e-09
2.03727e-07
7.67084e-09
2.03747e-07
7.77029e-09
2.03757e-07
7.78551e-09
2.03774e-07
7.98418e-09
2.03786e-07
8.06381e-09
2.03811e-07
8.3591e-09
2.03826e-07
8.4276e-09
2.03857e-07
8.72075e-09
2.03858e-07
8.70735e-09
2.03885e-07
8.94697e-09
2.0388e-07
9.0132e-09
2.03903e-07
9.45159e-09
2.0388e-07
9.50221e-09
2.03898e-07
9.96665e-09
1.02448e-08
2.17128e-07
5.55609e-09
-2.16928e-07
2.17384e-07
6.24936e-09
2.17713e-07
6.90231e-09
2.1813e-07
7.53645e-09
2.18608e-07
8.10532e-09
2.19074e-07
8.5328e-09
2.19475e-07
8.71597e-09
2.19789e-07
8.69656e-09
2.20014e-07
8.48913e-09
2.20141e-07
8.20628e-09
2.20179e-07
7.84105e-09
2.20202e-07
7.58215e-09
2.20251e-07
7.47629e-09
2.2032e-07
7.56186e-09
2.2038e-07
7.63201e-09
2.20423e-07
7.71907e-09
2.20446e-07
7.69291e-09
2.20467e-07
7.70077e-09
2.2049e-07
7.62779e-09
2.20522e-07
7.66329e-09
2.20546e-07
7.64685e-09
2.20571e-07
7.74526e-09
2.20585e-07
7.77154e-09
2.20606e-07
7.96302e-09
2.20619e-07
8.05001e-09
2.20649e-07
8.32968e-09
2.20667e-07
8.4096e-09
2.20703e-07
8.68417e-09
2.20711e-07
8.69938e-09
2.2074e-07
8.91854e-09
2.20738e-07
9.01498e-09
2.20767e-07
9.42304e-09
2.20751e-07
9.51765e-09
2.20771e-07
9.94673e-09
1.02621e-08
2.35211e-07
5.34402e-09
-2.34999e-07
2.3548e-07
5.98101e-09
2.35804e-07
6.57763e-09
2.36196e-07
7.14533e-09
2.36644e-07
7.65634e-09
2.37098e-07
8.07948e-09
2.37506e-07
8.30786e-09
2.37834e-07
8.36872e-09
2.38074e-07
8.249e-09
2.38228e-07
8.05176e-09
2.38296e-07
7.77365e-09
2.38332e-07
7.54579e-09
2.38383e-07
7.42516e-09
2.38459e-07
7.48609e-09
2.38533e-07
7.5585e-09
2.38593e-07
7.65841e-09
2.38629e-07
7.65692e-09
2.38657e-07
7.67257e-09
2.38681e-07
7.6038e-09
2.38716e-07
7.62893e-09
2.38744e-07
7.61893e-09
2.38774e-07
7.7149e-09
2.38792e-07
7.75348e-09
2.38818e-07
7.9369e-09
2.38834e-07
8.03388e-09
2.38868e-07
8.29568e-09
2.38889e-07
8.38935e-09
2.38929e-07
8.64364e-09
2.38941e-07
8.68706e-09
2.38971e-07
8.88866e-09
2.38972e-07
9.01409e-09
2.39003e-07
9.39202e-09
2.38993e-07
9.52824e-09
2.39011e-07
9.92801e-09
1.02728e-08
2.54785e-07
5.12415e-09
-2.54565e-07
2.55059e-07
5.70684e-09
2.55381e-07
6.25556e-09
2.55755e-07
6.77185e-09
2.56175e-07
7.23554e-09
2.56611e-07
7.64401e-09
2.57018e-07
7.9011e-09
2.5736e-07
8.02628e-09
2.57618e-07
7.99142e-09
2.57797e-07
7.87249e-09
2.57895e-07
7.67529e-09
2.5795e-07
7.49088e-09
2.58007e-07
7.36861e-09
2.58087e-07
7.4054e-09
2.58172e-07
7.47436e-09
2.58249e-07
7.58073e-09
2.58302e-07
7.60415e-09
2.5834e-07
7.63407e-09
2.58368e-07
7.57629e-09
2.58405e-07
7.59196e-09
2.58436e-07
7.58761e-09
2.58472e-07
7.67907e-09
2.58495e-07
7.73073e-09
2.58527e-07
7.90516e-09
2.58546e-07
8.01429e-09
2.58585e-07
8.25722e-09
2.58608e-07
8.36591e-09
2.58652e-07
8.59994e-09
2.58668e-07
8.67046e-09
2.587e-07
8.85744e-09
2.58704e-07
9.00966e-09
2.58736e-07
9.36006e-09
2.5873e-07
9.53384e-09
2.58748e-07
9.91075e-09
1.02782e-08
2.75971e-07
4.90012e-09
-2.75747e-07
2.76247e-07
5.43083e-09
2.76566e-07
5.93677e-09
2.76926e-07
6.41154e-09
2.77323e-07
6.83863e-09
2.77739e-07
7.22778e-09
2.78138e-07
7.50244e-09
2.7849e-07
7.67403e-09
2.78767e-07
7.71523e-09
2.78969e-07
7.66981e-09
2.79099e-07
7.54587e-09
2.79177e-07
7.41282e-09
2.79243e-07
7.30276e-09
2.79328e-07
7.31972e-09
2.79421e-07
7.38136e-09
2.79513e-07
7.48878e-09
2.79585e-07
7.53263e-09
2.79637e-07
7.58147e-09
2.79671e-07
7.54219e-09
2.79712e-07
7.55179e-09
2.79746e-07
7.55303e-09
2.79787e-07
7.63803e-09
2.79816e-07
7.7024e-09
2.79853e-07
7.86736e-09
2.79878e-07
7.98966e-09
2.79921e-07
8.21448e-09
2.79949e-07
8.33802e-09
2.79995e-07
8.55358e-09
2.80017e-07
8.6489e-09
2.80049e-07
8.82505e-09
2.80058e-07
9.00063e-09
2.8009e-07
9.32774e-09
2.8009e-07
9.53373e-09
2.80107e-07
9.89443e-09
1.02785e-08
2.98904e-07
4.67385e-09
-2.98677e-07
2.99179e-07
5.15565e-09
2.99493e-07
5.62228e-09
2.99843e-07
6.06224e-09
3.0022e-07
6.4612e-09
3.00617e-07
6.83036e-09
3.01005e-07
7.11529e-09
3.0136e-07
7.31863e-09
3.01654e-07
7.4216e-09
3.01879e-07
7.44403e-09
3.02039e-07
7.38657e-09
3.02143e-07
7.3081e-09
3.02223e-07
7.22277e-09
3.02315e-07
7.22766e-09
3.02416e-07
7.28068e-09
3.0252e-07
7.38492e-09
3.02609e-07
7.44389e-09
3.02679e-07
7.51139e-09
3.02723e-07
7.49795e-09
3.02768e-07
7.5065e-09
3.02807e-07
7.51427e-09
3.02853e-07
7.59221e-09
3.02888e-07
7.66758e-09
3.02932e-07
7.82334e-09
3.02963e-07
7.95841e-09
3.0301e-07
8.16755e-09
3.03043e-07
8.30452e-09
3.03092e-07
8.5049e-09
3.03119e-07
8.62163e-09
3.03153e-07
8.79139e-09
3.03168e-07
8.98609e-09
3.032e-07
9.2951e-09
3.03207e-07
9.52743e-09
3.03223e-07
9.87807e-09
1.02737e-08
3.2373e-07
4.44647e-09
-3.23502e-07
3.24002e-07
4.88376e-09
3.2431e-07
5.31393e-09
3.24648e-07
5.72371e-09
3.25009e-07
6.10027e-09
3.25389e-07
6.45062e-09
3.25764e-07
6.74034e-09
3.26117e-07
6.96534e-09
3.26425e-07
7.11439e-09
3.26672e-07
7.19614e-09
3.26859e-07
7.1998e-09
3.26993e-07
7.17404e-09
3.27093e-07
7.1235e-09
3.27193e-07
7.12691e-09
3.27302e-07
7.17242e-09
3.27416e-07
7.27075e-09
3.27519e-07
7.34077e-09
3.27608e-07
7.42225e-09
3.27666e-07
7.43956e-09
3.27719e-07
7.45354e-09
3.27764e-07
7.46961e-09
3.27814e-07
7.54194e-09
3.27856e-07
7.62577e-09
3.27907e-07
7.7729e-09
3.27946e-07
7.91906e-09
3.27997e-07
8.11607e-09
3.28037e-07
8.26448e-09
3.28088e-07
8.45385e-09
3.28122e-07
8.58813e-09
3.28157e-07
8.756e-09
3.28178e-07
8.96541e-09
3.28211e-07
9.26168e-09
3.28224e-07
9.51479e-09
3.28242e-07
9.86032e-09
1.02637e-08
3.50608e-07
4.21952e-09
-3.50381e-07
3.50874e-07
4.61782e-09
3.51174e-07
5.01414e-09
3.51502e-07
5.39621e-09
3.51849e-07
5.75335e-09
3.52213e-07
6.08653e-09
3.52576e-07
6.37695e-09
3.52925e-07
6.61685e-09
3.5324e-07
6.79878e-09
3.53508e-07
6.92832e-09
3.5372e-07
6.98809e-09
3.53884e-07
7.00976e-09
3.54007e-07
7.00076e-09
3.5412e-07
7.01394e-09
3.54237e-07
7.05553e-09
3.5436e-07
7.14753e-09
3.54475e-07
7.22514e-09
3.54582e-07
7.3156e-09
3.54659e-07
7.36305e-09
3.54722e-07
7.39035e-09
3.54775e-07
7.41663e-09
3.5483e-07
7.48646e-09
3.54879e-07
7.57672e-09
3.54936e-07
7.7159e-09
3.54985e-07
7.8706e-09
3.55041e-07
8.05941e-09
3.55089e-07
8.21723e-09
3.55143e-07
8.3999e-09
3.55183e-07
8.54808e-09
3.55221e-07
8.71806e-09
3.55248e-07
8.93821e-09
3.55283e-07
9.22666e-09
3.55302e-07
9.49593e-09
3.55322e-07
9.8398e-09
1.02483e-08
3.79711e-07
3.99507e-09
-3.79486e-07
3.79969e-07
4.35936e-09
3.80259e-07
4.7242e-09
3.80576e-07
5.07936e-09
3.80911e-07
5.41839e-09
3.81261e-07
5.73606e-09
3.81614e-07
6.02442e-09
3.81957e-07
6.27396e-09
3.82276e-07
6.47926e-09
3.8256e-07
6.64451e-09
3.82795e-07
6.75335e-09
3.82987e-07
6.81769e-09
3.83137e-07
6.85114e-09
3.83266e-07
6.88418e-09
3.83394e-07
6.92813e-09
3.83526e-07
7.01544e-09
3.83653e-07
7.09779e-09
3.83774e-07
7.1943e-09
3.83871e-07
7.26649e-09
3.83948e-07
7.31383e-09
3.84011e-07
7.35275e-09
3.84074e-07
7.42392e-09
3.84131e-07
7.52005e-09
3.84194e-07
7.65237e-09
3.84252e-07
7.81252e-09
3.84315e-07
7.99648e-09
3.8437e-07
8.16213e-09
3.84428e-07
8.34206e-09
3.84475e-07
8.50132e-09
3.84516e-07
8.67653e-09
3.8455e-07
8.90441e-09
3.84588e-07
9.18895e-09
3.84613e-07
9.47093e-09
3.84637e-07
9.81522e-09
1.02272e-08
4.11221e-07
3.77502e-09
-4.11001e-07
4.11473e-07
4.10758e-09
4.11753e-07
4.44387e-09
4.12059e-07
4.77294e-09
4.12384e-07
5.09433e-09
4.12722e-07
5.39788e-09
4.13064e-07
5.68211e-09
4.13401e-07
5.93707e-09
4.13721e-07
6.15888e-09
4.14016e-07
6.34956e-09
4.14272e-07
6.49769e-09
4.14488e-07
6.60151e-09
4.14667e-07
6.67215e-09
4.14818e-07
6.73362e-09
4.14958e-07
6.78744e-09
4.15101e-07
6.87306e-09
4.15239e-07
6.95919e-09
4.15373e-07
7.0603e-09
4.15489e-07
7.15093e-09
4.15582e-07
7.22041e-09
4.15659e-07
7.27564e-09
4.15731e-07
7.3518e-09
4.15797e-07
7.45459e-09
4.15867e-07
7.58216e-09
4.15935e-07
7.74475e-09
4.16005e-07
7.92613e-09
4.16069e-07
8.09861e-09
4.16132e-07
8.2791e-09
4.16186e-07
8.44752e-09
4.16232e-07
8.63003e-09
4.16273e-07
8.8638e-09
4.16314e-07
9.14734e-09
4.16345e-07
9.43979e-09
4.16375e-07
9.78539e-09
1.01998e-08
4.4534e-07
3.55947e-09
-4.45125e-07
4.45586e-07
3.86177e-09
4.45857e-07
4.17256e-09
4.46153e-07
4.47747e-09
4.46466e-07
4.78108e-09
4.46793e-07
5.07141e-09
4.47125e-07
5.34949e-09
4.47456e-07
5.60653e-09
4.47776e-07
5.8388e-09
4.48078e-07
6.04722e-09
4.48352e-07
6.22397e-09
4.4859e-07
6.36328e-09
4.48796e-07
6.46584e-09
4.48972e-07
6.55823e-09
4.49129e-07
6.63024e-09
4.49284e-07
6.71854e-09
4.49434e-07
6.80921e-09
4.4958e-07
6.91412e-09
4.49712e-07
7.0185e-09
4.49825e-07
7.10807e-09
4.49917e-07
7.18272e-09
4.50002e-07
7.26764e-09
4.50078e-07
7.37837e-09
4.50156e-07
7.50418e-09
4.50233e-07
7.66759e-09
4.50312e-07
7.84733e-09
4.50384e-07
8.0259e-09
4.50454e-07
8.20942e-09
4.50516e-07
8.38601e-09
4.50568e-07
8.57722e-09
4.50616e-07
8.81614e-09
4.50663e-07
9.10068e-09
4.50701e-07
9.40193e-09
4.50737e-07
9.74907e-09
1.01656e-08
4.82289e-07
3.34795e-09
-4.82077e-07
4.82527e-07
3.62337e-09
4.82789e-07
3.91047e-09
4.83073e-07
4.19359e-09
4.83375e-07
4.47895e-09
4.83691e-07
4.75611e-09
4.84014e-07
5.02565e-09
4.84339e-07
5.28171e-09
4.84659e-07
5.51925e-09
4.84966e-07
5.73991e-09
4.85254e-07
5.93633e-09
4.85512e-07
6.10503e-09
4.85741e-07
6.23641e-09
4.85944e-07
6.35574e-09
4.86121e-07
6.45295e-09
4.8629e-07
6.54933e-09
4.86453e-07
6.64635e-09
4.86612e-07
6.75553e-09
4.8676e-07
6.87047e-09
4.86891e-07
6.97717e-09
4.87002e-07
7.07137e-09
4.87101e-07
7.16916e-09
4.8719e-07
7.28931e-09
4.87277e-07
7.41664e-09
4.87364e-07
7.58119e-09
4.87451e-07
7.75946e-09
4.87534e-07
7.94321e-09
4.87612e-07
8.1316e-09
4.87682e-07
8.31589e-09
4.87743e-07
8.51663e-09
4.87798e-07
8.76066e-09
4.87851e-07
9.04775e-09
4.87896e-07
9.35661e-09
4.8794e-07
9.70532e-09
1.01237e-08
5.22298e-07
3.14135e-09
-5.22091e-07
5.22528e-07
3.39339e-09
5.22781e-07
3.65757e-09
5.23054e-07
3.92043e-09
5.23346e-07
4.18689e-09
5.23652e-07
4.45024e-09
5.23968e-07
4.70927e-09
5.24288e-07
4.96179e-09
5.24606e-07
5.20093e-09
5.24917e-07
5.42936e-09
5.25214e-07
5.63884e-09
5.2549e-07
5.82937e-09
5.2574e-07
5.98624e-09
5.25968e-07
6.12812e-09
5.2617e-07
6.25107e-09
5.26356e-07
6.36302e-09
5.26533e-07
6.46896e-09
5.26705e-07
6.58379e-09
5.26868e-07
6.70726e-09
5.27017e-07
6.82906e-09
5.27148e-07
6.94017e-09
5.27263e-07
7.05384e-09
5.27367e-07
7.18557e-09
5.27466e-07
7.31733e-09
5.27563e-07
7.48451e-09
5.2766e-07
7.66211e-09
5.27753e-07
7.84987e-09
5.27841e-07
8.04424e-09
5.27921e-07
8.23593e-09
5.27991e-07
8.44687e-09
5.28055e-07
8.69639e-09
5.28115e-07
8.98761e-09
5.28168e-07
9.30311e-09
5.28221e-07
9.65271e-09
1.00732e-08
5.65613e-07
2.94004e-09
-5.65412e-07
5.65836e-07
3.17035e-09
5.66081e-07
3.41211e-09
5.66346e-07
3.65555e-09
5.6663e-07
3.90328e-09
5.66928e-07
4.15254e-09
5.67237e-07
4.40025e-09
5.67551e-07
4.64691e-09
5.67868e-07
4.8847e-09
5.6818e-07
5.11651e-09
5.68485e-07
5.33405e-09
5.68776e-07
5.53897e-09
5.69045e-07
5.71697e-09
5.69294e-07
5.87864e-09
5.69522e-07
6.02347e-09
5.69729e-07
6.15612e-09
5.69923e-07
6.2751e-09
5.70109e-07
6.39723e-09
5.70288e-07
6.52841e-09
5.70453e-07
6.66422e-09
5.70604e-07
6.7895e-09
5.70738e-07
6.91917e-09
5.70859e-07
7.06523e-09
5.70972e-07
7.20382e-09
5.71081e-07
7.37562e-09
5.71189e-07
7.55434e-09
5.71293e-07
7.74547e-09
5.71392e-07
7.94585e-09
5.71483e-07
8.1451e-09
5.71563e-07
8.36648e-09
5.71637e-07
8.62214e-09
5.71706e-07
8.91827e-09
5.71769e-07
9.2404e-09
5.71832e-07
9.59012e-09
1.00126e-08
6.12502e-07
2.74314e-09
-6.12305e-07
6.1272e-07
2.95214e-09
6.12959e-07
3.17255e-09
6.13217e-07
3.39763e-09
6.13493e-07
3.62787e-09
6.13782e-07
3.86292e-09
6.14084e-07
4.09873e-09
6.14394e-07
4.33678e-09
6.14708e-07
4.57042e-09
6.15023e-07
4.80131e-09
6.15334e-07
5.02303e-09
6.15637e-07
5.23633e-09
6.15923e-07
5.43067e-09
6.16193e-07
5.60936e-09
6.16443e-07
5.77264e-09
6.16674e-07
5.92532e-09
6.16887e-07
6.0619e-09
6.1709e-07
6.19427e-09
6.17286e-07
6.33287e-09
6.17468e-07
6.48186e-09
6.17637e-07
6.62085e-09
6.17792e-07
6.7638e-09
6.17931e-07
6.92624e-09
6.18061e-07
7.07399e-09
6.18184e-07
7.25255e-09
6.18304e-07
7.43417e-09
6.1842e-07
7.62963e-09
6.18531e-07
7.8349e-09
6.18634e-07
8.04237e-09
6.18727e-07
8.27326e-09
6.18813e-07
8.5366e-09
6.18893e-07
8.83759e-09
6.18966e-07
9.16745e-09
6.1904e-07
9.51679e-09
9.93925e-09
6.63255e-07
2.54934e-09
-6.63061e-07
6.6347e-07
2.73718e-09
6.63704e-07
2.93845e-09
6.63955e-07
3.14623e-09
6.64223e-07
3.35999e-09
6.64506e-07
3.57995e-09
6.64802e-07
3.80304e-09
6.65109e-07
4.02966e-09
6.65422e-07
4.25707e-09
6.6574e-07
4.48352e-09
6.66056e-07
4.70683e-09
6.66369e-07
4.92385e-09
6.6667e-07
5.12988e-09
6.66957e-07
5.32207e-09
6.67228e-07
5.50128e-09
6.67482e-07
5.67126e-09
6.67719e-07
5.82569e-09
6.6794e-07
5.97313e-09
6.68153e-07
6.12e-09
6.68354e-07
6.28032e-09
6.6854e-07
6.43484e-09
6.68716e-07
6.58778e-09
6.68876e-07
6.7665e-09
6.69024e-07
6.92611e-09
6.69163e-07
7.11352e-09
6.69298e-07
7.29942e-09
6.69426e-07
7.50133e-09
6.6955e-07
7.71041e-09
6.69666e-07
7.92632e-09
6.69774e-07
8.16608e-09
6.69872e-07
8.43837e-09
6.69965e-07
8.74399e-09
6.70052e-07
9.08115e-09
6.70136e-07
9.4325e-09
9.85138e-09
7.18188e-07
2.35545e-09
-7.17994e-07
7.18401e-07
2.52467e-09
7.1863e-07
2.70897e-09
7.18876e-07
2.90005e-09
7.19139e-07
3.09735e-09
7.19418e-07
3.30085e-09
7.1971e-07
3.5106e-09
7.20015e-07
3.72461e-09
7.20329e-07
3.94397e-09
7.20648e-07
4.16412e-09
7.20969e-07
4.38598e-09
7.21289e-07
4.60394e-09
7.21602e-07
4.81634e-09
7.21905e-07
5.01926e-09
7.22196e-07
5.21015e-09
7.22472e-07
5.39565e-09
7.22733e-07
5.56464e-09
7.22975e-07
5.7311e-09
7.23206e-07
5.88852e-09
7.23427e-07
6.05935e-09
7.23632e-07
6.22998e-09
7.23827e-07
6.393e-09
7.24009e-07
6.58447e-09
7.24175e-07
6.75961e-09
7.24333e-07
6.95559e-09
7.24484e-07
7.1492e-09
7.24628e-07
7.35728e-09
7.24765e-07
7.57306e-09
7.24897e-07
7.79404e-09
7.25018e-07
8.04571e-09
7.25133e-07
8.3234e-09
7.25238e-07
8.63874e-09
7.25341e-07
8.97761e-09
7.25439e-07
9.33498e-09
9.75009e-09
7.77644e-07
2.15737e-09
-7.77446e-07
7.77854e-07
2.31487e-09
7.7808e-07
2.48308e-09
7.78323e-07
2.65638e-09
7.78585e-07
2.83611e-09
7.78862e-07
3.0231e-09
7.79154e-07
3.21936e-09
7.79457e-07
3.42162e-09
7.7977e-07
3.63098e-09
7.8009e-07
3.84358e-09
7.80416e-07
4.06025e-09
7.80742e-07
4.27757e-09
7.81067e-07
4.49116e-09
7.81384e-07
4.7024e-09
7.81694e-07
4.90076e-09
7.81989e-07
5.10021e-09
7.82273e-07
5.28062e-09
7.82538e-07
5.46652e-09
7.8279e-07
5.6365e-09
7.8303e-07
5.81872e-09
7.83256e-07
6.0044e-09
7.83469e-07
6.1799e-09
7.83673e-07
6.38037e-09
7.8386e-07
6.57311e-09
7.84037e-07
6.77775e-09
7.84205e-07
6.98206e-09
7.84366e-07
7.19542e-09
7.84518e-07
7.42128e-09
7.84668e-07
7.64387e-09
7.84803e-07
7.91087e-09
7.84937e-07
8.19012e-09
7.85054e-07
8.52114e-09
7.85172e-07
8.85997e-09
7.85294e-07
9.21296e-09
9.64028e-09
8.41991e-07
1.97283e-09
-8.41807e-07
8.42185e-07
2.12165e-09
8.42404e-07
2.26387e-09
8.42648e-07
2.41206e-09
8.42914e-07
2.57059e-09
8.43198e-07
2.7386e-09
8.43498e-07
2.91945e-09
8.4381e-07
3.10949e-09
8.4413e-07
3.31073e-09
8.44456e-07
3.51807e-09
8.44786e-07
3.73066e-09
8.45117e-07
3.94648e-09
8.45448e-07
4.16004e-09
8.45774e-07
4.376e-09
8.46095e-07
4.57971e-09
8.46408e-07
4.78766e-09
8.4671e-07
4.97883e-09
8.46998e-07
5.17794e-09
8.47272e-07
5.36271e-09
8.47535e-07
5.55557e-09
8.47782e-07
5.75719e-09
8.48017e-07
5.94526e-09
8.4824e-07
6.15717e-09
8.4845e-07
6.36364e-09
8.48646e-07
6.5814e-09
8.48834e-07
6.79396e-09
8.49012e-07
7.0172e-09
8.49183e-07
7.25052e-09
8.49347e-07
7.47974e-09
8.49502e-07
7.75627e-09
8.49649e-07
8.04254e-09
8.4979e-07
8.38022e-09
8.49927e-07
8.72358e-09
8.50049e-07
9.09075e-09
9.48899e-09
3.27714e-06
1.27581e-09
-3.27644e-06
3.2779e-06
1.3573e-09
3.27871e-06
1.46142e-09
3.27954e-06
1.57439e-09
3.28041e-06
1.69988e-09
3.28132e-06
1.83407e-09
3.28226e-06
1.98019e-09
3.28323e-06
2.13418e-09
3.28425e-06
2.29825e-09
3.2853e-06
2.469e-09
3.28638e-06
2.6454e-09
3.2875e-06
2.82755e-09
3.28865e-06
3.01257e-09
3.28981e-06
3.20802e-09
3.29099e-06
3.40645e-09
3.29216e-06
3.6194e-09
3.2933e-06
3.83597e-09
3.29441e-06
4.06736e-09
3.29545e-06
4.31913e-09
3.29645e-06
4.55789e-09
3.2974e-06
4.80622e-09
3.29831e-06
5.03732e-09
3.29917e-06
5.29274e-09
3.30001e-06
5.5258e-09
3.30081e-06
5.78634e-09
3.30158e-06
6.02286e-09
3.30232e-06
6.27797e-09
3.30303e-06
6.53641e-09
3.30371e-06
6.79666e-09
3.30437e-06
7.0978e-09
3.305e-06
7.42063e-09
3.3056e-06
7.77598e-09
3.30617e-06
8.15529e-09
3.30676e-06
8.50235e-09
8.8603e-09
3.54067e-06
9.32945e-11
-3.53949e-06
3.54192e-06
1.12906e-10
3.54316e-06
2.16306e-10
3.54437e-06
3.63365e-10
3.54554e-06
5.3925e-10
3.54664e-06
7.25533e-10
3.54771e-06
9.12584e-10
3.54875e-06
1.09262e-09
3.54978e-06
1.26658e-09
3.55081e-06
1.44258e-09
3.55183e-06
1.62547e-09
3.55289e-06
1.77173e-09
3.55401e-06
1.89074e-09
3.55516e-06
2.05281e-09
3.55633e-06
2.24316e-09
3.55748e-06
2.468e-09
3.5586e-06
2.71159e-09
3.55969e-06
2.97845e-09
3.56076e-06
3.25538e-09
3.56178e-06
3.53565e-09
3.56276e-06
3.82504e-09
3.5637e-06
4.09725e-09
3.56461e-06
4.38554e-09
3.56549e-06
4.64402e-09
3.56635e-06
4.927e-09
3.56718e-06
5.18699e-09
3.568e-06
5.45851e-09
3.5688e-06
5.74258e-09
3.56957e-06
6.02084e-09
3.57032e-06
6.34854e-09
3.57105e-06
6.68785e-09
3.57177e-06
7.06351e-09
3.57247e-06
7.45267e-09
3.57316e-06
7.81679e-09
8.30462e-09
3.83128e-06
-1.16511e-09
-3.83003e-06
3.83233e-06
-9.3432e-10
3.83329e-06
-7.43191e-10
3.83418e-06
-5.25414e-10
3.83502e-06
-3.04959e-10
3.83586e-06
-1.10325e-10
3.83668e-06
9.29918e-11
3.83749e-06
2.84032e-10
3.83835e-06
4.05932e-10
3.8393e-06
4.91682e-10
3.84035e-06
5.744e-10
3.84143e-06
6.8713e-10
3.84249e-06
8.34298e-10
3.84352e-06
1.02129e-09
3.84452e-06
1.24136e-09
3.84549e-06
1.49909e-09
3.84643e-06
1.77707e-09
3.84733e-06
2.07322e-09
3.84821e-06
2.37443e-09
3.84908e-06
2.67034e-09
3.84994e-06
2.96892e-09
3.85079e-06
3.24246e-09
3.85164e-06
3.53297e-09
3.85249e-06
3.79308e-09
3.85334e-06
4.08191e-09
3.85418e-06
4.34983e-09
3.855e-06
4.63605e-09
3.85581e-06
4.93328e-09
3.8566e-06
5.2302e-09
3.85738e-06
5.57105e-09
3.85814e-06
5.92535e-09
3.8589e-06
6.30451e-09
3.85966e-06
6.68993e-09
3.86045e-06
7.02263e-09
7.32887e-09
4.1512e-06
-4.21948e-10
-4.15195e-06
4.15076e-06
-4.94702e-10
4.15043e-06
-4.14532e-10
4.15017e-06
-2.64639e-10
4.14994e-06
-6.91363e-11
4.14975e-06
8.06587e-11
4.14964e-06
2.02907e-10
4.1496e-06
3.19362e-10
4.14958e-06
4.28701e-10
4.14953e-06
5.36918e-10
4.14946e-06
6.52375e-10
4.1494e-06
7.42964e-10
4.14942e-06
8.15395e-10
4.14951e-06
9.29639e-10
4.14968e-06
1.07103e-09
4.14993e-06
1.24581e-09
4.15027e-06
1.44234e-09
4.15068e-06
1.6642e-09
4.15115e-06
1.9004e-09
4.15168e-06
2.14581e-09
4.15224e-06
2.40613e-09
4.15282e-06
2.65721e-09
4.15343e-06
2.92907e-09
4.15404e-06
3.17725e-09
4.15467e-06
3.45208e-09
4.15532e-06
3.70687e-09
4.15598e-06
3.97405e-09
4.15666e-06
4.25047e-09
4.15737e-06
4.52432e-09
4.1581e-06
4.84167e-09
4.15885e-06
5.16826e-09
4.15963e-06
5.5247e-09
4.16044e-06
5.8872e-09
4.16125e-06
6.21246e-09
6.62955e-09
4.49125e-06
3.08323e-10
-4.49198e-06
4.49043e-06
3.2495e-10
4.48966e-06
3.49914e-10
4.48902e-06
3.78676e-10
4.48854e-06
4.13982e-10
4.48816e-06
4.53236e-10
4.48787e-06
4.98969e-10
4.48764e-06
5.48769e-10
4.48746e-06
6.04915e-10
4.48733e-06
6.66119e-10
4.48725e-06
7.3349e-10
4.48719e-06
8.08773e-10
4.48711e-06
8.91333e-10
4.48705e-06
9.86905e-10
4.48703e-06
1.09121e-09
4.48707e-06
1.21284e-09
4.48716e-06
1.34468e-09
4.48733e-06
1.49544e-09
4.48757e-06
1.65999e-09
4.48788e-06
1.8377e-09
4.48825e-06
2.03538e-09
4.48867e-06
2.23452e-09
4.48913e-06
2.47111e-09
4.48962e-06
2.69009e-09
4.49014e-06
2.93174e-09
4.49069e-06
3.15706e-09
4.49127e-06
3.39856e-09
4.49187e-06
3.64834e-09
4.4925e-06
3.89636e-09
4.49315e-06
4.18449e-09
4.49384e-06
4.47986e-09
4.49457e-06
4.79899e-09
4.49533e-06
5.11913e-09
4.49615e-06