/*--------------------------------*- C++ -*----------------------------------*\
| =========                 |                                                 |
| \\      /  F ield         | OpenFOAM: The Open Source CFD Toolbox           |
|  \\    /   O peration     | Version:  5.x                                   |
|   \\  /    A nd           | Web:      www.OpenFOAM.org                      |
|    \\/     M anipulation  |                                                 |
\*---------------------------------------------------------------------------*/
FoamFile
{
    version     2.0;
    format      ascii;
    class       volVectorField;
    location    "0.3";
    object      U;
}
// * * * * * * * * * * * * * * * * * * * * * * * * * * * * * * * * * * * * * //

dimensions      [0 1 -1 0 0 0 0];

internalField   nonuniform List<vector> 
2475
(
(0.912577 0.0113837 0)
(0.814467 0.0147694 0)
(0.713595 0.0143348 0)
(0.608883 0.0129414 0)
(0.503115 0.011357 0)
(0.401829 0.00905199 0)
(0.316729 0.0055461 0)
(0.259468 0.00182951 0)
(0.226497 -0.000125212 0)
(0.20626 -0.000511227 0)
(0.192415 -0.000400789 0)
(0.182154 -0.000224239 0)
(0.173421 -5.50183e-05 0)
(0.165481 6.50382e-05 0)
(0.157812 0.000125161 0)
(0.150668 0.000143087 0)
(0.143842 0.000137557 0)
(0.137727 0.000124657 0)
(0.131895 0.000109902 0)
(0.126763 9.78347e-05 0)
(0.121708 8.64379e-05 0)
(0.117345 7.72444e-05 0)
(0.112851 6.8294e-05 0)
(0.109093 6.2472e-05 0)
(0.10497 5.56451e-05 0)
(0.101725 5.10743e-05 0)
(0.0978589 4.51781e-05 0)
(0.0951151 4.18054e-05 0)
(0.0913895 3.6874e-05 0)
(0.0891594 3.46222e-05 0)
(0.0854177 3.04824e-05 0)
(0.0837671 2.91524e-05 0)
(0.0797829 2.57611e-05 0)
(0.0788811 2.47803e-05 0)
(0.0742644 2.47744e-05 0)
(0.967928 0.0195098 0)
(0.959911 0.0271627 0)
(0.944985 0.0284393 0)
(0.920396 0.0278404 0)
(0.885071 0.0268306 0)
(0.839864 0.0247991 0)
(0.788336 0.0207247 0)
(0.737436 0.0147828 0)
(0.691344 0.0094121 0)
(0.649256 0.00607288 0)
(0.610074 0.00417486 0)
(0.574609 0.0031048 0)
(0.542311 0.00247232 0)
(0.513659 0.00206593 0)
(0.487598 0.00176754 0)
(0.464554 0.00153138 0)
(0.44318 0.00132387 0)
(0.424324 0.00115163 0)
(0.406355 0.00100187 0)
(0.390576 0.000883692 0)
(0.374961 0.000777203 0)
(0.361504 0.000693582 0)
(0.347574 0.000614419 0)
(0.335977 0.00055721 0)
(0.323229 0.000495546 0)
(0.313266 0.000452538 0)
(0.301348 0.000400949 0)
(0.292945 0.000370079 0)
(0.281466 0.000326454 0)
(0.274649 0.00030632 0)
(0.263139 0.000267965 0)
(0.258114 0.000257683 0)
(0.245912 0.000222351 0)
(0.243176 0.000220685 0)
(0.229246 0.000199102 0)
(0.972225 0.0185916 0)
(0.972497 0.0263543 0)
(0.974546 0.029147 0)
(0.975588 0.029651 0)
(0.973088 0.0295486 0)
(0.966056 0.0286489 0)
(0.953468 0.0257261 0)
(0.936573 0.020688 0)
(0.916581 0.0155144 0)
(0.894875 0.0120623 0)
(0.870883 0.0100401 0)
(0.846464 0.00876056 0)
(0.820833 0.00773847 0)
(0.795698 0.00681576 0)
(0.769717 0.00595316 0)
(0.744847 0.00518978 0)
(0.719282 0.00449867 0)
(0.695579 0.00391479 0)
(0.671251 0.00340541 0)
(0.649394 0.00299802 0)
(0.626523 0.00263204 0)
(0.606697 0.00234128 0)
(0.585239 0.00206881 0)
(0.5675 0.00186477 0)
(0.54725 0.00165351 0)
(0.531683 0.00150416 0)
(0.512376 0.0013323 0)
(0.499074 0.00122744 0)
(0.480208 0.00108293 0)
(0.469306 0.00101501 0)
(0.450199 0.000886646 0)
(0.44211 0.000852848 0)
(0.421793 0.000731628 0)
(0.417333 0.000729467 0)
(0.394324 0.000637202 0)
(0.977183 0.0175931 0)
(0.977114 0.0242205 0)
(0.979682 0.0276391 0)
(0.98421 0.028607 0)
(0.988246 0.0285952 0)
(0.99174 0.027904 0)
(0.992734 0.025662 0)
(0.991759 0.0216508 0)
(0.987095 0.0171534 0)
(0.980766 0.0139611 0)
(0.971379 0.0122098 0)
(0.96181 0.0112108 0)
(0.949898 0.0103946 0)
(0.93842 0.00960409 0)
(0.924276 0.00879411 0)
(0.910758 0.00804724 0)
(0.894152 0.00730843 0)
(0.878806 0.0066459 0)
(0.86024 0.0060052 0)
(0.843887 0.00546972 0)
(0.823927 0.00494355 0)
(0.807157 0.00451171 0)
(0.786063 0.00407106 0)
(0.769292 0.00373032 0)
(0.747224 0.00334901 0)
(0.731128 0.0030735 0)
(0.708446 0.00274201 0)
(0.693892 0.00254029 0)
(0.670588 0.00225345 0)
(0.658193 0.00212009 0)
(0.633739 0.00185893 0)
(0.624281 0.00179148 0)
(0.597765 0.00154046 0)
(0.592408 0.0015355 0)
(0.562298 0.00132649 0)
(0.981851 0.0172227 0)
(0.981737 0.0226821 0)
(0.983428 0.0263418 0)
(0.987981 0.0276767 0)
(0.992297 0.0276167 0)
(0.997506 0.0267722 0)
(1.00073 0.0247657 0)
(1.00397 0.0214123 0)
(1.00381 0.0174586 0)
(1.00343 0.0144373 0)
(0.999787 0.0127494 0)
(0.997467 0.0118851 0)
(0.992531 0.0112282 0)
(0.989688 0.010603 0)
(0.983606 0.00991796 0)
(0.979697 0.00930397 0)
(0.971615 0.00866579 0)
(0.966122 0.00810728 0)
(0.955783 0.00751974 0)
(0.948931 0.00704328 0)
(0.936472 0.00652817 0)
(0.928504 0.00612659 0)
(0.9138 0.00567278 0)
(0.90472 0.00534923 0)
(0.887412 0.00492303 0)
(0.877379 0.00463026 0)
(0.857489 0.00420724 0)
(0.847424 0.00396882 0)
(0.825259 0.00357176 0)
(0.816078 0.00340987 0)
(0.791274 0.0030261 0)
(0.783845 0.00294438 0)
(0.755793 0.00256021 0)
(0.751408 0.00255942 0)
(0.719012 0.0022203 0)
(0.985816 0.0171833 0)
(0.985905 0.0216053 0)
(0.986807 0.0251267 0)
(0.991173 0.0267317 0)
(0.994919 0.0267289 0)
(1.00046 0.0257779 0)
(1.00345 0.0238958 0)
(1.00757 0.0210306 0)
(1.00799 0.017534 0)
(1.00947 0.0146457 0)
(1.00707 0.0129042 0)
(1.00724 0.0120449 0)
(1.00413 0.0114413 0)
(1.00469 0.0109074 0)
(1.00137 0.0102764 0)
(1.00201 0.00973298 0)
(0.997704 0.00914499 0)
(0.997836 0.00866758 0)
(0.992114 0.00812789 0)
(0.99174 0.00772418 0)
(0.98456 0.00724406 0)
(0.983762 0.00691323 0)
(0.974861 0.00649599 0)
(0.973454 0.0062587 0)
(0.96222 0.00587166 0)
(0.959818 0.00565948 0)
(0.945667 0.00523795 0)
(0.942535 0.00504434 0)
(0.9256 0.00461124 0)
(0.922504 0.00448901 0)
(0.902436 0.00405252 0)
(0.899649 0.00400437 0)
(0.875947 0.00354852 0)
(0.874237 0.00357488 0)
(0.846292 0.00315913 0)
(0.988868 0.0173715 0)
(0.989196 0.0208859 0)
(0.989479 0.0239299 0)
(0.993657 0.0256122 0)
(0.996771 0.0257241 0)
(1.00243 0.0247876 0)
(1.005 0.0230046 0)
(1.0094 0.020534 0)
(1.00967 0.0174702 0)
(1.01188 0.0147598 0)
(1.00963 0.012963 0)
(1.01064 0.0120693 0)
(1.00772 0.0114744 0)
(1.0093 0.0109967 0)
(1.00652 0.0103866 0)
(1.00867 0.00986995 0)
(1.00545 0.00928503 0)
(1.00769 0.00884127 0)
(1.0037 0.00831268 0)
(1.00603 0.00794613 0)
(1.00126 0.0074761 0)
(1.00376 0.00718739 0)
(0.998064 0.00678822 0)
(1.00063 0.00661391 0)
(0.993601 0.00626758 0)
(0.995791 0.0061393 0)
(0.986768 0.00575625 0)
(0.988365 0.005626 0)
(0.977271 0.00519933 0)
(0.978769 0.00513218 0)
(0.965504 0.00470986 0)
(0.966531 0.00471143 0)
(0.950591 0.0042639 0)
(0.951264 0.0043242 0)
(0.932346 0.00392362 0)
(0.990942 0.0177227 0)
(0.991378 0.0204362 0)
(0.991299 0.0228867 0)
(0.995189 0.0244659 0)
(0.99783 0.0246922 0)
(1.00336 0.0238663 0)
(1.00572 0.0221985 0)
(1.01012 0.0200323 0)
(1.01039 0.0173657 0)
(1.01284 0.0148754 0)
(1.01086 0.0130507 0)
(1.01207 0.0120997 0)
(1.00935 0.0114837 0)
(1.01101 0.0110362 0)
(1.00854 0.0104424 0)
(1.01084 0.00993714 0)
(1.00822 0.00934163 0)
(1.01073 0.00890206 0)
(1.00769 0.00836822 0)
(1.0104 0.00801096 0)
(1.00696 0.00753924 0)
(1.00994 0.0072617 0)
(1.00608 0.006865 0)
(1.00931 0.00671145 0)
(1.00492 0.00638837 0)
(1.00812 0.00630197 0)
(1.00278 0.0059572 0)
(1.00566 0.00586361 0)
(0.99923 0.00545573 0)
(1.00203 0.00540732 0)
(0.994773 0.0050299 0)
(0.99696 0.00505544 0)
(0.988362 0.0046593 0)
(0.989816 0.00473059 0)
(0.979776 0.00440301 0)
(0.992384 0.0177608 0)
(0.992681 0.0198698 0)
(0.992536 0.021799 0)
(0.99596 0.0231954 0)
(0.998379 0.0235198 0)
(1.00346 0.0228763 0)
(1.00588 0.0213867 0)
(1.00997 0.0194781 0)
(1.01052 0.0171666 0)
(1.0128 0.0149173 0)
(1.0114 0.0131085 0)
(1.01241 0.0120972 0)
(1.01022 0.0114507 0)
(1.01147 0.0110206 0)
(1.0096 0.0104572 0)
(1.01141 0.00996729 0)
(1.00959 0.00936982 0)
(1.01158 0.00892206 0)
(1.00956 0.00838404 0)
(1.01164 0.00802329 0)
(1.00941 0.0075549 0)
(1.01161 0.00727395 0)
(1.00923 0.00688179 0)
(1.01157 0.00672424 0)
(1.00906 0.0064168 0)
(1.01142 0.00633819 0)
(1.0086 0.00602237 0)
(1.0108 0.00593777 0)
(1.00755 0.00555209 0)
(1.00964 0.00548644 0)
(1.00636 0.00515547 0)
(1.00798 0.00517743 0)
(1.00421 0.00483477 0)
(1.00532 0.0048913 0)
(1.00109 0.00464058 0)
(0.993519 0.0174588 0)
(0.993467 0.0191875 0)
(0.993453 0.0207173 0)
(0.996299 0.0219009 0)
(0.998695 0.0222788 0)
(1.00313 0.02183 0)
(1.00574 0.0205637 0)
(1.00934 0.0188801 0)
(1.01033 0.0168691 0)
(1.01223 0.0148612 0)
(1.01153 0.0131209 0)
(1.01217 0.0120655 0)
(1.01067 0.0113902 0)
(1.01133 0.0109661 0)
(1.01016 0.0104377 0)
(1.01131 0.00996668 0)
(1.01033 0.00937621 0)
(1.01159 0.00891565 0)
(1.01054 0.008376 0)
(1.01181 0.00800748 0)
(1.01065 0.00754948 0)
(1.01189 0.00726334 0)
(1.01068 0.0068818 0)
(1.01195 0.00671395 0)
(1.01075 0.00641858 0)
(1.01202 0.00633418 0)
(1.01078 0.00603732 0)
(1.01199 0.005949 0)
(1.01062 0.00558646 0)
(1.01167 0.00549228 0)
(1.01048 0.00519734 0)
(1.01128 0.00520559 0)
(1.0099 0.00490271 0)
(1.01048 0.00493359 0)
(1.00902 0.00473897 0)
(0.994524 0.0169981 0)
(0.994047 0.0184884 0)
(0.994187 0.0197301 0)
(0.996483 0.0207108 0)
(0.998912 0.0210886 0)
(1.0027 0.0207973 0)
(1.00548 0.0197598 0)
(1.00859 0.0182877 0)
(1.00996 0.0165306 0)
(1.0115 0.0147609 0)
(1.0114 0.0131325 0)
(1.01174 0.012052 0)
(1.01083 0.0113448 0)
(1.01102 0.0109091 0)
(1.0104 0.010405 0)
(1.01101 0.00995267 0)
(1.01064 0.00937568 0)
(1.01136 0.00890478 0)
(1.01098 0.00836342 0)
(1.01165 0.00798584 0)
(1.01121 0.00753878 0)
(1.0118 0.00724906 0)
(1.01131 0.00687883 0)
(1.01188 0.00670204 0)
(1.01144 0.00641414 0)
(1.01202 0.00632101 0)
(1.01159 0.00603507 0)
(1.01217 0.00593893 0)
(1.01172 0.0055982 0)
(1.01216 0.0054796 0)
(1.01182 0.00521048 0)
(1.01215 0.00520402 0)
(1.01172 0.00493004 0)
(1.01197 0.00493543 0)
(1.01154 0.00477754 0)
(0.995443 0.0164708 0)
(0.994583 0.0177946 0)
(0.994785 0.0188279 0)
(0.996653 0.0196358 0)
(0.999059 0.0199741 0)
(1.00233 0.0197868 0)
(1.00514 0.0189608 0)
(1.00789 0.0177072 0)
(1.0095 0.0161733 0)
(1.01081 0.0146261 0)
(1.01111 0.0131321 0)
(1.01131 0.0120431 0)
(1.01081 0.0113 0)
(1.01074 0.0108413 0)
(1.01044 0.0103501 0)
(1.01073 0.00991843 0)
(1.0107 0.00936402 0)
(1.01111 0.00889211 0)
(1.0111 0.00835 0)
(1.01147 0.0079634 0)
(1.01138 0.00752441 0)
(1.01165 0.00723258 0)
(1.01152 0.00687253 0)
(1.01176 0.00668965 0)
(1.01165 0.0064071 0)
(1.01192 0.00630479 0)
(1.01185 0.00602655 0)
(1.01214 0.00592054 0)
(1.01207 0.00560018 0)
(1.01225 0.00546381 0)
(1.01221 0.00521507 0)
(1.01235 0.00519341 0)
(1.01224 0.00494398 0)
(1.01235 0.00492747 0)
(1.01224 0.004795 0)
(0.996284 0.0159246 0)
(0.995117 0.017111 0)
(0.995265 0.0179866 0)
(0.996831 0.0186431 0)
(0.999137 0.0189237 0)
(1.00204 0.0187967 0)
(1.00478 0.0181463 0)
(1.00728 0.01711 0)
(1.00899 0.0157799 0)
(1.0102 0.0144298 0)
(1.01071 0.0130815 0)
(1.01091 0.0120122 0)
(1.01066 0.0112391 0)
(1.01051 0.0107597 0)
(1.01036 0.0102759 0)
(1.01052 0.00986384 0)
(1.01063 0.00933841 0)
(1.01091 0.00887394 0)
(1.01106 0.00833274 0)
(1.01131 0.00793639 0)
(1.01137 0.00750296 0)
(1.01153 0.00720928 0)
(1.01153 0.0068599 0)
(1.01167 0.00667268 0)
(1.01168 0.00639689 0)
(1.01184 0.00628431 0)
(1.01189 0.00601459 0)
(1.01207 0.00589687 0)
(1.01214 0.00559635 0)
(1.01225 0.00544648 0)
(1.01228 0.00521642 0)
(1.01237 0.00517854 0)
(1.01237 0.00495253 0)
(1.01242 0.00491764 0)
(1.0124 0.00480468 0)
(0.997052 0.0153583 0)
(0.995636 0.0164118 0)
(0.995648 0.0171593 0)
(0.996992 0.0176897 0)
(0.999158 0.0179143 0)
(1.00181 0.0178259 0)
(1.00442 0.0173122 0)
(1.00673 0.0164789 0)
(1.00845 0.0153478 0)
(1.00962 0.0141739 0)
(1.01025 0.0129762 0)
(1.01051 0.0119605 0)
(1.01042 0.0111697 0)
(1.01028 0.0106724 0)
(1.0102 0.0101912 0)
(1.01032 0.00979026 0)
(1.01048 0.00929358 0)
(1.01072 0.00884331 0)
(1.01094 0.00830956 0)
(1.01116 0.00790555 0)
(1.01128 0.00747897 0)
(1.01141 0.00718283 0)
(1.01146 0.00684477 0)
(1.01157 0.00665232 0)
(1.01163 0.00638536 0)
(1.01175 0.00626059 0)
(1.01186 0.00600137 0)
(1.012 0.00587059 0)
(1.01211 0.00558973 0)
(1.0122 0.00542876 0)
(1.01225 0.00521654 0)
(1.01233 0.00516233 0)
(1.01237 0.00495868 0)
(1.0124 0.00490853 0)
(1.01241 0.00481103 0)
(0.997745 0.014759 0)
(0.996113 0.0156791 0)
(0.995956 0.0163215 0)
(0.997119 0.0167585 0)
(0.999138 0.0169379 0)
(1.00159 0.0168792 0)
(1.00406 0.016475 0)
(1.00623 0.0158174 0)
(1.00791 0.0148813 0)
(1.00907 0.0138685 0)
(1.00976 0.0128169 0)
(1.01009 0.0118817 0)
(1.01012 0.0110911 0)
(1.01004 0.0105741 0)
(1.01 0.010094 0)
(1.01011 0.00969498 0)
(1.01029 0.00922507 0)
(1.01052 0.00879685 0)
(1.01076 0.00828161 0)
(1.011 0.00787311 0)
(1.01115 0.00745444 0)
(1.01128 0.00715299 0)
(1.01135 0.00682544 0)
(1.01146 0.00662608 0)
(1.01154 0.00637033 0)
(1.01165 0.006233 0)
(1.01178 0.00598615 0)
(1.01191 0.00584214 0)
(1.01204 0.0055803 0)
(1.01212 0.00541012 0)
(1.01218 0.00521456 0)
(1.01226 0.0051452 0)
(1.01232 0.00496225 0)
(1.01234 0.00489988 0)
(1.01237 0.00481474 0)
(0.998365 0.0141339 0)
(0.996542 0.0149283 0)
(0.996212 0.0154876 0)
(0.997211 0.0158601 0)
(0.999092 0.0160097 0)
(1.00139 0.0159757 0)
(1.00372 0.0156621 0)
(1.00577 0.0151414 0)
(1.00738 0.014385 0)
(1.00853 0.0135243 0)
(1.00926 0.0126077 0)
(1.00965 0.0117672 0)
(1.00977 0.0110003 0)
(1.00976 0.0104622 0)
(1.00976 0.00998583 0)
(1.00988 0.00958625 0)
(1.01008 0.00914021 0)
(1.0103 0.00873727 0)
(1.01056 0.00824854 0)
(1.0108 0.00783725 0)
(1.01099 0.00742678 0)
(1.01112 0.00711903 0)
(1.01122 0.00680216 0)
(1.01132 0.0065953 0)
(1.01142 0.00635182 0)
(1.01153 0.00620215 0)
(1.01167 0.00596813 0)
(1.01179 0.00581203 0)
(1.01194 0.00556809 0)
(1.01202 0.00539109 0)
(1.01209 0.0052102 0)
(1.01217 0.00512776 0)
(1.01224 0.00496305 0)
(1.01225 0.00489165 0)
(1.01231 0.00481596 0)
(0.998919 0.0134895 0)
(0.996923 0.0141748 0)
(0.99643 0.014668 0)
(0.997276 0.0149964 0)
(0.999031 0.0151307 0)
(1.0012 0.0151144 0)
(1.0034 0.0148744 0)
(1.00535 0.014459 0)
(1.0069 0.013859 0)
(1.00801 0.0131462 0)
(1.00877 0.0123543 0)
(1.00919 0.0116096 0)
(1.00939 0.010892 0)
(1.00944 0.0103409 0)
(1.00949 0.00987024 0)
(1.00962 0.00947243 0)
(1.00983 0.00904284 0)
(1.01006 0.00865988 0)
(1.01033 0.00820248 0)
(1.01058 0.00779387 0)
(1.01079 0.007395 0)
(1.01094 0.00708348 0)
(1.01106 0.00677728 0)
(1.01117 0.00656231 0)
(1.01128 0.00633017 0)
(1.01138 0.00616915 0)
(1.01154 0.00594725 0)
(1.01165 0.00578136 0)
(1.01181 0.00555319 0)
(1.01189 0.00537219 0)
(1.01197 0.00520363 0)
(1.01205 0.00511089 0)
(1.01214 0.0049616 0)
(1.01214 0.00488409 0)
(1.01222 0.00481537 0)
(0.999423 0.0128415 0)
(0.997268 0.0134354 0)
(0.996625 0.0138703 0)
(0.997328 0.0141639 0)
(0.998962 0.014289 0)
(1.00101 0.0142838 0)
(1.00311 0.0141046 0)
(1.00496 0.0137767 0)
(1.00645 0.0133044 0)
(1.00752 0.0127289 0)
(1.00828 0.0120542 0)
(1.00873 0.0113974 0)
(1.00898 0.0107484 0)
(1.0091 0.0102027 0)
(1.0092 0.00973592 0)
(1.00935 0.00934311 0)
(1.00957 0.00892555 0)
(1.0098 0.00855784 0)
(1.01007 0.00813704 0)
(1.01034 0.00773994 0)
(1.01058 0.00735598 0)
(1.01073 0.00704276 0)
(1.01087 0.00674518 0)
(1.01099 0.00652164 0)
(1.01112 0.00629972 0)
(1.01122 0.00613006 0)
(1.01139 0.00591942 0)
(1.0115 0.00574709 0)
(1.01167 0.005533 0)
(1.01174 0.00535105 0)
(1.01184 0.00519265 0)
(1.01191 0.00509224 0)
(1.01201 0.00495595 0)
(1.01202 0.00487484 0)
(1.01211 0.00481159 0)
(0.999889 0.0122102 0)
(0.997582 0.0127231 0)
(0.996802 0.0130998 0)
(0.997372 0.0133594 0)
(0.998893 0.0134778 0)
(1.00084 0.0134847 0)
(1.00284 0.0133583 0)
(1.00462 0.0131063 0)
(1.00604 0.0127357 0)
(1.00707 0.0122793 0)
(1.00782 0.0117192 0)
(1.00829 0.0111442 0)
(1.00858 0.0105715 0)
(1.00874 0.0100529 0)
(1.00889 0.00958981 0)
(1.00905 0.00920384 0)
(1.0093 0.00879994 0)
(1.00953 0.00844305 0)
(1.00981 0.00805739 0)
(1.01009 0.00767701 0)
(1.01035 0.00730848 0)
(1.01051 0.00699675 0)
(1.01068 0.00670833 0)
(1.0108 0.0064783 0)
(1.01095 0.00626505 0)
(1.01105 0.00608935 0)
(1.01123 0.00588801 0)
(1.01133 0.00571211 0)
(1.01151 0.00550976 0)
(1.01159 0.00532957 0)
(1.0117 0.00517912 0)
(1.01176 0.00507376 0)
(1.01188 0.00494789 0)
(1.01189 0.00486512 0)
(1.01199 0.00480578 0)
(1.00033 0.0115739 0)
(0.997875 0.0120161 0)
(0.996968 0.0123416 0)
(0.997421 0.0125713 0)
(0.998841 0.0126904 0)
(1.00069 0.0127138 0)
(1.00261 0.0126333 0)
(1.00431 0.0124464 0)
(1.00569 0.0121588 0)
(1.00667 0.011799 0)
(1.00739 0.0113473 0)
(1.00787 0.0108515 0)
(1.00818 0.01035 0)
(1.00837 0.00987556 0)
(1.00857 0.00942495 0)
(1.00876 0.00904687 0)
(1.00902 0.00866162 0)
(1.00926 0.00831379 0)
(1.00955 0.00795844 0)
(1.00983 0.00759963 0)
(1.01011 0.00724873 0)
(1.0103 0.00694339 0)
(1.01048 0.006666 0)
(1.01062 0.00643135 0)
(1.01078 0.00622354 0)
(1.01088 0.00604421 0)
(1.01106 0.00585103 0)
(1.01117 0.00567479 0)
(1.01135 0.00548239 0)
(1.01143 0.005306 0)
(1.01156 0.00516194 0)
(1.01162 0.0050542 0)
(1.01175 0.00493687 0)
(1.01176 0.00485402 0)
(1.01188 0.00479764 0)
(1.00074 0.0109332 0)
(0.998154 0.0113162 0)
(0.997132 0.0116037 0)
(0.997484 0.0118096 0)
(0.998814 0.0119329 0)
(1.00058 0.0119715 0)
(1.00243 0.0119283 0)
(1.00406 0.0117942 0)
(1.00538 0.0115744 0)
(1.00632 0.0112911 0)
(1.00702 0.0109354 0)
(1.00748 0.01052 0)
(1.00781 0.0100826 0)
(1.00802 0.00966235 0)
(1.00825 0.00923985 0)
(1.00846 0.00887182 0)
(1.00875 0.00850764 0)
(1.009 0.00817004 0)
(1.00931 0.00783821 0)
(1.00958 0.00750418 0)
(1.00989 0.00717416 0)
(1.01008 0.0068786 0)
(1.01029 0.00661286 0)
(1.01044 0.00637693 0)
(1.01062 0.00617357 0)
(1.01072 0.00599319 0)
(1.01091 0.00580699 0)
(1.01101 0.0056322 0)
(1.0112 0.005449 0)
(1.01128 0.00527866 0)
(1.01142 0.00514019 0)
(1.01148 0.0050319 0)
(1.01163 0.00492195 0)
(1.01164 0.00483963 0)
(1.01177 0.00478576 0)
(1.00113 0.010315 0)
(0.998426 0.0106489 0)
(0.997301 0.0109083 0)
(0.997562 0.0110932 0)
(0.998811 0.0112163 0)
(1.0005 0.0112647 0)
(1.00228 0.0112485 0)
(1.00385 0.0111555 0)
(1.00513 0.0109922 0)
(1.00603 0.0107738 0)
(1.00669 0.0104979 0)
(1.00713 0.0101622 0)
(1.00747 0.00978559 0)
(1.00769 0.00941872 0)
(1.00794 0.00903701 0)
(1.00818 0.00868465 0)
(1.00848 0.00834045 0)
(1.00875 0.00801716 0)
(1.00907 0.00770479 0)
(1.00935 0.00739566 0)
(1.00967 0.00708852 0)
(1.00988 0.00680499 0)
(1.01011 0.0065513 0)
(1.01026 0.0063183 0)
(1.01046 0.00611913 0)
(1.01057 0.00593869 0)
(1.01076 0.00575884 0)
(1.01086 0.00558777 0)
(1.01106 0.00541288 0)
(1.01114 0.00524965 0)
(1.0113 0.00511573 0)
(1.01135 0.00500827 0)
(1.01151 0.00490455 0)
(1.01153 0.00482349 0)
(1.01168 0.00477199 0)
(1.00151 0.00971739 0)
(0.998698 0.0100069 0)
(0.997476 0.0102392 0)
(0.997653 0.0104034 0)
(0.998831 0.0105199 0)
(1.00045 0.0105749 0)
(1.00217 0.0105786 0)
(1.00368 0.0105229 0)
(1.00491 0.0104091 0)
(1.00578 0.0102477 0)
(1.00641 0.0100354 0)
(1.00682 0.00977188 0)
(1.00716 0.0094548 0)
(1.00738 0.00913664 0)
(1.00765 0.0088022 0)
(1.0079 0.00847491 0)
(1.00822 0.00815138 0)
(1.0085 0.00784795 0)
(1.00884 0.00755574 0)
(1.00912 0.00726864 0)
(1.00946 0.00698409 0)
(1.00968 0.00671679 0)
(1.00993 0.00647741 0)
(1.0101 0.00625068 0)
(1.01031 0.00605631 0)
(1.01042 0.00587681 0)
(1.01063 0.0057037 0)
(1.01073 0.00553728 0)
(1.01093 0.00536974 0)
(1.01101 0.005214 0)
(1.01119 0.00508579 0)
(1.01124 0.00498099 0)
(1.01141 0.00488355 0)
(1.01143 0.00480373 0)
(1.01159 0.00475384 0)
(1.00187 0.00912881 0)
(0.998962 0.00937673 0)
(0.997654 0.00958076 0)
(0.997753 0.0097276 0)
(0.998869 0.00983665 0)
(1.00043 0.00989971 0)
(1.0021 0.00992187 0)
(1.00355 0.0099002 0)
(1.00475 0.00982732 0)
(1.00557 0.00971318 0)
(1.00617 0.00955146 0)
(1.00655 0.00934931 0)
(1.00688 0.00909206 0)
(1.0071 0.00882165 0)
(1.00738 0.00853471 0)
(1.00763 0.00824154 0)
(1.00798 0.00794284 0)
(1.00827 0.0076613 0)
(1.00862 0.00739077 0)
(1.00891 0.00712443 0)
(1.00927 0.00686158 0)
(1.0095 0.00661362 0)
(1.00977 0.0063898 0)
(1.00994 0.00617143 0)
(1.01017 0.00598463 0)
(1.01028 0.00580825 0)
(1.0105 0.00564128 0)
(1.0106 0.0054809 0)
(1.01082 0.00532122 0)
(1.01089 0.00517459 0)
(1.01108 0.00505193 0)
(1.01114 0.00495003 0)
(1.01132 0.00485777 0)
(1.01134 0.00477995 0)
(1.01152 0.004732 0)
(1.0022 0.00854925 0)
(0.999208 0.00876271 0)
(0.997825 0.00894202 0)
(0.997856 0.00907769 0)
(0.998921 0.00918209 0)
(1.00043 0.00925357 0)
(1.00206 0.00929 0)
(1.00346 0.00929288 0)
(1.00462 0.00925044 0)
(1.00541 0.00917392 0)
(1.00597 0.00905473 0)
(1.00632 0.00890389 0)
(1.00663 0.00870347 0)
(1.00685 0.00847974 0)
(1.00712 0.00823651 0)
(1.00737 0.00798281 0)
(1.00774 0.00771521 0)
(1.00804 0.00745523 0)
(1.00841 0.00720745 0)
(1.00871 0.00696563 0)
(1.00908 0.00672392 0)
(1.00932 0.00649596 0)
(1.00961 0.00628889 0)
(1.00978 0.00608178 0)
(1.01004 0.00590484 0)
(1.01015 0.0057336 0)
(1.01038 0.00557208 0)
(1.01048 0.00541935 0)
(1.01071 0.00526724 0)
(1.01078 0.00512942 0)
(1.01099 0.00501218 0)
(1.01104 0.00491582 0)
(1.01124 0.00482877 0)
(1.01126 0.00475403 0)
(1.01146 0.00470679 0)
(1.00249 0.00798543 0)
(0.999427 0.00817091 0)
(0.997982 0.00832801 0)
(0.997954 0.00845388 0)
(0.998974 0.00855213 0)
(1.00044 0.00862654 0)
(1.00203 0.00867017 0)
(1.00339 0.00868877 0)
(1.00451 0.00867076 0)
(1.00526 0.00862587 0)
(1.0058 0.00854524 0)
(1.00611 0.00843749 0)
(1.0064 0.00828701 0)
(1.0066 0.00810826 0)
(1.00687 0.00790662 0)
(1.00712 0.00769405 0)
(1.00749 0.00746302 0)
(1.00781 0.00722767 0)
(1.0082 0.00700264 0)
(1.00849 0.00678792 0)
(1.00889 0.0065663 0)
(1.00913 0.00635776 0)
(1.00944 0.00617063 0)
(1.00962 0.00597684 0)
(1.00989 0.00581045 0)
(1.01001 0.00564726 0)
(1.01026 0.00549295 0)
(1.01035 0.00534793 0)
(1.01059 0.00520349 0)
(1.01066 0.00507573 0)
(1.01089 0.00496547 0)
(1.01094 0.00487569 0)
(1.01116 0.00479344 0)
(1.01118 0.00472152 0)
(1.0114 0.00467601 0)
(1.00275 0.00744038 0)
(0.999614 0.00759981 0)
(0.998116 0.00773511 0)
(0.998036 0.00784863 0)
(0.999016 0.0079389 0)
(1.00044 0.00801195 0)
(1.00199 0.00806121 0)
(1.00332 0.00809207 0)
(1.0044 0.00809625 0)
(1.00512 0.008078 0)
(1.00564 0.00803093 0)
(1.00592 0.00795764 0)
(1.00618 0.0078495 0)
(1.00636 0.00771209 0)
(1.00663 0.00755025 0)
(1.00687 0.00737584 0)
(1.00724 0.00718213 0)
(1.00756 0.00697855 0)
(1.00797 0.00677675 0)
(1.00827 0.00658831 0)
(1.00868 0.00638961 0)
(1.00893 0.00619953 0)
(1.00926 0.00603408 0)
(1.00944 0.00585473 0)
(1.00974 0.00570018 0)
(1.00985 0.00554701 0)
(1.01011 0.00540213 0)
(1.01021 0.0052645 0)
(1.01046 0.00512969 0)
(1.01053 0.00501129 0)
(1.01077 0.00490895 0)
(1.01082 0.00482423 0)
(1.01106 0.00474935 0)
(1.01108 0.0046794 0)
(1.01132 0.00463886 0)
(1.00295 0.00690715 0)
(0.999764 0.00704204 0)
(0.99822 0.00715892 0)
(0.998097 0.00725933 0)
(0.999043 0.00734421 0)
(1.00043 0.00741504 0)
(1.00196 0.00747194 0)
(1.00325 0.00751187 0)
(1.00431 0.00753584 0)
(1.005 0.00753648 0)
(1.00549 0.00751727 0)
(1.00574 0.00747066 0)
(1.00598 0.00740009 0)
(1.00613 0.00729981 0)
(1.00639 0.00717724 0)
(1.00662 0.00703838 0)
(1.00699 0.00688042 0)
(1.00731 0.00671282 0)
(1.00774 0.00653682 0)
(1.00804 0.00637161 0)
(1.00846 0.00620316 0)
(1.00872 0.00602829 0)
(1.00906 0.00588425 0)
(1.00925 0.00572053 0)
(1.00956 0.00558128 0)
(1.00968 0.00543512 0)
(1.00995 0.00530279 0)
(1.01004 0.00516985 0)
(1.01031 0.00504636 0)
(1.01038 0.00493373 0)
(1.01064 0.00484256 0)
(1.01069 0.0047616 0)
(1.01094 0.00469728 0)
(1.01096 0.00462465 0)
(1.01123 0.00459195 0)
(1.00311 0.00635839 0)
(0.999877 0.00647616 0)
(0.998296 0.00657964 0)
(0.998139 0.00667115 0)
(0.999057 0.00675189 0)
(1.00042 0.0068222 0)
(1.00192 0.00688422 0)
(1.00319 0.00693277 0)
(1.00422 0.00697079 0)
(1.00488 0.00698945 0)
(1.00535 0.0069929 0)
(1.00557 0.00697489 0)
(1.00578 0.00693577 0)
(1.00591 0.00687619 0)
(1.00616 0.00678855 0)
(1.00638 0.00669067 0)
(1.00674 0.00656414 0)
(1.00705 0.00643777 0)
(1.00749 0.00628799 0)
(1.0078 0.00614945 0)
(1.00822 0.00600982 0)
(1.0085 0.00585648 0)
(1.00885 0.00572674 0)
(1.00904 0.0055875 0)
(1.00936 0.00545784 0)
(1.00949 0.00532615 0)
(1.00977 0.00520034 0)
(1.00986 0.00508073 0)
(1.01014 0.00495865 0)
(1.01021 0.00486037 0)
(1.01048 0.00476871 0)
(1.01053 0.00470011 0)
(1.01081 0.00463156 0)
(1.01083 0.00456881 0)
(1.01111 0.00452519 0)
(1.00323 0.00576554 0)
(0.999963 0.00587051 0)
(0.998349 0.00596477 0)
(0.998161 0.00604779 0)
(0.999058 0.00612453 0)
(1.0004 0.00619266 0)
(1.00188 0.00625756 0)
(1.00313 0.00631315 0)
(1.00414 0.00636319 0)
(1.00477 0.00640158 0)
(1.00522 0.00642806 0)
(1.00541 0.00644145 0)
(1.0056 0.00643278 0)
(1.00571 0.00641234 0)
(1.00594 0.00635964 0)
(1.00613 0.00630335 0)
(1.00649 0.00621431 0)
(1.00679 0.00612867 0)
(1.00723 0.00601631 0)
(1.00754 0.00590905 0)
(1.00798 0.00580251 0)
(1.00825 0.0056806 0)
(1.00862 0.00557411 0)
(1.00881 0.00546208 0)
(1.00915 0.00535321 0)
(1.00927 0.0052408 0)
(1.00957 0.00513139 0)
(1.00966 0.00502893 0)
(1.00995 0.00491805 0)
(1.01001 0.00483652 0)
(1.01031 0.00475322 0)
(1.01035 0.00469808 0)
(1.01065 0.0046359 0)
(1.01066 0.00458042 0)
(1.01097 0.00453728 0)
(1.00344 0.00441816 0)
(1.00008 0.00445677 0)
(0.998394 0.00450078 0)
(0.998143 0.00454081 0)
(0.998997 0.00459034 0)
(1.0003 0.00463767 0)
(1.00176 0.00469456 0)
(1.00296 0.00474749 0)
(1.00395 0.00480533 0)
(1.00453 0.00485669 0)
(1.00494 0.00490501 0)
(1.00507 0.0049442 0)
(1.00521 0.00497069 0)
(1.00525 0.00498707 0)
(1.00544 0.00498466 0)
(1.00558 0.00497574 0)
(1.00592 0.00494993 0)
(1.00619 0.00491754 0)
(1.00663 0.00487597 0)
(1.00694 0.00482237 0)
(1.00739 0.00477868 0)
(1.00765 0.00471054 0)
(1.00806 0.00466372 0)
(1.00825 0.00459142 0)
(1.0086 0.00453947 0)
(1.00873 0.00446222 0)
(1.00905 0.00439972 0)
(1.00913 0.00432809 0)
(1.00946 0.00426 0)
(1.00951 0.00420509 0)
(1.00984 0.00416339 0)
(1.00988 0.00412744 0)
(1.01021 0.00410524 0)
(1.01023 0.00405812 0)
(1.01058 0.00404669 0)
(1.00223 0.00314937 0)
(0.998962 0.00321337 0)
(0.997378 0.00328873 0)
(0.997238 0.00336783 0)
(0.99819 0.00345332 0)
(0.999572 0.00353821 0)
(1.00108 0.00362484 0)
(1.00231 0.00370967 0)
(1.00329 0.00379304 0)
(1.00386 0.00387577 0)
(1.00422 0.00395348 0)
(1.0043 0.00403363 0)
(1.00439 0.00410618 0)
(1.00437 0.00418496 0)
(1.00451 0.00425242 0)
(1.00462 0.00432507 0)
(1.00492 0.00438312 0)
(1.00516 0.00444089 0)
(1.00558 0.00448578 0)
(1.00587 0.00451858 0)
(1.0063 0.00454595 0)
(1.00656 0.00454952 0)
(1.00696 0.00455987 0)
(1.00714 0.00453826 0)
(1.0075 0.00452842 0)
(1.00762 0.00449338 0)
(1.00795 0.00445759 0)
(1.00804 0.00442304 0)
(1.00836 0.00437445 0)
(1.00843 0.00435144 0)
(1.00877 0.00432411 0)
(1.00882 0.00431113 0)
(1.00917 0.00429337 0)
(1.0092 0.00425537 0)
(1.00957 0.00423747 0)
(1.00264 -0.00298261 0)
(0.999389 -0.00266543 0)
(0.997772 -0.00208126 0)
(0.997527 -0.00137874 0)
(0.998355 -0.000678398 0)
(0.999585 -7.43196e-05 0)
(1.00097 0.000400841 0)
(1.00208 0.000739513 0)
(1.00298 0.000968908 0)
(1.00347 0.00112239 0)
(1.00379 0.00124029 0)
(1.00383 0.0013586 0)
(1.00392 0.00149437 0)
(1.00387 0.00166596 0)
(1.004 0.00186134 0)
(1.00404 0.00208456 0)
(1.00431 0.00230979 0)
(1.00446 0.00253333 0)
(1.00482 0.00273841 0)
(1.00501 0.00291414 0)
(1.0054 0.00306986 0)
(1.00557 0.00317869 0)
(1.00594 0.00328092 0)
(1.00606 0.00333574 0)
(1.00641 0.00339584 0)
(1.00648 0.00342183 0)
(1.00683 0.0034461 0)
(1.00688 0.00346659 0)
(1.00724 0.00347444 0)
(1.00726 0.00350015 0)
(1.00764 0.00352267 0)
(1.00765 0.00354922 0)
(1.00805 0.00356947 0)
(1.00805 0.00355784 0)
(1.00848 0.00356013 0)
(1.00027 -0.00351375 0)
(1.00366 -0.00321976 0)
(1.00552 -0.00265953 0)
(1.00588 -0.00198058 0)
(1.00528 -0.00130225 0)
(1.00414 -0.00071802 0)
(1.00301 -0.000259454 0)
(1.002 6.54892e-05 0)
(1.00138 0.000284877 0)
(1.00102 0.00043074 0)
(1.00103 0.000544628 0)
(1.00114 0.000660383 0)
(1.00145 0.000796358 0)
(1.00167 0.000968003 0)
(1.00197 0.00116597 0)
(1.00211 0.00139231 0)
(1.00231 0.00162436 0)
(1.00234 0.00185692 0)
(1.00248 0.00207433 0)
(1.00247 0.00226552 0)
(1.00262 0.00243991 0)
(1.00262 0.00257176 0)
(1.00282 0.00269888 0)
(1.00286 0.00278126 0)
(1.00311 0.00286948 0)
(1.00317 0.0029249 0)
(1.00345 0.00297911 0)
(1.00352 0.00302593 0)
(1.00382 0.00306114 0)
(1.00387 0.00311055 0)
(1.0042 0.00315522 0)
(1.00424 0.00320108 0)
(1.00458 0.00323876 0)
(1.0046 0.00324035 0)
(1.00496 0.003252 0)
(1.0005 0.00114116 0)
(1.00392 0.00116375 0)
(1.00576 0.00119589 0)
(1.00604 0.00123125 0)
(1.00536 0.00127376 0)
(1.00412 0.00131742 0)
(1.0029 0.00136646 0)
(1.00183 0.00141702 0)
(1.00117 0.00147199 0)
(1.00078 0.0015303 0)
(1.00078 0.00159149 0)
(1.00088 0.00165944 0)
(1.00119 0.00172908 0)
(1.0014 0.00180936 0)
(1.00169 0.00188881 0)
(1.00179 0.0019798 0)
(1.00195 0.00206733 0)
(1.00192 0.00216309 0)
(1.002 0.00225506 0)
(1.00191 0.00234456 0)
(1.002 0.00243475 0)
(1.00194 0.00250918 0)
(1.00208 0.00259294 0)
(1.00207 0.00264872 0)
(1.00228 0.0027154 0)
(1.0023 0.00275818 0)
(1.00256 0.00279855 0)
(1.00259 0.00283501 0)
(1.00288 0.00285625 0)
(1.0029 0.00289576 0)
(1.00321 0.00292495 0)
(1.00322 0.00296102 0)
(1.00355 0.00298412 0)
(1.00355 0.00297844 0)
(1.00391 0.00298045 0)
(0.998711 0.000799391 0)
(1.00227 0.000784029 0)
(1.00426 0.000777717 0)
(1.0047 0.000774131 0)
(1.00416 0.000781919 0)
(1.00305 0.000793308 0)
(1.00193 0.00081545 0)
(1.00094 0.000840361 0)
(1.00032 0.00087351 0)
(0.999968 0.000909027 0)
(0.999974 0.000949675 0)
(1.0001 0.000993695 0)
(1.0004 0.00104025 0)
(1.00064 0.00109302 0)
(1.00093 0.00114689 0)
(1.00106 0.00120941 0)
(1.00123 0.00127299 0)
(1.00122 0.00134382 0)
(1.0013 0.00141821 0)
(1.00123 0.00149244 0)
(1.00129 0.00157612 0)
(1.00122 0.00164653 0)
(1.00133 0.00173337 0)
(1.0013 0.00179547 0)
(1.00147 0.00187435 0)
(1.00148 0.00192856 0)
(1.0017 0.00198663 0)
(1.00172 0.00203714 0)
(1.00197 0.00207861 0)
(1.00199 0.00213014 0)
(1.00226 0.0021779 0)
(1.00228 0.00222406 0)
(1.00256 0.00226422 0)
(1.00257 0.00227065 0)
(1.00288 0.00228643 0)
(0.998586 0.00105653 0)
(1.00216 0.00107068 0)
(1.00416 0.00108816 0)
(1.00462 0.00110456 0)
(1.00408 0.00112476 0)
(1.00299 0.00114431 0)
(1.00186 0.00116776 0)
(1.00088 0.00119143 0)
(1.00026 0.00121846 0)
(0.999916 0.00124727 0)
(0.999911 0.00127817 0)
(1.00004 0.0013132 0)
(1.00033 0.00134842 0)