# vtk DataFile Version 2.0
symmBound
ASCII
DATASET POLYDATA
POINTS 82 float
-0.02 0 0 -0.018734 0 0 -0.018734 0 0.001 -0.02 0
0.001 -0.0175406 0 0 -0.0175406 0 0.001 -0.0164157 0 0
-0.0164157 0 0.001 -0.0153552 0 0 -0.0153552 0 0.001 -0.0143555
0 0 -0.0143555 0 0.001 -0.0134132 0 0 -0.0134132 0
0.001 -0.0125248 0 0 -0.0125248 0 0.001 -0.0116874 0 0
-0.0116874 0 0.001 -0.010898 0 0 -0.010898 0 0.001 -0.0101539
0 0 -0.0101539 0 0.001 -0.0094524 0 0 -0.0094524 0
0.001 -0.00879114 0 0 -0.00879114 0 0.001 -0.00816779 0 0
-0.00816779 0 0.001 -0.00758018 0 0 -0.00758018 0 0.001 -0.00702626
0 0 -0.00702626 0 0.001 -0.00650409 0 0 -0.00650409 0
0.001 -0.00601187 0 0 -0.00601187 0 0.001 -0.00554786 0 0
-0.00554786 0 0.001 -0.00511045 0 0 -0.00511045 0 0.001 -0.00469812
0 0 -0.00469812 0 0.001 -0.00430943 0 0 -0.00430943 0
0.001 -0.00394303 0 0 -0.00394303 0 0.001 -0.00359763 0 0
-0.00359763 0 0.001 -0.00327203 0 0 -0.00327203 0 0.001 -0.0029651
0 0 -0.0029651 0 0.001 -0.00267577 0 0 -0.00267577 0
0.001 -0.00240302 0 0 -0.00240302 0 0.001 -0.00214592 0 0
-0.00214592 0 0.001 -0.00190355 0 0 -0.00190355 0 0.001 -0.00167508
0 0 -0.00167508 0 0.001 -0.0014597 0 0 -0.0014597 0
0.001 -0.00125668 0 0 -0.00125668 0 0.001 -0.00106529 0 0
-0.00106529 0 0.001 -0.000884876 0 0 -0.000884876 0 0.001 -0.000714806
0 0 -0.000714806 0 0.001 -0.000554486 0 0 -0.000554486 0
0.001 -0.000403357 0 0 -0.000403357 0 0.001 -0.000260893 0 0
-0.000260893 0 0.001 -0.000126597 0 0 -0.000126597 0 0.001 0
0 0 0 0 0.001 
POLYGONS 40 200
4 0 1 2 3 4 1 4 5 2 4
4 6 7 5 4 6 8 9 7 4
8 10 11 9 4 10 12 13 11 4
12 14 15 13 4 14 16 17 15 4
16 18 19 17 4 18 20 21 19 4
20 22 23 21 4 22 24 25 23 4
24 26 27 25 4 26 28 29 27 4
28 30 31 29 4 30 32 33 31 4
32 34 35 33 4 34 36 37 35 4
36 38 39 37 4 38 40 41 39 4
40 42 43 41 4 42 44 45 43 4
44 46 47 45 4 46 48 49 47 4
48 50 51 49 4 50 52 53 51 4
52 54 55 53 4 54 56 57 55 4
56 58 59 57 4 58 60 61 59 4
60 62 63 61 4 62 64 65 63 4
64 66 67 65 4 66 68 69 67 4
68 70 71 69 4 70 72 73 71 4
72 74 75 73 4 74 76 77 75 4
76 78 79 77 4 78 80 81 79 
CELL_DATA 40
FIELD attributes 3
patchID 1 40 float
4 4 4 4 4 4 4 4 4 4 4
4 4 4 4 4 4 4 4 4 4
4 4 4 4 4 4 4 4 4 4
4 4 4 4 4 4 4 4 4 
p 1 40 float
0.0041305 0.00420025 0.00419974 0.00425128 0.00427339 0.00434309 0.004383 0.00446211 0.00451604 0.00460517 0.00467348
0.00477444 0.00485721 0.00497137 0.00506838 0.00519616 0.00530827 0.00545121 0.00558146 0.00574333 0.00589418
0.00607837 0.00625327 0.00646422 0.00666815 0.00691212 0.0071525 0.00743869 0.0077268 0.00806976 0.00842422
0.00884917 0.00930373 0.00985835 0.0104791 0.0112599 0.0121773 0.0133592 0.0147624 0.0164374 
U 3 40 float
0.484045 -6.14485e-05 0 0.516007 7.86541e-06 0 0.484542 1.10644e-05 0 0.515212 -1.55791e-05
0 0.484981 8.20524e-05 0 0.514401 -2.74646e-05 0 0.485294 0.000157283 0
0.513597 -3.12193e-05 0 0.485505 0.000233347 0 0.512807 -2.83529e-05 0 0.485611
0.000308253 0 0.512025 -2.06956e-05 0 0.485604 0.000384939 0 0.511251 -6.37987e-06
0 0.485483 0.000465973 0 0.510484 1.30738e-05 0 0.485239 0.000550011 0
0.509722 3.87686e-05 0 0.484859 0.000632881 0 0.508956 7.11914e-05 0 0.484329
0.000717583 0 0.50818 0.000112048 0 0.483628 0.000806364 0 0.50738 0.000163536
0 0.482731 0.000902051 0 0.506543 0.000228481 0 0.481603 0.00100836 0
0.50564 0.000310574 0 0.480191 0.00113044 0 0.504628 0.000415037 0 0.478416
0.0012761 0 0.503432 0.000550703 0 0.476138 0.00146011 0 0.501901 0.00073775
0 0.473095 0.00172073 0 0.499728 0.00104323 0 0.468775 0.00221246 0
0.496338 0.00179095 0 0.462318 0.00368824 0 0.491269 0.00444741 0 
POINT_DATA  82
FIELD attributes 2
p 1 82 float
0.0041305 0.00416599 0.00416599 0.0041305 0.00419999 0.00419999 0.00422592 0.00422592 0.00426251 0.00426251 0.00430874
0.00430874 0.00436331 0.00436331 0.00442305 0.00442305 0.00448939 0.00448939 0.0045611 0.0045611 0.00463967
0.00463967 0.00472443 0.00472443 0.00481618 0.00481618 0.00491474 0.00491474 0.00502023 0.00502023 0.00513269
0.00513269 0.00525255 0.00525255 0.00538013 0.00538013 0.00551666 0.00551666 0.00566276 0.00566276 0.00581906
0.00581906 0.00598661 0.00598661 0.00616611 0.00616611 0.00635906 0.00635906 0.00656646 0.00656646 0.00679043
0.00679043 0.00703257 0.00703257 0.00729587 0.00729587 0.007583 0.007583 0.00789854 0.00789854 0.00824724
0.00824724 0.00863696 0.00863696 0.0090767 0.0090767 0.00958131 0.00958131 0.010169 0.010169 0.0108698
0.0108698 0.0117189 0.0117189 0.0127686 0.0127686 0.0140612 0.0140612 0.0156003 0.0156003 0.0164374
0.0164374 
U 3 82 float
0.484045 -6.14485e-05 0 0.50031 -2.6176e-05 0 0.50031 -2.6176e-05 0 0.484045 -6.14485e-05
0 0.500008 9.49197e-06 0 0.500008 9.49197e-06 0 0.500123 -2.47124e-06 0
0.500123 -2.47124e-06 0 0.499867 3.39782e-05 0 0.499867 3.39782e-05 0 0.499901
2.65098e-05 0 0.499901 2.65098e-05 0 0.499651 6.61515e-05 0 0.499651 6.61515e-05
0 0.499624 6.18448e-05 0 0.499624 6.18448e-05 0 0.499386 0.000102618 0
0.499386 0.000102618 0 0.499305 0.000101068 0 0.499305 0.000101068 0 0.499071
0.000141654 0 0.499071 0.000141654 0 0.498942 0.00014224 0 0.498942 0.00014224
0 0.498701 0.00018387 0 0.498701 0.00018387 0 0.498529 0.000187731 0
0.498529 0.000187731 0 0.498273 0.000231509 0 0.498273 0.000231509 0 0.498066
0.000238023 0 0.498066 0.000238023 0 0.497785 0.000283163 0 0.497785 0.000283163
0 0.497548 0.000292986 0 0.497548 0.000292986 0 0.497229 0.000337305 0
0.497229 0.000337305 0 0.496962 0.000350769 0 0.496962 0.000350769 0 0.496592
0.000395706 0 0.496592 0.000395706 0 0.496298 0.000413701 0 0.496298 0.000413701
0 0.495863 0.000460358 0 0.495863 0.000460358 0 0.49554 0.000483991 0
0.49554 0.000483991 0 0.495023 0.000533784 0 0.495023 0.000533784 0 0.494665
0.000564455 0 0.494665 0.000564455 0 0.494046 0.000619262 0 0.494046 0.000619262
0 0.493644 0.000658791 0 0.493644 0.000658791 0 0.492893 0.000721216 0
0.492893 0.000721216 0 0.492429 0.000772183 0 0.492429 0.000772183 0 0.491504
0.000846166 0 0.491504 0.000846166 0 0.49094 0.000912953 0 0.49094 0.000912953
0 0.48977 0.00100591 0 0.48977 0.00100591 0 0.489032 0.00109858 0
0.489032 0.00109858 0 0.487485 0.00122967 0 0.487485 0.00122967 0 0.486422
0.00138171 0 0.486422 0.00138171 0 0.484241 0.00162826 0 0.484241 0.00162826
0 0.482565 0.00200158 0 0.482565 0.00200158 0 0.479319 0.00274012 0
0.479319 0.00274012 0 0.476801 0.00406802 0 0.476801 0.00406802 0 0.491269
0.00444741 0 0.491269 0.00444741 0 
