# vtk DataFile Version 2.0
symmBound
ASCII
DATASET POLYDATA
POINTS 82 float
-0.02 0 0 -0.018734 0 0 -0.018734 0 0.001 -0.02 0
0.001 -0.0175406 0 0 -0.0175406 0 0.001 -0.0164157 0 0
-0.0164157 0 0.001 -0.0153552 0 0 -0.0153552 0 0.001 -0.0143555
0 0 -0.0143555 0 0.001 -0.0134132 0 0 -0.0134132 0
0.001 -0.0125248 0 0 -0.0125248 0 0.001 -0.0116874 0 0
-0.0116874 0 0.001 -0.010898 0 0 -0.010898 0 0.001 -0.0101539
0 0 -0.0101539 0 0.001 -0.0094524 0 0 -0.0094524 0
0.001 -0.00879114 0 0 -0.00879114 0 0.001 -0.00816779 0 0
-0.00816779 0 0.001 -0.00758018 0 0 -0.00758018 0 0.001 -0.00702626
0 0 -0.00702626 0 0.001 -0.00650409 0 0 -0.00650409 0
0.001 -0.00601187 0 0 -0.00601187 0 0.001 -0.00554786 0 0
-0.00554786 0 0.001 -0.00511045 0 0 -0.00511045 0 0.001 -0.00469812
0 0 -0.00469812 0 0.001 -0.00430943 0 0 -0.00430943 0
0.001 -0.00394303 0 0 -0.00394303 0 0.001 -0.00359763 0 0
-0.00359763 0 0.001 -0.00327203 0 0 -0.00327203 0 0.001 -0.0029651
0 0 -0.0029651 0 0.001 -0.00267577 0 0 -0.00267577 0
0.001 -0.00240302 0 0 -0.00240302 0 0.001 -0.00214592 0 0
-0.00214592 0 0.001 -0.00190355 0 0 -0.00190355 0 0.001 -0.00167508
0 0 -0.00167508 0 0.001 -0.0014597 0 0 -0.0014597 0
0.001 -0.00125668 0 0 -0.00125668 0 0.001 -0.00106529 0 0
-0.00106529 0 0.001 -0.000884876 0 0 -0.000884876 0 0.001 -0.000714806
0 0 -0.000714806 0 0.001 -0.000554486 0 0 -0.000554486 0
0.001 -0.000403357 0 0 -0.000403357 0 0.001 -0.000260893 0 0
-0.000260893 0 0.001 -0.000126597 0 0 -0.000126597 0 0.001 0
0 0 0 0 0.001 
POLYGONS 40 200
4 0 1 2 3 4 1 4 5 2 4
4 6 7 5 4 6 8 9 7 4
8 10 11 9 4 10 12 13 11 4
12 14 15 13 4 14 16 17 15 4
16 18 19 17 4 18 20 21 19 4
20 22 23 21 4 22 24 25 23 4
24 26 27 25 4 26 28 29 27 4
28 30 31 29 4 30 32 33 31 4
32 34 35 33 4 34 36 37 35 4
36 38 39 37 4 38 40 41 39 4
40 42 43 41 4 42 44 45 43 4
44 46 47 45 4 46 48 49 47 4
48 50 51 49 4 50 52 53 51 4
52 54 55 53 4 54 56 57 55 4
56 58 59 57 4 58 60 61 59 4
60 62 63 61 4 62 64 65 63 4
64 66 67 65 4 66 68 69 67 4
68 70 71 69 4 70 72 73 71 4
72 74 75 73 4 74 76 77 75 4
76 78 79 77 4 78 80 81 79 
CELL_DATA 40
FIELD attributes 3
patchID 1 40 float
4 4 4 4 4 4 4 4 4 4 4
4 4 4 4 4 4 4 4 4 4
4 4 4 4 4 4 4 4 4 4
4 4 4 4 4 4 4 4 4 
p 1 40 float
0.0045145 0.00458304 0.00458052 0.00462935 0.00464805 0.00471435 0.00475057 0.00482638 0.00487666 0.00496234 0.0050275
0.0051256 0.00520602 0.0053182 0.00541398 0.00554103 0.00565218 0.00579465 0.00592461 0.00608664 0.00623784
0.00642266 0.00659831 0.00681022 0.00701519 0.00726033 0.00750191 0.00778937 0.00807875 0.00842302 0.00877876
0.009205 0.00966081 0.0102167 0.0108387 0.0116205 0.0125391 0.0137221 0.0151264 0.0168024 
U 3 40 float
0.484046 -6.25045e-05 0 0.516009 8.5057e-06 0 0.484549 9.08033e-06 0 0.515224 -1.54794e-05
0 0.484999 7.84939e-05 0 0.514427 -2.81455e-05 0 0.485328 0.000153108 0
0.513638 -3.25679e-05 0 0.485554 0.00023044 0 0.512863 -3.06993e-05 0 0.485673
0.000304897 0 0.512094 -2.32505e-05 0 0.485677 0.00038013 0 0.511328 -1.02718e-05
0 0.485562 0.000459539 0 0.510566 9.39015e-06 0 0.485323 0.000544956 0
0.509809 3.52943e-05 0 0.484946 0.000628347 0 0.509044 6.79258e-05 0 0.484415
0.000713632 0 0.508266 0.00010918 0 0.483711 0.000803082 0 0.507464 0.000161142
0 0.482811 0.000899395 0 0.506622 0.000226515 0 0.481678 0.00100622 0
0.505714 0.000308945 0 0.480261 0.00112869 0 0.504698 0.000413663 0 0.478481
0.00127467 0 0.503496 0.000549556 0 0.476198 0.00145898 0 0.50196 0.000736833
0 0.473151 0.00171988 0 0.499783 0.00104258 0 0.468827 0.00221197 0
0.496389 0.0017907 0 0.462367 0.00368816 0 0.491316 0.00444752 0 
POINT_DATA  82
FIELD attributes 2
p 1 82 float
0.0045145 0.00454938 0.00454938 0.0045145 0.00458176 0.00458176 0.00460533 0.00460533 0.00463884 0.00463884 0.00468168
0.00468168 0.0047327 0.0047327 0.00478896 0.00478896 0.00485182 0.00485182 0.00491997 0.00491997 0.00499525
0.00499525 0.00507701 0.00507701 0.00516616 0.00516616 0.00526256 0.00526256 0.00536644 0.00536644 0.00547793
0.00547793 0.00559694 0.00559694 0.00572381 0.00572381 0.00585996 0.00585996 0.00600599 0.00600599 0.00616255
0.00616255 0.00633059 0.00633059 0.00651078 0.00651078 0.00670458 0.00670458 0.00691298 0.00691298 0.00713806
0.00713806 0.00738138 0.00738138 0.00764592 0.00764592 0.00793431 0.00793431 0.00825115 0.00825115 0.00860113
0.00860113 0.00899214 0.00899214 0.00943315 0.00943315 0.00993901 0.00993901 0.0105279 0.0105279 0.0112299
0.0112299 0.0120801 0.0120801 0.013131 0.013131 0.0144246 0.0144246 0.0159648 0.0159648 0.0168024
0.0168024 
U 3 82 float
0.484046 -6.25045e-05 0 0.500311 -2.63688e-05 0 0.500311 -2.63688e-05 0 0.484046 -6.25045e-05
0 0.500013 8.79788e-06 0 0.500013 8.79788e-06 0 0.500133 -3.3967e-06 0
0.500133 -3.3967e-06 0 0.499882 3.2221e-05 0 0.499882 3.2221e-05 0 0.499924
2.44107e-05 0 0.499924 2.44107e-05 0 0.499682 6.37003e-05 0 0.499682 6.37003e-05
0 0.499661 5.9101e-05 0 0.499661 5.9101e-05 0 0.499431 0.000100481 0
0.499431 0.000100481 0 0.499357 9.84438e-05 0 0.499357 9.84438e-05 0 0.49913
0.000138798 0 0.49913 0.000138798 0 0.499007 0.000139288 0 0.499007 0.000139288
0 0.498772 0.000180178 0 0.498772 0.000180178 0 0.498604 0.000183384 0
0.498604 0.000183384 0 0.498352 0.000226337 0 0.498352 0.000226337 0 0.498147
0.000232974 0 0.498147 0.000232974 0 0.497868 0.00027879 0 0.497868 0.00027879
0 0.497633 0.000288726 0 0.497633 0.000288726 0 0.497315 0.000333298 0
0.497315 0.000333298 0 0.497049 0.000346872 0 0.497049 0.000346872 0 0.496679
0.000392096 0 0.496679 0.000392096 0 0.496384 0.000410293 0 0.496384 0.000410293
0 0.495948 0.000457282 0 0.495948 0.000457282 0 0.495623 0.000481154 0
0.495623 0.000481154 0 0.495104 0.000531258 0 0.495104 0.000531258 0 0.494745
0.000562144 0 0.494745 0.000562144 0 0.494123 0.000617208 0 0.494123 0.000617208
0 0.493719 0.000656906 0 0.493719 0.000656906 0 0.492966 0.000719528 0
0.492966 0.000719528 0 0.492498 0.000770623 0 0.492498 0.000770623 0 0.491571
0.000844765 0 0.491571 0.000844765 0 0.491004 0.000911666 0 0.491004 0.000911666
0 0.489832 0.00100477 0 0.489832 0.00100477 0 0.489092 0.00109755 0
0.489092 0.00109755 0 0.487543 0.00122879 0 0.487543 0.00122879 0 0.486477
0.00138096 0 0.486477 0.00138096 0 0.484294 0.00162768 0 0.484294 0.00162768
0 0.482616 0.0020012 0 0.482616 0.0020012 0 0.479368 0.00273995 0
0.479368 0.00273995 0 0.476849 0.00406802 0 0.476849 0.00406802 0 0.491316
0.00444752 0 0.491316 0.00444752 0 
