# vtk DataFile Version 2.0
symmBound
ASCII
DATASET POLYDATA
POINTS 82 float
-0.02 0 0 -0.018734 0 0 -0.018734 0 0.001 -0.02 0
0.001 -0.0175406 0 0 -0.0175406 0 0.001 -0.0164157 0 0
-0.0164157 0 0.001 -0.0153552 0 0 -0.0153552 0 0.001 -0.0143555
0 0 -0.0143555 0 0.001 -0.0134132 0 0 -0.0134132 0
0.001 -0.0125248 0 0 -0.0125248 0 0.001 -0.0116874 0 0
-0.0116874 0 0.001 -0.010898 0 0 -0.010898 0 0.001 -0.0101539
0 0 -0.0101539 0 0.001 -0.0094524 0 0 -0.0094524 0
0.001 -0.00879114 0 0 -0.00879114 0 0.001 -0.00816779 0 0
-0.00816779 0 0.001 -0.00758018 0 0 -0.00758018 0 0.001 -0.00702626
0 0 -0.00702626 0 0.001 -0.00650409 0 0 -0.00650409 0
0.001 -0.00601187 0 0 -0.00601187 0 0.001 -0.00554786 0 0
-0.00554786 0 0.001 -0.00511045 0 0 -0.00511045 0 0.001 -0.00469812
0 0 -0.00469812 0 0.001 -0.00430943 0 0 -0.00430943 0
0.001 -0.00394303 0 0 -0.00394303 0 0.001 -0.00359763 0 0
-0.00359763 0 0.001 -0.00327203 0 0 -0.00327203 0 0.001 -0.0029651
0 0 -0.0029651 0 0.001 -0.00267577 0 0 -0.00267577 0
0.001 -0.00240302 0 0 -0.00240302 0 0.001 -0.00214592 0 0
-0.00214592 0 0.001 -0.00190355 0 0 -0.00190355 0 0.001 -0.00167508
0 0 -0.00167508 0 0.001 -0.0014597 0 0 -0.0014597 0
0.001 -0.00125668 0 0 -0.00125668 0 0.001 -0.00106529 0 0
-0.00106529 0 0.001 -0.000884876 0 0 -0.000884876 0 0.001 -0.000714806
0 0 -0.000714806 0 0.001 -0.000554486 0 0 -0.000554486 0
0.001 -0.000403357 0 0 -0.000403357 0 0.001 -0.000260893 0 0
-0.000260893 0 0.001 -0.000126597 0 0 -0.000126597 0 0.001 0
0 0 0 0 0.001 
POLYGONS 40 200
4 0 1 2 3 4 1 4 5 2 4
4 6 7 5 4 6 8 9 7 4
8 10 11 9 4 10 12 13 11 4
12 14 15 13 4 14 16 17 15 4
16 18 19 17 4 18 20 21 19 4
20 22 23 21 4 22 24 25 23 4
24 26 27 25 4 26 28 29 27 4
28 30 31 29 4 30 32 33 31 4
32 34 35 33 4 34 36 37 35 4
36 38 39 37 4 38 40 41 39 4
40 42 43 41 4 42 44 45 43 4
44 46 47 45 4 46 48 49 47 4
48 50 51 49 4 50 52 53 51 4
52 54 55 53 4 54 56 57 55 4
56 58 59 57 4 58 60 61 59 4
60 62 63 61 4 62 64 65 63 4
64 66 67 65 4 66 68 69 67 4
68 70 71 69 4 70 72 73 71 4
72 74 75 73 4 74 76 77 75 4
76 78 79 77 4 78 80 81 79 
CELL_DATA 40
FIELD attributes 3
patchID 1 40 float
4 4 4 4 4 4 4 4 4 4 4
4 4 4 4 4 4 4 4 4 4
4 4 4 4 4 4 4 4 4 4
4 4 4 4 4 4 4 4 4 
p 1 40 float
0.00301537 0.00307607 0.00308722 0.00313577 0.00316549 0.00322394 0.00326944 0.00333806 0.00339587 0.00347329 0.00354715
0.00364258 0.00372244 0.00382517 0.00391644 0.00403409 0.00414681 0.00427949 0.00440626 0.00456242 0.00470868
0.00488628 0.00506173 0.00526192 0.00546442 0.00569051 0.00592546 0.00619748 0.00646523 0.00679465 0.00712784
0.00753489 0.00796716 0.0084995 0.00909558 0.00984758 0.0107347 0.0118839 0.0132579 0.0149096 
U 3 40 float
0.48421 1.90067e-05 0 0.515874 -0.000116875 0 0.484679 6.51629e-06 0 0.515015 -0.000158594
0 0.48507 0.000218253 0 0.514226 3.84398e-05 0 0.485508 0.000332283 0
0.513449 -0.000183447 0 0.485729 5.56211e-05 0 0.512531 -0.000434224 0 0.485757
8.45424e-05 0 0.511612 -0.000171234 0 0.485764 0.00051516 0 0.510884 0.000185021
0 0.485665 0.000844819 0 0.510179 0.000358081 0 0.485481 0.000846348 0
0.509538 0.000161615 0 0.485195 0.000514871 0 0.5089 -0.000338153 0 0.484568
0.000125936 0 0.508144 -0.000743159 0 0.483637 -4.19313e-05 0 0.507308 -0.000817546
0 0.482541 7.57411e-05 0 0.506434 -0.000560825 0 0.481308 0.000455995 0
0.505567 -8.13778e-05 0 0.479997 0.00092121 0 0.504678 0.000310534 0 0.47828
0.00131016 0 0.503514 0.000699542 0 0.476045 0.00170461 0 0.501997 0.00109807
0 0.473055 0.00212652 0 0.499847 0.00155155 0 0.468816 0.00270422 0
0.496495 0.00234621 0 0.462445 0.00415427 0 0.491441 0.00492391 0 
POINT_DATA  82
FIELD attributes 2
p 1 82 float
0.00301537 0.00304626 0.00304626 0.00301537 0.00308174 0.00308174 0.00311189 0.00311189 0.00315086 0.00315086 0.00319513
0.00319513 0.003247 0.003247 0.00330418 0.00330418 0.0033673 0.0033673 0.003435 0.003435 0.00351059
0.00351059 0.00359531 0.00359531 0.00368286 0.00368286 0.00377421 0.00377421 0.00387114 0.00387114 0.00397566
0.00397566 0.00409079 0.00409079 0.00421351 0.00421351 0.00434319 0.00434319 0.00448469 0.00448469 0.00463585
0.00463585 0.00479781 0.00479781 0.0049743 0.0049743 0.00516212 0.00516212 0.00536344 0.00536344 0.00557774
0.00557774 0.00580824 0.00580824 0.00606173 0.00606173 0.00633158 0.00633158 0.00663019 0.00663019 0.00696148
0.00696148 0.00733162 0.00733162 0.00775127 0.00775127 0.00823359 0.00823359 0.0087978 0.0087978 0.00947188
0.00947188 0.0102915 0.0102915 0.0113097 0.0113097 0.0125713 0.0125713 0.0140841 0.0140841 0.0149096
0.0149096 
U 3 82 float
0.48421 1.90067e-05 0 0.500323 -5.01408e-05 0 0.500323 -5.01408e-05 0 0.48421 1.90067e-05
0 0.500012 -5.41357e-05 0 0.500012 -5.41357e-05 0 0.50009 -7.73644e-05 0
0.50009 -7.73644e-05 0 0.499815 3.26917e-05 0 0.499815 3.26917e-05 0 0.499857
0.000127059 0 0.499857 0.000127059 0 0.499674 0.000187338 0 0.499674 0.000187338
0 0.499655 7.11707e-05 0 0.499655 7.11707e-05 0 0.499426 -6.25088e-05 0
0.499426 -6.25088e-05 0 0.499276 -0.000191977 0 0.499276 -0.000191977 0 0.499009
-0.000172214 0 0.499009 -0.000172214 0 0.498806 -4.45422e-05 0 0.498806 -4.45422e-05
0 0.498577 0.000174921 0 0.498577 0.000174921 0 0.498424 0.000348784 0
0.498424 0.000348784 0 0.498183 0.000517312 0 0.498183 0.000517312 0 0.498004
0.000599838 0 0.498004 0.000599838 0 0.497756 0.000603688 0 0.497756 0.000603688
0 0.497576 0.000502102 0 0.497576 0.000502102 0 0.497306 0.000339123 0
0.497306 0.000339123 0 0.497101 8.64344e-05 0 0.497101 8.64344e-05 0 0.496684
-0.000105162 0 0.496684 -0.000105162 0 0.496399 -0.000310211 0 0.496399 -0.000310211
0 0.49585 -0.000391382 0 0.49585 -0.000391382 0 0.495508 -0.000430897 0
0.495508 -0.000430897 0 0.494891 -0.000369704 0 0.494891 -0.000369704 0 0.494516
-0.000243309 0 0.494516 -0.000243309 0 0.493844 -5.13166e-05 0 0.493844 -5.13166e-05
0 0.493461 0.000186789 0 0.493461 0.000186789 0 0.49276 0.000420784 0
0.49276 0.000420784 0 0.492357 0.000615398 0 0.492357 0.000615398 0 0.491461
0.00081104 0 0.491461 0.00081104 0 0.490912 0.00100447 0 0.490912 0.00100447
0 0.489764 0.00120263 0 0.489764 0.00120263 0 0.489034 0.00140104 0
0.489034 0.00140104 0 0.487513 0.00161275 0 0.487513 0.00161275 0 0.486461
0.00183881 0 0.486461 0.00183881 0 0.48432 0.00212829 0 0.48432 0.00212829
0 0.482664 0.00252511 0 0.482664 0.00252511 0 0.479461 0.00325074 0
0.479461 0.00325074 0 0.47695 0.00453928 0 0.47695 0.00453928 0 0.491441
0.00492391 0 0.491441 0.00492391 0 
