# vtk DataFile Version 2.0
symmBound
ASCII
DATASET POLYDATA
POINTS 82 float
-0.02 0 0 -0.018734 0 0 -0.018734 0 0.001 -0.02 0
0.001 -0.0175406 0 0 -0.0175406 0 0.001 -0.0164157 0 0
-0.0164157 0 0.001 -0.0153552 0 0 -0.0153552 0 0.001 -0.0143555
0 0 -0.0143555 0 0.001 -0.0134132 0 0 -0.0134132 0
0.001 -0.0125248 0 0 -0.0125248 0 0.001 -0.0116874 0 0
-0.0116874 0 0.001 -0.010898 0 0 -0.010898 0 0.001 -0.0101539
0 0 -0.0101539 0 0.001 -0.0094524 0 0 -0.0094524 0
0.001 -0.00879114 0 0 -0.00879114 0 0.001 -0.00816779 0 0
-0.00816779 0 0.001 -0.00758018 0 0 -0.00758018 0 0.001 -0.00702626
0 0 -0.00702626 0 0.001 -0.00650409 0 0 -0.00650409 0
0.001 -0.00601187 0 0 -0.00601187 0 0.001 -0.00554786 0 0
-0.00554786 0 0.001 -0.00511045 0 0 -0.00511045 0 0.001 -0.00469812
0 0 -0.00469812 0 0.001 -0.00430943 0 0 -0.00430943 0
0.001 -0.00394303 0 0 -0.00394303 0 0.001 -0.00359763 0 0
-0.00359763 0 0.001 -0.00327203 0 0 -0.00327203 0 0.001 -0.0029651
0 0 -0.0029651 0 0.001 -0.00267577 0 0 -0.00267577 0
0.001 -0.00240302 0 0 -0.00240302 0 0.001 -0.00214592 0 0
-0.00214592 0 0.001 -0.00190355 0 0 -0.00190355 0 0.001 -0.00167508
0 0 -0.00167508 0 0.001 -0.0014597 0 0 -0.0014597 0
0.001 -0.00125668 0 0 -0.00125668 0 0.001 -0.00106529 0 0
-0.00106529 0 0.001 -0.000884876 0 0 -0.000884876 0 0.001 -0.000714806
0 0 -0.000714806 0 0.001 -0.000554486 0 0 -0.000554486 0
0.001 -0.000403357 0 0 -0.000403357 0 0.001 -0.000260893 0 0
-0.000260893 0 0.001 -0.000126597 0 0 -0.000126597 0 0.001 0
0 0 0 0 0.001 
POLYGONS 40 200
4 0 1 2 3 4 1 4 5 2 4
4 6 7 5 4 6 8 9 7 4
8 10 11 9 4 10 12 13 11 4
12 14 15 13 4 14 16 17 15 4
16 18 19 17 4 18 20 21 19 4
20 22 23 21 4 22 24 25 23 4
24 26 27 25 4 26 28 29 27 4
28 30 31 29 4 30 32 33 31 4
32 34 35 33 4 34 36 37 35 4
36 38 39 37 4 38 40 41 39 4
40 42 43 41 4 42 44 45 43 4
44 46 47 45 4 46 48 49 47 4
48 50 51 49 4 50 52 53 51 4
52 54 55 53 4 54 56 57 55 4
56 58 59 57 4 58 60 61 59 4
60 62 63 61 4 62 64 65 63 4
64 66 67 65 4 66 68 69 67 4
68 70 71 69 4 70 72 73 71 4
72 74 75 73 4 74 76 77 75 4
76 78 79 77 4 78 80 81 79 
CELL_DATA 40
FIELD attributes 3
patchID 1 40 float
4 4 4 4 4 4 4 4 4 4 4
4 4 4 4 4 4 4 4 4 4
4 4 4 4 4 4 4 4 4 4
4 4 4 4 4 4 4 4 4 
p 1 40 float
0.00442853 0.0044973 0.00449516 0.0045445 0.00456383 0.00463077 0.00466763 0.00474389 0.00479478 0.00488105 0.00494674
0.00504529 0.00512607 0.00523854 0.0053345 0.00546164 0.00557294 0.0057155 0.00584552 0.00600756 0.00615875
0.00634352 0.0065191 0.00673093 0.00693581 0.00718085 0.00742231 0.00770966 0.00799892 0.00834306 0.00869868
0.0091248 0.00958048 0.0101362 0.0107581 0.0115398 0.0124583 0.0136412 0.0150453 0.0167212 
U 3 40 float
0.484046 -6.22707e-05 0 0.516009 8.34642e-06 0 0.484548 9.5809e-06 0 0.515222 -1.54897e-05
0 0.484996 7.92455e-05 0 0.514422 -2.79212e-05 0 0.485321 0.000154408 0
0.513631 -3.22058e-05 0 0.485545 0.000231113 0 0.512853 -3.02383e-05 0 0.485661
0.000305657 0 0.512081 -2.26842e-05 0 0.485664 0.000381044 0 0.511314 -9.60158e-06
0 0.485548 0.000460709 0 0.510552 1.00991e-05 0 0.485308 0.0005459 0
0.509793 3.59949e-05 0 0.48493 0.000629212 0 0.509028 6.8621e-05 0 0.484399
0.000714432 0 0.50825 0.000109857 0 0.483696 0.000803817 0 0.507448 0.000161789
0 0.482795 0.000900066 0 0.506606 0.000227126 0 0.481662 0.00100683 0
0.505698 0.000309518 0 0.480246 0.00112924 0 0.504682 0.000414198 0 0.478467
0.00127518 0 0.503482 0.000550051 0 0.476184 0.00145943 0 0.501946 0.000737289
0 0.473137 0.00172028 0 0.499769 0.00104299 0 0.468813 0.00221232 0
0.496375 0.00179104 0 0.462353 0.00368842 0 0.491303 0.00444776 0 
POINT_DATA  82
FIELD attributes 2
p 1 82 float
0.00442853 0.00446353 0.00446353 0.00442853 0.00449621 0.00449621 0.00452023 0.00452023 0.00455431 0.00455431 0.00459778
0.00459778 0.00464945 0.00464945 0.00470624 0.00470624 0.00476963 0.00476963 0.00483839 0.00483839 0.00491423
0.00491423 0.00499647 0.00499647 0.00508603 0.00508603 0.00518275 0.00518275 0.00528686 0.00528686 0.00539849
0.00539849 0.00551763 0.00551763 0.00564461 0.00564461 0.00578084 0.00578084 0.00592691 0.00592691 0.00608346
0.00608346 0.00625147 0.00625147 0.0064316 0.0064316 0.00662533 0.00662533 0.00683365 0.00683365 0.00705862
0.00705862 0.00730184 0.00730184 0.00756626 0.00756626 0.00785454 0.00785454 0.00817126 0.00817126 0.00852112
0.00852112 0.008912 0.008912 0.00935289 0.00935289 0.00985863 0.00985863 0.0104474 0.0104474 0.0111493
0.0111493 0.0119994 0.0119994 0.0130501 0.0130501 0.0143436 0.0143436 0.0158837 0.0158837 0.0167212
0.0167212 
U 3 82 float
0.484046 -6.22707e-05 0 0.500311 -2.6335e-05 0 0.500311 -2.6335e-05 0 0.484046 -6.22707e-05
0 0.500012 8.9741e-06 0 0.500012 8.9741e-06 0 0.500131 -3.1557e-06 0
0.500131 -3.1557e-06 0 0.499879 3.25974e-05 0 0.499879 3.25974e-05 0 0.499919
2.48949e-05 0 0.499919 2.48949e-05 0 0.499676 6.44697e-05 0 0.499676 6.44697e-05
0 0.499654 5.99262e-05 0 0.499654 5.99262e-05 0 0.499423 0.000101 0
0.499423 0.000101 0 0.499348 9.90098e-05 0 0.499348 9.90098e-05 0 0.499119
0.00013941 0 0.499119 0.00013941 0 0.498995 0.000139951 0 0.498995 0.000139951
0 0.498759 0.00018092 0 0.498759 0.00018092 0 0.498591 0.000184175 0
0.498591 0.000184175 0 0.498338 0.000227259 0 0.498338 0.000227259 0 0.498132
0.000233911 0 0.498132 0.000233911 0 0.497853 0.000279617 0 0.497853 0.000279617
0 0.497618 0.000289548 0 0.497618 0.000289548 0 0.4973 0.000334081 0
0.4973 0.000334081 0 0.497034 0.000347652 0 0.497034 0.000347652 0 0.496663
0.000392843 0 0.496663 0.000392843 0 0.496368 0.000411031 0 0.496368 0.000411031
0 0.495932 0.000457988 0 0.495932 0.000457988 0 0.495607 0.000481845 0
0.495607 0.000481845 0 0.495088 0.000531918 0 0.495088 0.000531918 0 0.494729
0.000562786 0 0.494729 0.000562786 0 0.494107 0.000617819 0 0.494107 0.000617819
0 0.493704 0.000657498 0 0.493704 0.000657498 0 0.49295 0.000720091 0
0.49295 0.000720091 0 0.492483 0.000771167 0 0.492483 0.000771167 0 0.491556
0.000845283 0 0.491556 0.000845283 0 0.49099 0.000912165 0 0.49099 0.000912165
0 0.489818 0.00100524 0 0.489818 0.00100524 0 0.489078 0.001098 0
0.489078 0.001098 0 0.487529 0.00122922 0 0.487529 0.00122922 0 0.486463
0.00138137 0 0.486463 0.00138137 0 0.48428 0.00162806 0 0.48428 0.00162806
0 0.482603 0.00200155 0 0.482603 0.00200155 0 0.479355 0.00274025 0
0.479355 0.00274025 0 0.476835 0.00406828 0 0.476835 0.00406828 0 0.491303
0.00444776 0 0.491303 0.00444776 0 
