# vtk DataFile Version 2.0
symmBound
ASCII
DATASET POLYDATA
POINTS 82 float
-0.02 0 0 -0.018734 0 0 -0.018734 0 0.001 -0.02 0
0.001 -0.0175406 0 0 -0.0175406 0 0.001 -0.0164157 0 0
-0.0164157 0 0.001 -0.0153552 0 0 -0.0153552 0 0.001 -0.0143555
0 0 -0.0143555 0 0.001 -0.0134132 0 0 -0.0134132 0
0.001 -0.0125248 0 0 -0.0125248 0 0.001 -0.0116874 0 0
-0.0116874 0 0.001 -0.010898 0 0 -0.010898 0 0.001 -0.0101539
0 0 -0.0101539 0 0.001 -0.0094524 0 0 -0.0094524 0
0.001 -0.00879114 0 0 -0.00879114 0 0.001 -0.00816779 0 0
-0.00816779 0 0.001 -0.00758018 0 0 -0.00758018 0 0.001 -0.00702626
0 0 -0.00702626 0 0.001 -0.00650409 0 0 -0.00650409 0
0.001 -0.00601187 0 0 -0.00601187 0 0.001 -0.00554786 0 0
-0.00554786 0 0.001 -0.00511045 0 0 -0.00511045 0 0.001 -0.00469812
0 0 -0.00469812 0 0.001 -0.00430943 0 0 -0.00430943 0
0.001 -0.00394303 0 0 -0.00394303 0 0.001 -0.00359763 0 0
-0.00359763 0 0.001 -0.00327203 0 0 -0.00327203 0 0.001 -0.0029651
0 0 -0.0029651 0 0.001 -0.00267577 0 0 -0.00267577 0
0.001 -0.00240302 0 0 -0.00240302 0 0.001 -0.00214592 0 0
-0.00214592 0 0.001 -0.00190355 0 0 -0.00190355 0 0.001 -0.00167508
0 0 -0.00167508 0 0.001 -0.0014597 0 0 -0.0014597 0
0.001 -0.00125668 0 0 -0.00125668 0 0.001 -0.00106529 0 0
-0.00106529 0 0.001 -0.000884876 0 0 -0.000884876 0 0.001 -0.000714806
0 0 -0.000714806 0 0.001 -0.000554486 0 0 -0.000554486 0
0.001 -0.000403357 0 0 -0.000403357 0 0.001 -0.000260893 0 0
-0.000260893 0 0.001 -0.000126597 0 0 -0.000126597 0 0.001 0
0 0 0 0 0.001 
POLYGONS 40 200
4 0 1 2 3 4 1 4 5 2 4
4 6 7 5 4 6 8 9 7 4
8 10 11 9 4 10 12 13 11 4
12 14 15 13 4 14 16 17 15 4
16 18 19 17 4 18 20 21 19 4
20 22 23 21 4 22 24 25 23 4
24 26 27 25 4 26 28 29 27 4
28 30 31 29 4 30 32 33 31 4
32 34 35 33 4 34 36 37 35 4
36 38 39 37 4 38 40 41 39 4
40 42 43 41 4 42 44 45 43 4
44 46 47 45 4 46 48 49 47 4
48 50 51 49 4 50 52 53 51 4
52 54 55 53 4 54 56 57 55 4
56 58 59 57 4 58 60 61 59 4
60 62 63 61 4 62 64 65 63 4
64 66 67 65 4 66 68 69 67 4
68 70 71 69 4 70 72 73 71 4
72 74 75 73 4 74 76 77 75 4
76 78 79 77 4 78 80 81 79 
CELL_DATA 40
FIELD attributes 3
patchID 1 40 float
4 4 4 4 4 4 4 4 4 4 4
4 4 4 4 4 4 4 4 4 4
4 4 4 4 4 4 4 4 4 4
4 4 4 4 4 4 4 4 4 
p 1 40 float
0.00456522 0.00463357 0.00463073 0.00467913 0.00469732 0.00476307 0.00479877 0.00487421 0.00492397 0.00500915 0.00507386
0.00517159 0.00525171 0.00536364 0.00545928 0.00558624 0.00569726 0.00583965 0.00596954 0.00613155 0.00628274
0.00646759 0.00664326 0.00685522 0.00706024 0.00730544 0.00754707 0.00783461 0.00812404 0.00846838 0.00882419
0.00925051 0.00970638 0.0102623 0.0108844 0.0116663 0.012585 0.0137681 0.0151724 0.0168486 
U 3 40 float
0.484046 -6.27191e-05 0 0.516009 8.65385e-06 0 0.48455 8.63102e-06 0 0.515226 -1.54793e-05
0 0.485002 7.78415e-05 0 0.514431 -2.83513e-05 0 0.485333 0.000151975 0
0.513645 -3.28923e-05 0 0.485561 0.000229868 0 0.512871 -3.10966e-05 0 0.485682
0.000304269 0 0.512104 -2.3729e-05 0 0.485688 0.000379381 0 0.51134 -1.08304e-05
0 0.485574 0.000458586 0 0.510579 8.8061e-06 0 0.485335 0.000544201 0
0.509822 3.47207e-05 0 0.484959 0.000627657 0 0.509058 6.73567e-05 0 0.484428
0.000712994 0 0.508279 0.000108623 0 0.483724 0.000802491 0 0.507477 0.000160604
0 0.482824 0.000898849 0 0.506635 0.000225999 0 0.481691 0.00100571 0
0.505727 0.000308453 0 0.480274 0.00112822 0 0.504711 0.000413194 0 0.478494
0.00127424 0 0.503509 0.00054911 0 0.476211 0.00145857 0 0.501973 0.000736411
0 0.473164 0.0017195 0 0.499795 0.00104219 0 0.468839 0.00221164 0
0.496401 0.00179036 0 0.462379 0.00368789 0 0.491328 0.00444725 0 
POINT_DATA  82
FIELD attributes 2
p 1 82 float
0.00456522 0.00460001 0.00460001 0.00456522 0.00463213 0.00463213 0.00465532 0.00465532 0.00468836 0.00468836 0.00473066
0.00473066 0.00478116 0.00478116 0.00483696 0.00483696 0.00489938 0.00489938 0.00496703 0.00496703 0.00504184
0.00504184 0.00512319 0.00512319 0.005212 0.005212 0.00530812 0.00530812 0.00541181 0.00541181 0.00552318
0.00552318 0.00564208 0.00564208 0.00576884 0.00576884 0.00590492 0.00590492 0.00605091 0.00605091 0.00620746
0.00620746 0.00637551 0.00637551 0.00655572 0.00655572 0.00674956 0.00674956 0.006958 0.006958 0.00718313
0.00718313 0.00742652 0.00742652 0.00769112 0.00769112 0.00797958 0.00797958 0.00829648 0.00829648 0.00864654
0.00864654 0.00903761 0.00903761 0.0094787 0.0094787 0.00998463 0.00998463 0.0105736 0.0105736 0.0112757
0.0112757 0.012126 0.012126 0.0131769 0.0131769 0.0144706 0.0144706 0.0160109 0.0160109 0.0168486
0.0168486 
U 3 82 float
0.484046 -6.27191e-05 0 0.500312 -2.63988e-05 0 0.500312 -2.63988e-05 0 0.484046 -6.27191e-05
0 0.500014 8.64224e-06 0 0.500014 8.64224e-06 0 0.500134 -3.61769e-06 0
0.500134 -3.61769e-06 0 0.499884 3.18899e-05 0 0.499884 3.18899e-05 0 0.499927
2.39848e-05 0 0.499927 2.39848e-05 0 0.499686 6.30245e-05 0 0.499686 6.30245e-05
0 0.499667 5.83773e-05 0 0.499667 5.83773e-05 0 0.499438 0.000100032 0
0.499438 0.000100032 0 0.499365 9.79605e-05 0 0.499365 9.79605e-05 0 0.499139
0.000138284 0 0.499139 0.000138284 0 0.499016 0.000138736 0 0.499016 0.000138736
0 0.498782 0.000179563 0 0.498782 0.000179563 0 0.498615 0.000182731 0
0.498615 0.000182731 0 0.498363 0.00022558 0 0.498363 0.00022558 0 0.498159
0.000232206 0 0.498159 0.000232206 0 0.497881 0.00027812 0 0.497881 0.00027812
0 0.497646 0.000288062 0 0.497646 0.000288062 0 0.497328 0.000332666 0
0.497328 0.000332666 0 0.497063 0.000346243 0 0.497063 0.000346243 0 0.496693
0.000391492 0 0.496693 0.000391492 0 0.496398 0.000409696 0 0.496398 0.000409696
0 0.495961 0.000456708 0 0.495961 0.000456708 0 0.495636 0.000480589 0
0.495636 0.000480589 0 0.495117 0.000530717 0 0.495117 0.000530717 0 0.494758
0.000561614 0 0.494758 0.000561614 0 0.494136 0.000616698 0 0.494136 0.000616698
0 0.493732 0.000656408 0 0.493732 0.000656408 0 0.492979 0.000719048 0
0.492979 0.000719048 0 0.492511 0.000770154 0 0.492511 0.000770154 0 0.491584
0.000844313 0 0.491584 0.000844313 0 0.491017 0.000911226 0 0.491017 0.000911226
0 0.489845 0.00100434 0 0.489845 0.00100434 0 0.489105 0.00109714 0
0.489105 0.00109714 0 0.487556 0.00122839 0 0.487556 0.00122839 0 0.48649
0.00138058 0 0.48649 0.00138058 0 0.484306 0.00162732 0 0.484306 0.00162732
0 0.482629 0.00200087 0 0.482629 0.00200087 0 0.47938 0.00273965 0
0.47938 0.00273965 0 0.476861 0.00406776 0 0.476861 0.00406776 0 0.491328
0.00444725 0 0.491328 0.00444725 0 
