# vtk DataFile Version 2.0
symmBound
ASCII
DATASET POLYDATA
POINTS 82 float
-0.02 0 0 -0.018734 0 0 -0.018734 0 0.001 -0.02 0
0.001 -0.0175406 0 0 -0.0175406 0 0.001 -0.0164157 0 0
-0.0164157 0 0.001 -0.0153552 0 0 -0.0153552 0 0.001 -0.0143555
0 0 -0.0143555 0 0.001 -0.0134132 0 0 -0.0134132 0
0.001 -0.0125248 0 0 -0.0125248 0 0.001 -0.0116874 0 0
-0.0116874 0 0.001 -0.010898 0 0 -0.010898 0 0.001 -0.0101539
0 0 -0.0101539 0 0.001 -0.0094524 0 0 -0.0094524 0
0.001 -0.00879114 0 0 -0.00879114 0 0.001 -0.00816779 0 0
-0.00816779 0 0.001 -0.00758018 0 0 -0.00758018 0 0.001 -0.00702626
0 0 -0.00702626 0 0.001 -0.00650409 0 0 -0.00650409 0
0.001 -0.00601187 0 0 -0.00601187 0 0.001 -0.00554786 0 0
-0.00554786 0 0.001 -0.00511045 0 0 -0.00511045 0 0.001 -0.00469812
0 0 -0.00469812 0 0.001 -0.00430943 0 0 -0.00430943 0
0.001 -0.00394303 0 0 -0.00394303 0 0.001 -0.00359763 0 0
-0.00359763 0 0.001 -0.00327203 0 0 -0.00327203 0 0.001 -0.0029651
0 0 -0.0029651 0 0.001 -0.00267577 0 0 -0.00267577 0
0.001 -0.00240302 0 0 -0.00240302 0 0.001 -0.00214592 0 0
-0.00214592 0 0.001 -0.00190355 0 0 -0.00190355 0 0.001 -0.00167508
0 0 -0.00167508 0 0.001 -0.0014597 0 0 -0.0014597 0
0.001 -0.00125668 0 0 -0.00125668 0 0.001 -0.00106529 0 0
-0.00106529 0 0.001 -0.000884876 0 0 -0.000884876 0 0.001 -0.000714806
0 0 -0.000714806 0 0.001 -0.000554486 0 0 -0.000554486 0
0.001 -0.000403357 0 0 -0.000403357 0 0.001 -0.000260893 0 0
-0.000260893 0 0.001 -0.000126597 0 0 -0.000126597 0 0.001 0
0 0 0 0 0.001 
POLYGONS 40 200
4 0 1 2 3 4 1 4 5 2 4
4 6 7 5 4 6 8 9 7 4
8 10 11 9 4 10 12 13 11 4
12 14 15 13 4 14 16 17 15 4
16 18 19 17 4 18 20 21 19 4
20 22 23 21 4 22 24 25 23 4
24 26 27 25 4 26 28 29 27 4
28 30 31 29 4 30 32 33 31 4
32 34 35 33 4 34 36 37 35 4
36 38 39 37 4 38 40 41 39 4
40 42 43 41 4 42 44 45 43 4
44 46 47 45 4 46 48 49 47 4
48 50 51 49 4 50 52 53 51 4
52 54 55 53 4 54 56 57 55 4
56 58 59 57 4 58 60 61 59 4
60 62 63 61 4 62 64 65 63 4
64 66 67 65 4 66 68 69 67 4
68 70 71 69 4 70 72 73 71 4
72 74 75 73 4 74 76 77 75 4
76 78 79 77 4 78 80 81 79 
CELL_DATA 40
FIELD attributes 3
patchID 1 40 float
4 4 4 4 4 4 4 4 4 4 4
4 4 4 4 4 4 4 4 4 4
4 4 4 4 4 4 4 4 4 4
4 4 4 4 4 4 4 4 4 
p 1 40 float
0.00400143 0.00407231 0.00407107 0.00412172 0.00414397 0.00421185 0.00425512 0.00433812 0.00439303 0.00448477 0.00455156
0.00465316 0.00473653 0.00485306 0.00495266 0.00508168 0.00519542 0.00534014 0.00546716 0.00562827 0.0057785
0.00596196 0.00613616 0.00634644 0.00655012 0.00679341 0.00703363 0.00731943 0.00760772 0.00795052 0.00830511
0.00873003 0.00918486 0.00973979 0.0103611 0.0111424 0.0120605 0.0132432 0.0146471 0.0163226 
U 3 40 float
0.484077 -5.91993e-05 0 0.515977 2.29931e-06 0 0.484566 2.80083e-05 0 0.515185 -6.30986e-06
0 0.485017 8.70179e-05 0 0.514374 -5.24258e-05 0 0.485308 0.000133369 0
0.513543 -3.28224e-05 0 0.485501 0.000243905 0 0.512757 6.43047e-06 0 0.485619
0.000339326 0 0.512009 7.00952e-06 0 0.485631 0.000368877 0 0.511229 -4.16119e-05
0 0.485471 0.000421485 0 0.510442 -3.43271e-05 0 0.485201 0.000511906 0
0.509671 1.87587e-05 0 0.484831 0.000622937 0 0.508916 6.90624e-05 0 0.484305
0.000721442 0 0.50814 0.000120841 0 0.483606 0.000818224 0 0.507341 0.000177729
0 0.482709 0.000916537 0 0.506503 0.000242216 0 0.481581 0.00101962 0
0.505602 0.000318093 0 0.480169 0.0011339 0 0.504591 0.000412838 0 0.478393
0.00126995 0 0.503396 0.000538157 0 0.476113 0.00144486 0 0.501865 0.000716268
0 0.473067 0.00169836 0 0.499691 0.00101552 0 0.468743 0.0021865 0
0.4963 0.00176173 0 0.462283 0.00366382 0 0.491231 0.00442226 0 
POINT_DATA  82
FIELD attributes 2
p 1 82 float
0.00400143 0.0040375 0.0040375 0.00400143 0.00407168 0.00407168 0.0040968 0.0040968 0.00413302 0.00413302 0.0041784
0.0041784 0.00423378 0.00423378 0.00429714 0.00429714 0.0043659 0.0043659 0.0044394 0.0044394 0.00451851
0.00451851 0.00460284 0.00460284 0.0046952 0.0046952 0.00479526 0.00479526 0.00490322 0.00490322 0.0050176
0.0050176 0.00513889 0.00513889 0.00526817 0.00526817 0.00540397 0.00540397 0.00554808 0.00554808 0.00570369
0.00570369 0.00587057 0.00587057 0.00604935 0.00604935 0.00624161 0.00624161 0.00644855 0.00644855 0.00667206
0.00667206 0.00691378 0.00691378 0.00717681 0.00717681 0.00746383 0.00746383 0.00777938 0.00777938 0.00812806
0.00812806 0.00851783 0.00851783 0.0089577 0.0089577 0.0094626 0.0094626 0.0100507 0.0100507 0.010752
0.010752 0.0116018 0.0116018 0.0126522 0.0126522 0.0139455 0.0139455 0.0154852 0.0154852 0.0163226
0.0163226 
U 3 82 float
0.484077 -5.91993e-05 0 0.50031 -2.79039e-05 0 0.50031 -2.79039e-05 0 0.484077 -5.91993e-05
0 0.500006 1.53713e-05 0 0.500006 1.53713e-05 0 0.500122 1.05737e-05 0
0.500122 1.05737e-05 0 0.499872 4.10628e-05 0 0.499872 4.10628e-05 0 0.499906
1.62977e-05 0 0.499906 1.62977e-05 0 0.499646 4.1721e-05 0 0.499646 4.1721e-05
0 0.499603 4.92267e-05 0 0.499603 4.92267e-05 0 0.499357 0.000107167 0
0.499357 0.000107167 0 0.499278 0.000123871 0 0.499278 0.000123871 0 0.49905
0.000174564 0 0.49905 0.000174564 0 0.498937 0.000171614 0 0.498937 0.000171614
0 0.498706 0.000189503 0 0.498706 0.000189503 0 0.498532 0.000162008 0
0.498532 0.000162008 0 0.498257 0.000191615 0 0.498257 0.000191615 0 0.498039
0.000192069 0 0.498039 0.000192069 0 0.497745 0.000240438 0 0.497745 0.000240438
0 0.497503 0.000263978 0 0.497503 0.000263978 0 0.497189 0.000322353 0
0.497189 0.000322353 0 0.496928 0.00034475 0 0.496928 0.00034475 0 0.49656
0.000396583 0 0.49656 0.000396583 0 0.496266 0.000420036 0 0.496266 0.000420036
0 0.495832 0.00047069 0 0.495832 0.00047069 0 0.495509 0.00049702 0
0.495509 0.00049702 0 0.494992 0.000548124 0 0.494992 0.000548124 0 0.494635
0.000578564 0 0.494635 0.000578564 0 0.494015 0.000631758 0 0.494015 0.000631758
0 0.493615 0.000668178 0 0.493615 0.000668178 0 0.492863 0.000726706 0
0.492863 0.000726706 0 0.492399 0.000772813 0 0.492399 0.000772813 0 0.491474
0.000841988 0 0.491474 0.000841988 0 0.49091 0.000903601 0 0.49091 0.000903601
0 0.489739 0.00099201 0 0.489739 0.00099201 0 0.489002 0.00108021 0
0.489002 0.00108021 0 0.487453 0.00120775 0 0.487453 0.00120775 0 0.48639
0.00135668 0 0.48639 0.00135668 0 0.484206 0.00160142 0 0.484206 0.00160142
0 0.48253 0.00197398 0 0.48253 0.00197398 0 0.479282 0.0027133 0
0.479282 0.0027133 0 0.476764 0.00404322 0 0.476764 0.00404322 0 0.491231
0.00442226 0 0.491231 0.00442226 0 
