# vtk DataFile Version 2.0
symmBound
ASCII
DATASET POLYDATA
POINTS 82 float
-0.02 0 0 -0.018734 0 0 -0.018734 0 0.001 -0.02 0
0.001 -0.0175406 0 0 -0.0175406 0 0.001 -0.0164157 0 0
-0.0164157 0 0.001 -0.0153552 0 0 -0.0153552 0 0.001 -0.0143555
0 0 -0.0143555 0 0.001 -0.0134132 0 0 -0.0134132 0
0.001 -0.0125248 0 0 -0.0125248 0 0.001 -0.0116874 0 0
-0.0116874 0 0.001 -0.010898 0 0 -0.010898 0 0.001 -0.0101539
0 0 -0.0101539 0 0.001 -0.0094524 0 0 -0.0094524 0
0.001 -0.00879114 0 0 -0.00879114 0 0.001 -0.00816779 0 0
-0.00816779 0 0.001 -0.00758018 0 0 -0.00758018 0 0.001 -0.00702626
0 0 -0.00702626 0 0.001 -0.00650409 0 0 -0.00650409 0
0.001 -0.00601187 0 0 -0.00601187 0 0.001 -0.00554786 0 0
-0.00554786 0 0.001 -0.00511045 0 0 -0.00511045 0 0.001 -0.00469812
0 0 -0.00469812 0 0.001 -0.00430943 0 0 -0.00430943 0
0.001 -0.00394303 0 0 -0.00394303 0 0.001 -0.00359763 0 0
-0.00359763 0 0.001 -0.00327203 0 0 -0.00327203 0 0.001 -0.0029651
0 0 -0.0029651 0 0.001 -0.00267577 0 0 -0.00267577 0
0.001 -0.00240302 0 0 -0.00240302 0 0.001 -0.00214592 0 0
-0.00214592 0 0.001 -0.00190355 0 0 -0.00190355 0 0.001 -0.00167508
0 0 -0.00167508 0 0.001 -0.0014597 0 0 -0.0014597 0
0.001 -0.00125668 0 0 -0.00125668 0 0.001 -0.00106529 0 0
-0.00106529 0 0.001 -0.000884876 0 0 -0.000884876 0 0.001 -0.000714806
0 0 -0.000714806 0 0.001 -0.000554486 0 0 -0.000554486 0
0.001 -0.000403357 0 0 -0.000403357 0 0.001 -0.000260893 0 0
-0.000260893 0 0.001 -0.000126597 0 0 -0.000126597 0 0.001 0
0 0 0 0 0.001 
POLYGONS 40 200
4 0 1 2 3 4 1 4 5 2 4
4 6 7 5 4 6 8 9 7 4
8 10 11 9 4 10 12 13 11 4
12 14 15 13 4 14 16 17 15 4
16 18 19 17 4 18 20 21 19 4
20 22 23 21 4 22 24 25 23 4
24 26 27 25 4 26 28 29 27 4
28 30 31 29 4 30 32 33 31 4
32 34 35 33 4 34 36 37 35 4
36 38 39 37 4 38 40 41 39 4
40 42 43 41 4 42 44 45 43 4
44 46 47 45 4 46 48 49 47 4
48 50 51 49 4 50 52 53 51 4
52 54 55 53 4 54 56 57 55 4
56 58 59 57 4 58 60 61 59 4
60 62 63 61 4 62 64 65 63 4
64 66 67 65 4 66 68 69 67 4
68 70 71 69 4 70 72 73 71 4
72 74 75 73 4 74 76 77 75 4
76 78 79 77 4 78 80 81 79 
CELL_DATA 40
FIELD attributes 3
patchID 1 40 float
4 4 4 4 4 4 4 4 4 4 4
4 4 4 4 4 4 4 4 4 4
4 4 4 4 4 4 4 4 4 4
4 4 4 4 4 4 4 4 4 
p 1 40 float
0.00456629 0.00463463 0.00463176 0.00468012 0.00469826 0.00476397 0.00479962 0.00487502 0.00492474 0.00500989 0.00507456
0.00517226 0.00525235 0.00536426 0.00545988 0.00558683 0.00569784 0.00584023 0.00597011 0.00613212 0.0062833
0.00646815 0.00664382 0.00685579 0.00706081 0.00730601 0.00754765 0.00783519 0.00812464 0.00846898 0.0088248
0.00925112 0.009707 0.0102629 0.010885 0.011667 0.0125857 0.0137687 0.0151731 0.0168492 
U 3 40 float
0.484046 -6.27256e-05 0 0.516009 8.65502e-06 0 0.48455 8.61271e-06 0 0.515226 -1.54927e-05
0 0.485003 7.78118e-05 0 0.514431 -2.83801e-05 0 0.485334 0.000151917 0
0.513645 -3.29364e-05 0 0.485562 0.000229775 0 0.512872 -3.11513e-05 0 0.485683
0.00030418 0 0.512105 -2.3791e-05 0 0.485689 0.000379282 0 0.511341 -1.09005e-05
0 0.485575 0.000458465 0 0.51058 8.73404e-06 0 0.485336 0.000544106 0
0.509823 3.46507e-05 0 0.48496 0.000627571 0 0.509059 6.72877e-05 0 0.484429
0.000712915 0 0.50828 0.000108556 0 0.483726 0.000802419 0 0.507478 0.000160539
0 0.482825 0.000898782 0 0.506636 0.000225937 0 0.481692 0.00100565 0
0.505728 0.000308394 0 0.480275 0.00112817 0 0.504712 0.000413137 0 0.478495
0.00127419 0 0.50351 0.000549056 0 0.476212 0.00145852 0 0.501974 0.00073636
0 0.473165 0.00171945 0 0.499796 0.00104214 0 0.46884 0.0022116 0
0.496402 0.00179032 0 0.46238 0.00368786 0 0.491329 0.00444722 0 
POINT_DATA  82
FIELD attributes 2
p 1 82 float
0.00456629 0.00460107 0.00460107 0.00456629 0.00463317 0.00463317 0.00465633 0.00465633 0.00468933 0.00468933 0.00473159
0.00473159 0.00478204 0.00478204 0.0048378 0.0048378 0.00490017 0.00490017 0.00496778 0.00496778 0.00504255
0.00504255 0.00512387 0.00512387 0.00521265 0.00521265 0.00530875 0.00530875 0.00541242 0.00541242 0.00552378
0.00552378 0.00564267 0.00564267 0.00576942 0.00576942 0.00590549 0.00590549 0.00605148 0.00605148 0.00620802
0.00620802 0.00637607 0.00637607 0.00655628 0.00655628 0.00675012 0.00675012 0.00695857 0.00695857 0.00718371
0.00718371 0.00742709 0.00742709 0.0076917 0.0076917 0.00798017 0.00798017 0.00829708 0.00829708 0.00864714
0.00864714 0.00903822 0.00903822 0.00947931 0.00947931 0.00998525 0.00998525 0.0105743 0.0105743 0.0112763
0.0112763 0.0121266 0.0121266 0.0131776 0.0131776 0.0144713 0.0144713 0.0160116 0.0160116 0.0168492
0.0168492 
U 3 82 float
0.484046 -6.27256e-05 0 0.500312 -2.64014e-05 0 0.500312 -2.64014e-05 0 0.484046 -6.27256e-05
0 0.500014 8.63351e-06 0 0.500014 8.63351e-06 0 0.500134 -3.63353e-06 0
0.500134 -3.63353e-06 0 0.499885 3.18682e-05 0 0.499885 3.18682e-05 0 0.499928
2.39556e-05 0 0.499928 2.39556e-05 0 0.499687 6.29812e-05 0 0.499687 6.29812e-05
0 0.499668 5.83265e-05 0 0.499668 5.83265e-05 0 0.499438 9.99625e-05 0
0.499438 9.99625e-05 0 0.499366 9.78866e-05 0 0.499366 9.78866e-05 0 0.49914
0.000138212 0 0.49914 0.000138212 0 0.499017 0.00013866 0 0.499017 0.00013866
0 0.498783 0.000179482 0 0.498783 0.000179482 0 0.498616 0.000182646 0
0.498616 0.000182646 0 0.498364 0.000225484 0 0.498364 0.000225484 0 0.49816
0.00023211 0 0.49816 0.00023211 0 0.497882 0.000278036 0 0.497882 0.000278036
0 0.497647 0.00028798 0 0.497647 0.00028798 0 0.49733 0.000332588 0
0.49733 0.000332588 0 0.497064 0.000346165 0 0.497064 0.000346165 0 0.496694
0.000391418 0 0.496694 0.000391418 0 0.496399 0.000409623 0 0.496399 0.000409623
0 0.495962 0.000456638 0 0.495962 0.000456638 0 0.495637 0.000480521 0
0.495637 0.000480521 0 0.495118 0.000530651 0 0.495118 0.000530651 0 0.494759
0.000561549 0 0.494759 0.000561549 0 0.494137 0.000616636 0 0.494137 0.000616636
0 0.493733 0.000656347 0 0.493733 0.000656347 0 0.49298 0.00071899 0
0.49298 0.00071899 0 0.492513 0.000770097 0 0.492513 0.000770097 0 0.491585
0.000844258 0 0.491585 0.000844258 0 0.491018 0.000911172 0 0.491018 0.000911172
0 0.489846 0.00100429 0 0.489846 0.00100429 0 0.489106 0.00109709 0
0.489106 0.00109709 0 0.487557 0.00122834 0 0.487557 0.00122834 0 0.486491
0.00138053 0 0.486491 0.00138053 0 0.484307 0.00162728 0 0.484307 0.00162728
0 0.48263 0.00200083 0 0.48263 0.00200083 0 0.479381 0.00273962 0
0.479381 0.00273962 0 0.476862 0.00406773 0 0.476862 0.00406773 0 0.491329
0.00444722 0 0.491329 0.00444722 0 
