# vtk DataFile Version 2.0
symmBound
ASCII
DATASET POLYDATA
POINTS 82 float
-0.02 0 0 -0.018734 0 0 -0.018734 0 0.001 -0.02 0
0.001 -0.0175406 0 0 -0.0175406 0 0.001 -0.0164157 0 0
-0.0164157 0 0.001 -0.0153552 0 0 -0.0153552 0 0.001 -0.0143555
0 0 -0.0143555 0 0.001 -0.0134132 0 0 -0.0134132 0
0.001 -0.0125248 0 0 -0.0125248 0 0.001 -0.0116874 0 0
-0.0116874 0 0.001 -0.010898 0 0 -0.010898 0 0.001 -0.0101539
0 0 -0.0101539 0 0.001 -0.0094524 0 0 -0.0094524 0
0.001 -0.00879114 0 0 -0.00879114 0 0.001 -0.00816779 0 0
-0.00816779 0 0.001 -0.00758018 0 0 -0.00758018 0 0.001 -0.00702626
0 0 -0.00702626 0 0.001 -0.00650409 0 0 -0.00650409 0
0.001 -0.00601187 0 0 -0.00601187 0 0.001 -0.00554786 0 0
-0.00554786 0 0.001 -0.00511045 0 0 -0.00511045 0 0.001 -0.00469812
0 0 -0.00469812 0 0.001 -0.00430943 0 0 -0.00430943 0
0.001 -0.00394303 0 0 -0.00394303 0 0.001 -0.00359763 0 0
-0.00359763 0 0.001 -0.00327203 0 0 -0.00327203 0 0.001 -0.0029651
0 0 -0.0029651 0 0.001 -0.00267577 0 0 -0.00267577 0
0.001 -0.00240302 0 0 -0.00240302 0 0.001 -0.00214592 0 0
-0.00214592 0 0.001 -0.00190355 0 0 -0.00190355 0 0.001 -0.00167508
0 0 -0.00167508 0 0.001 -0.0014597 0 0 -0.0014597 0
0.001 -0.00125668 0 0 -0.00125668 0 0.001 -0.00106529 0 0
-0.00106529 0 0.001 -0.000884876 0 0 -0.000884876 0 0.001 -0.000714806
0 0 -0.000714806 0 0.001 -0.000554486 0 0 -0.000554486 0
0.001 -0.000403357 0 0 -0.000403357 0 0.001 -0.000260893 0 0
-0.000260893 0 0.001 -0.000126597 0 0 -0.000126597 0 0.001 0
0 0 0 0 0.001 
POLYGONS 40 200
4 0 1 2 3 4 1 4 5 2 4
4 6 7 5 4 6 8 9 7 4
8 10 11 9 4 10 12 13 11 4
12 14 15 13 4 14 16 17 15 4
16 18 19 17 4 18 20 21 19 4
20 22 23 21 4 22 24 25 23 4
24 26 27 25 4 26 28 29 27 4
28 30 31 29 4 30 32 33 31 4
32 34 35 33 4 34 36 37 35 4
36 38 39 37 4 38 40 41 39 4
40 42 43 41 4 42 44 45 43 4
44 46 47 45 4 46 48 49 47 4
48 50 51 49 4 50 52 53 51 4
52 54 55 53 4 54 56 57 55 4
56 58 59 57 4 58 60 61 59 4
60 62 63 61 4 62 64 65 63 4
64 66 67 65 4 66 68 69 67 4
68 70 71 69 4 70 72 73 71 4
72 74 75 73 4 74 76 77 75 4
76 78 79 77 4 78 80 81 79 
CELL_DATA 40
FIELD attributes 3
patchID 1 40 float
4 4 4 4 4 4 4 4 4 4 4
4 4 4 4 4 4 4 4 4 4
4 4 4 4 4 4 4 4 4 4
4 4 4 4 4 4 4 4 4 
p 1 40 float
0.00429237 0.00436156 0.00436012 0.0044104 0.0044309 0.00449896 0.00453708 0.00461447 0.0046666 0.00475403 0.00482075
0.00492021 0.00500173 0.00511482 0.00521117 0.00533853 0.00545012 0.00559279 0.00572287 0.00588483 0.00603589
0.00622044 0.00639575 0.00660725 0.00681178 0.00705642 0.00729749 0.00758442 0.00787326 0.00821697 0.00857217
0.00899787 0.00945314 0.0100085 0.0106299 0.0114113 0.0123294 0.0135119 0.0149157 0.0165913 
U 3 40 float
0.484046 -6.19085e-05 0 0.516008 8.11813e-06 0 0.484545 1.03736e-05 0 0.515217 -1.55304e-05
0 0.484989 8.05564e-05 0 0.514413 -2.76273e-05 0 0.48531 0.000155797 0
0.513617 -3.17112e-05 0 0.485528 0.000232088 0 0.512833 -2.95467e-05 0 0.48564
0.000306832 0 0.512058 -2.18095e-05 0 0.485639 0.000382504 0 0.511288 -8.56001e-06
0 0.485521 0.000462608 0 0.510523 1.12008e-05 0 0.485279 0.000547462 0
0.509764 3.70695e-05 0 0.484901 0.000630629 0 0.508998 6.96542e-05 0 0.48437
0.000715703 0 0.50822 0.000110812 0 0.483667 0.00080493 0 0.507419 0.000162639
0 0.482768 0.000901009 0 0.506579 0.000227852 0 0.481636 0.0010076 0
0.505673 0.000310113 0 0.480222 0.00112986 0 0.504658 0.000414665 0 0.478444
0.00127564 0 0.503459 0.000550392 0 0.476163 0.00145975 0 0.501925 0.000737508
0 0.473117 0.00172047 0 0.499749 0.00104309 0 0.468795 0.00221237 0
0.496357 0.00179099 0 0.462336 0.00368834 0 0.491286 0.00444762 0 
POINT_DATA  82
FIELD attributes 2
p 1 82 float
0.00429237 0.00432758 0.00432758 0.00429237 0.00436083 0.00436083 0.00438567 0.00438567 0.00442081 0.00442081 0.00446542
0.00446542 0.00451827 0.00451827 0.00457626 0.00457626 0.00464084 0.00464084 0.00471079 0.00471079 0.00478773
0.00478773 0.00487095 0.00487095 0.00496133 0.00496133 0.00505872 0.00505872 0.00516334 0.00516334 0.00527527
0.00527527 0.00539466 0.00539466 0.00552185 0.00552185 0.00565816 0.00565816 0.00580422 0.00580422 0.00596067
0.00596067 0.0061285 0.0061285 0.00630839 0.00630839 0.00650182 0.00650182 0.00670979 0.00670979 0.0069344
0.0069344 0.00717722 0.00717722 0.00744123 0.00744123 0.00772909 0.00772909 0.00804538 0.00804538 0.00839482
0.00839482 0.00878528 0.00878528 0.00922575 0.00922575 0.00973108 0.00973108 0.0103195 0.0103195 0.0110209
0.0110209 0.0118707 0.0118707 0.012921 0.012921 0.0142142 0.0142142 0.0157539 0.0157539 0.0165913
0.0165913 
U 3 82 float
0.484046 -6.19085e-05 0 0.500311 -2.62733e-05 0 0.500311 -2.62733e-05 0 0.484046 -6.19085e-05
0 0.500011 9.26495e-06 0 0.500011 9.26495e-06 0 0.500128 -2.78637e-06 0
0.500128 -2.78637e-06 0 0.499874 3.32428e-05 0 0.499874 3.32428e-05 0 0.499912
2.569e-05 0 0.499912 2.569e-05 0 0.499666 6.53183e-05 0 0.499666 6.53183e-05
0 0.499642 6.08621e-05 0 0.499642 6.08621e-05 0 0.499408 0.000101738 0
0.499408 0.000101738 0 0.49933 9.98413e-05 0 0.49933 9.98413e-05 0 0.499099
0.000140346 0 0.499099 0.000140346 0 0.498972 0.000140974 0 0.498972 0.000140974
0 0.498735 0.000182089 0 0.498735 0.000182089 0 0.498565 0.000185424 0
0.498565 0.000185424 0 0.498311 0.000228732 0 0.498311 0.000228732 0 0.498105
0.000235409 0 0.498105 0.000235409 0 0.497825 0.00028095 0 0.497825 0.00028095
0 0.497589 0.000290864 0 0.497589 0.000290864 0 0.497271 0.000335328 0
0.497271 0.000335328 0 0.497004 0.000348876 0 0.497004 0.000348876 0 0.496634
0.000393996 0 0.496634 0.000393996 0 0.496339 0.000412144 0 0.496339 0.000412144
0 0.495903 0.000459022 0 0.495903 0.000459022 0 0.495579 0.000482825 0
0.495579 0.000482825 0 0.49506 0.000532815 0 0.49506 0.000532815 0 0.494702
0.00056362 0 0.494702 0.00056362 0 0.494081 0.000618568 0 0.494081 0.000618568
0 0.493678 0.000658181 0 0.493678 0.000658181 0 0.492925 0.000720694 0
0.492925 0.000720694 0 0.492459 0.000771706 0 0.492459 0.000771706 0 0.491533
0.000845746 0 0.491533 0.000845746 0 0.490967 0.000912565 0 0.490967 0.000912565
0 0.489796 0.00100557 0 0.489796 0.00100557 0 0.489057 0.00109827 0
0.489057 0.00109827 0 0.487509 0.00122942 0 0.487509 0.00122942 0 0.486444
0.00138152 0 0.486444 0.00138152 0 0.484261 0.00162814 0 0.484261 0.00162814
0 0.482584 0.00200155 0 0.482584 0.00200155 0 0.479337 0.00274019 0
0.479337 0.00274019 0 0.476818 0.00406817 0 0.476818 0.00406817 0 0.491286
0.00444762 0 0.491286 0.00444762 0 
