# vtk DataFile Version 2.0
symmBound
ASCII
DATASET POLYDATA
POINTS 82 float
-0.02 0 0 -0.018734 0 0 -0.018734 0 0.001 -0.02 0
0.001 -0.0175406 0 0 -0.0175406 0 0.001 -0.0164157 0 0
-0.0164157 0 0.001 -0.0153552 0 0 -0.0153552 0 0.001 -0.0143555
0 0 -0.0143555 0 0.001 -0.0134132 0 0 -0.0134132 0
0.001 -0.0125248 0 0 -0.0125248 0 0.001 -0.0116874 0 0
-0.0116874 0 0.001 -0.010898 0 0 -0.010898 0 0.001 -0.0101539
0 0 -0.0101539 0 0.001 -0.0094524 0 0 -0.0094524 0
0.001 -0.00879114 0 0 -0.00879114 0 0.001 -0.00816779 0 0
-0.00816779 0 0.001 -0.00758018 0 0 -0.00758018 0 0.001 -0.00702626
0 0 -0.00702626 0 0.001 -0.00650409 0 0 -0.00650409 0
0.001 -0.00601187 0 0 -0.00601187 0 0.001 -0.00554786 0 0
-0.00554786 0 0.001 -0.00511045 0 0 -0.00511045 0 0.001 -0.00469812
0 0 -0.00469812 0 0.001 -0.00430943 0 0 -0.00430943 0
0.001 -0.00394303 0 0 -0.00394303 0 0.001 -0.00359763 0 0
-0.00359763 0 0.001 -0.00327203 0 0 -0.00327203 0 0.001 -0.0029651
0 0 -0.0029651 0 0.001 -0.00267577 0 0 -0.00267577 0
0.001 -0.00240302 0 0 -0.00240302 0 0.001 -0.00214592 0 0
-0.00214592 0 0.001 -0.00190355 0 0 -0.00190355 0 0.001 -0.00167508
0 0 -0.00167508 0 0.001 -0.0014597 0 0 -0.0014597 0
0.001 -0.00125668 0 0 -0.00125668 0 0.001 -0.00106529 0 0
-0.00106529 0 0.001 -0.000884876 0 0 -0.000884876 0 0.001 -0.000714806
0 0 -0.000714806 0 0.001 -0.000554486 0 0 -0.000554486 0
0.001 -0.000403357 0 0 -0.000403357 0 0.001 -0.000260893 0 0
-0.000260893 0 0.001 -0.000126597 0 0 -0.000126597 0 0.001 0
0 0 0 0 0.001 
POLYGONS 40 200
4 0 1 2 3 4 1 4 5 2 4
4 6 7 5 4 6 8 9 7 4
8 10 11 9 4 10 12 13 11 4
12 14 15 13 4 14 16 17 15 4
16 18 19 17 4 18 20 21 19 4
20 22 23 21 4 22 24 25 23 4
24 26 27 25 4 26 28 29 27 4
28 30 31 29 4 30 32 33 31 4
32 34 35 33 4 34 36 37 35 4
36 38 39 37 4 38 40 41 39 4
40 42 43 41 4 42 44 45 43 4
44 46 47 45 4 46 48 49 47 4
48 50 51 49 4 50 52 53 51 4
52 54 55 53 4 54 56 57 55 4
56 58 59 57 4 58 60 61 59 4
60 62 63 61 4 62 64 65 63 4
64 66 67 65 4 66 68 69 67 4
68 70 71 69 4 70 72 73 71 4
72 74 75 73 4 74 76 77 75 4
76 78 79 77 4 78 80 81 79 
CELL_DATA 40
FIELD attributes 3
patchID 1 40 float
4 4 4 4 4 4 4 4 4 4 4
4 4 4 4 4 4 4 4 4 4
4 4 4 4 4 4 4 4 4 4
4 4 4 4 4 4 4 4 4 
p 1 40 float
0.00456156 0.00462994 0.00462715 0.00467561 0.00469387 0.00475971 0.00479548 0.00487101 0.00492083 0.00500608 0.00507084
0.00516862 0.00524879 0.00536075 0.0054564 0.00558337 0.00569441 0.00583681 0.00596671 0.00612872 0.00627991
0.00646475 0.00664041 0.00685237 0.00705737 0.00730256 0.00754418 0.0078317 0.00812113 0.00846546 0.00882125
0.00924755 0.00970342 0.0102593 0.0108814 0.0116633 0.012582 0.013765 0.0151694 0.0168455 
U 3 40 float
0.484046 -6.27109e-05 0 0.516009 8.65575e-06 0 0.48455 8.65922e-06 0 0.515225 -1.54556e-05
0 0.485002 7.78962e-05 0 0.51443 -2.83027e-05 0 0.485332 0.000152075 0
0.513644 -3.28155e-05 0 0.48556 0.000230035 0 0.51287 -3.09997e-05 0 0.48568
0.00030443 0 0.512102 -2.3618e-05 0 0.485686 0.000379561 0 0.511338 -1.07041e-05
0 0.485572 0.000458807 0 0.510577 8.93677e-06 0 0.485333 0.000544372 0
0.50982 3.48467e-05 0 0.484957 0.000627811 0 0.509056 6.74799e-05 0 0.484426
0.000713134 0 0.508277 0.000108742 0 0.483723 0.00080262 0 0.507475 0.000160717
0 0.482822 0.000898967 0 0.506633 0.000226108 0 0.481689 0.00100582 0
0.505725 0.000308556 0 0.480272 0.00112832 0 0.504709 0.000413291 0 0.478492
0.00127433 0 0.503507 0.000549202 0 0.476209 0.00145866 0 0.501971 0.000736497
0 0.473162 0.00171958 0 0.499793 0.00104227 0 0.468837 0.0022117 0
0.496399 0.00179043 0 0.462377 0.00368795 0 0.491327 0.00444731 0 
POINT_DATA  82
FIELD attributes 2
p 1 82 float
0.00456156 0.00459636 0.00459636 0.00456156 0.00462852 0.00462852 0.00465177 0.00465177 0.00468488 0.00468488 0.00472726
0.00472726 0.00477784 0.00477784 0.00483372 0.00483372 0.00489621 0.00489621 0.00496392 0.00496392 0.00503879
0.00503879 0.00512019 0.00512019 0.00520905 0.00520905 0.00530521 0.00530521 0.00540892 0.00540892 0.0055203
0.0055203 0.00563922 0.00563922 0.005766 0.005766 0.00590208 0.00590208 0.00604808 0.00604808 0.00620462
0.00620462 0.00637267 0.00637267 0.00655288 0.00655288 0.00674671 0.00674671 0.00695514 0.00695514 0.00718026
0.00718026 0.00742363 0.00742363 0.00768822 0.00768822 0.00797667 0.00797667 0.00829356 0.00829356 0.0086436
0.0086436 0.00903467 0.00903467 0.00947574 0.00947574 0.00998165 0.00998165 0.0105706 0.0105706 0.0112727
0.0112727 0.012123 0.012123 0.0131739 0.0131739 0.0144676 0.0144676 0.0160079 0.0160079 0.0168455
0.0168455 
U 3 82 float
0.484046 -6.27109e-05 0 0.500312 -2.63938e-05 0 0.500312 -2.63938e-05 0 0.484046 -6.27109e-05
0 0.500014 8.65752e-06 0 0.500014 8.65752e-06 0 0.500134 -3.5918e-06 0
0.500134 -3.5918e-06 0 0.499884 3.19293e-05 0 0.499884 3.19293e-05 0 0.499927
2.40364e-05 0 0.499927 2.40364e-05 0 0.499686 6.30995e-05 0 0.499686 6.30995e-05
0 0.499666 5.84659e-05 0 0.499666 5.84659e-05 0 0.499437 0.000100154 0
0.499437 0.000100154 0 0.499364 9.80919e-05 0 0.499364 9.80919e-05 0 0.499138
0.000138413 0 0.499138 0.000138413 0 0.499015 0.000138871 0 0.499015 0.000138871
0 0.498781 0.000179709 0 0.498781 0.000179709 0 0.498614 0.000182884 0
0.498614 0.000182884 0 0.498362 0.000225754 0 0.498362 0.000225754 0 0.498157
0.000232382 0 0.498157 0.000232382 0 0.497879 0.000278271 0 0.497879 0.000278271
0 0.497644 0.000288211 0 0.497644 0.000288211 0 0.497327 0.000332806 0
0.497327 0.000332806 0 0.497061 0.000346381 0 0.497061 0.000346381 0 0.496691
0.000391624 0 0.496691 0.000391624 0 0.496396 0.000409826 0 0.496396 0.000409826
0 0.495959 0.000456832 0 0.495959 0.000456832 0 0.495634 0.000480711 0
0.495634 0.000480711 0 0.495115 0.000530832 0 0.495115 0.000530832 0 0.494756
0.000561727 0 0.494756 0.000561727 0 0.494134 0.000616806 0 0.494134 0.000616806
0 0.49373 0.000656513 0 0.49373 0.000656513 0 0.492977 0.000719149 0
0.492977 0.000719149 0 0.49251 0.000770253 0 0.49251 0.000770253 0 0.491582
0.000844407 0 0.491582 0.000844407 0 0.491015 0.000911318 0 0.491015 0.000911318
0 0.489843 0.00100443 0 0.489843 0.00100443 0 0.489103 0.00109722 0
0.489103 0.00109722 0 0.487554 0.00122847 0 0.487554 0.00122847 0 0.486488
0.00138066 0 0.486488 0.00138066 0 0.484305 0.00162739 0 0.484305 0.00162739
0 0.482627 0.00200094 0 0.482627 0.00200094 0 0.479379 0.00273971 0
0.479379 0.00273971 0 0.476859 0.00406781 0 0.476859 0.00406781 0 0.491327
0.00444731 0 0.491327 0.00444731 0 
