# vtk DataFile Version 2.0
symmBound
ASCII
DATASET POLYDATA
POINTS 82 float
-0.02 0 0 -0.018734 0 0 -0.018734 0 0.001 -0.02 0
0.001 -0.0175406 0 0 -0.0175406 0 0.001 -0.0164157 0 0
-0.0164157 0 0.001 -0.0153552 0 0 -0.0153552 0 0.001 -0.0143555
0 0 -0.0143555 0 0.001 -0.0134132 0 0 -0.0134132 0
0.001 -0.0125248 0 0 -0.0125248 0 0.001 -0.0116874 0 0
-0.0116874 0 0.001 -0.010898 0 0 -0.010898 0 0.001 -0.0101539
0 0 -0.0101539 0 0.001 -0.0094524 0 0 -0.0094524 0
0.001 -0.00879114 0 0 -0.00879114 0 0.001 -0.00816779 0 0
-0.00816779 0 0.001 -0.00758018 0 0 -0.00758018 0 0.001 -0.00702626
0 0 -0.00702626 0 0.001 -0.00650409 0 0 -0.00650409 0
0.001 -0.00601187 0 0 -0.00601187 0 0.001 -0.00554786 0 0
-0.00554786 0 0.001 -0.00511045 0 0 -0.00511045 0 0.001 -0.00469812
0 0 -0.00469812 0 0.001 -0.00430943 0 0 -0.00430943 0
0.001 -0.00394303 0 0 -0.00394303 0 0.001 -0.00359763 0 0
-0.00359763 0 0.001 -0.00327203 0 0 -0.00327203 0 0.001 -0.0029651
0 0 -0.0029651 0 0.001 -0.00267577 0 0 -0.00267577 0
0.001 -0.00240302 0 0 -0.00240302 0 0.001 -0.00214592 0 0
-0.00214592 0 0.001 -0.00190355 0 0 -0.00190355 0 0.001 -0.00167508
0 0 -0.00167508 0 0.001 -0.0014597 0 0 -0.0014597 0
0.001 -0.00125668 0 0 -0.00125668 0 0.001 -0.00106529 0 0
-0.00106529 0 0.001 -0.000884876 0 0 -0.000884876 0 0.001 -0.000714806
0 0 -0.000714806 0 0.001 -0.000554486 0 0 -0.000554486 0
0.001 -0.000403357 0 0 -0.000403357 0 0.001 -0.000260893 0 0
-0.000260893 0 0.001 -0.000126597 0 0 -0.000126597 0 0.001 0
0 0 0 0 0.001 
POLYGONS 40 200
4 0 1 2 3 4 1 4 5 2 4
4 6 7 5 4 6 8 9 7 4
8 10 11 9 4 10 12 13 11 4
12 14 15 13 4 14 16 17 15 4
16 18 19 17 4 18 20 21 19 4
20 22 23 21 4 22 24 25 23 4
24 26 27 25 4 26 28 29 27 4
28 30 31 29 4 30 32 33 31 4
32 34 35 33 4 34 36 37 35 4
36 38 39 37 4 38 40 41 39 4
40 42 43 41 4 42 44 45 43 4
44 46 47 45 4 46 48 49 47 4
48 50 51 49 4 50 52 53 51 4
52 54 55 53 4 54 56 57 55 4
56 58 59 57 4 58 60 61 59 4
60 62 63 61 4 62 64 65 63 4
64 66 67 65 4 66 68 69 67 4
68 70 71 69 4 70 72 73 71 4
72 74 75 73 4 74 76 77 75 4
76 78 79 77 4 78 80 81 79 
CELL_DATA 40
FIELD attributes 3
patchID 1 40 float
4 4 4 4 4 4 4 4 4 4 4
4 4 4 4 4 4 4 4 4 4
4 4 4 4 4 4 4 4 4 4
4 4 4 4 4 4 4 4 4 
p 1 40 float
0.00454942 0.00461785 0.00461515 0.00466373 0.00468214 0.00474814 0.00478407 0.00485969 0.00490967 0.00499506 0.00505996
0.00515786 0.00523811 0.00535015 0.00544585 0.00557285 0.00568393 0.00582636 0.00595628 0.00611831 0.0062695
0.00645434 0.00662999 0.00684194 0.00704693 0.0072921 0.00753371 0.00782122 0.00811063 0.00845493 0.00881071
0.00923699 0.00969284 0.0102487 0.0108708 0.0116527 0.0125713 0.0137544 0.0151587 0.0168348 
U 3 40 float
0.484046 -6.26381e-05 0 0.516009 8.60233e-06 0 0.48455 8.80443e-06 0 0.515225 -1.54606e-05
0 0.485001 7.8095e-05 0 0.514429 -2.82419e-05 0 0.485331 0.000152426 0
0.513642 -3.27236e-05 0 0.485558 0.000230174 0 0.512868 -3.08939e-05 0 0.485678
0.000304585 0 0.512099 -2.34924e-05 0 0.485683 0.000379748 0 0.511335 -1.05596e-05
0 0.485569 0.000459046 0 0.510573 9.08511e-06 0 0.48533 0.000544561 0
0.509816 3.49923e-05 0 0.484953 0.000627984 0 0.509052 6.76245e-05 0 0.484422
0.000713295 0 0.508273 0.000108884 0 0.483719 0.000802769 0 0.507471 0.000160855
0 0.482818 0.000899104 0 0.506629 0.000226239 0 0.481685 0.00100595 0
0.505721 0.000308682 0 0.480269 0.00112844 0 0.504705 0.000413411 0 0.478488
0.00127444 0 0.503504 0.000549316 0 0.476205 0.00145876 0 0.501968 0.000736606
0 0.473158 0.00171967 0 0.49979 0.00104237 0 0.468834 0.00221179 0
0.496396 0.00179052 0 0.462373 0.00368801 0 0.491323 0.00444737 0 
POINT_DATA  82
FIELD attributes 2
p 1 82 float
0.00454942 0.00458424 0.00458424 0.00454942 0.00461647 0.00461647 0.00463983 0.00463983 0.00467308 0.00467308 0.00471561
0.00471561 0.00476634 0.00476634 0.00482235 0.00482235 0.00488497 0.00488497 0.00495283 0.00495283 0.00502784
0.00502784 0.00510937 0.00510937 0.00519833 0.00519833 0.00529458 0.00529458 0.00539835 0.00539835 0.00550977
0.00550977 0.00562873 0.00562873 0.00575554 0.00575554 0.00589165 0.00589165 0.00603766 0.00603766 0.00619421
0.00619421 0.00636226 0.00636226 0.00654246 0.00654246 0.00673628 0.00673628 0.00694471 0.00694471 0.00716981
0.00716981 0.00741317 0.00741317 0.00767774 0.00767774 0.00796617 0.00796617 0.00828305 0.00828305 0.00863307
0.00863307 0.00902412 0.00902412 0.00946517 0.00946517 0.00997106 0.00997106 0.01056 0.01056 0.011262
0.011262 0.0121123 0.0121123 0.0131632 0.0131632 0.0144569 0.0144569 0.0159971 0.0159971 0.0168348
0.0168348 
U 3 82 float
0.484046 -6.26381e-05 0 0.500312 -2.63853e-05 0 0.500312 -2.63853e-05 0 0.484046 -6.26381e-05
0 0.500013 8.70509e-06 0 0.500013 8.70509e-06 0 0.500134 -3.52292e-06 0
0.500134 -3.52292e-06 0 0.499883 3.20277e-05 0 0.499883 3.20277e-05 0 0.499926
2.41653e-05 0 0.499926 2.41653e-05 0 0.499684 6.3307e-05 0 0.499684 6.3307e-05
0 0.499665 5.86853e-05 0 0.499665 5.86853e-05 0 0.499435 0.00010027 0
0.499435 0.00010027 0 0.499362 9.82141e-05 0 0.499362 9.82141e-05 0 0.499135
0.000138544 0 0.499135 0.000138544 0 0.499012 0.000139012 0 0.499012 0.000139012
0 0.498778 0.000179865 0 0.498778 0.000179865 0 0.49861 0.000183049 0
0.49861 0.000183049 0 0.498358 0.000225946 0 0.498358 0.000225946 0 0.498154
0.000232575 0 0.498154 0.000232575 0 0.497875 0.00027844 0 0.497875 0.00027844
0 0.49764 0.000288378 0 0.49764 0.000288378 0 0.497323 0.000332965 0
0.497323 0.000332965 0 0.497057 0.00034654 0 0.497057 0.00034654 0 0.496687
0.000391777 0 0.496687 0.000391777 0 0.496392 0.000409977 0 0.496392 0.000409977
0 0.495955 0.000456978 0 0.495955 0.000456978 0 0.49563 0.000480854 0
0.49563 0.000480854 0 0.495112 0.00053097 0 0.495112 0.00053097 0 0.494752
0.000561861 0 0.494752 0.000561861 0 0.49413 0.000616936 0 0.49413 0.000616936
0 0.493726 0.00065664 0 0.493726 0.00065664 0 0.492973 0.000719271 0
0.492973 0.000719271 0 0.492506 0.000770372 0 0.492506 0.000770372 0 0.491579
0.000844523 0 0.491579 0.000844523 0 0.491011 0.00091143 0 0.491011 0.00091143
0 0.489839 0.00100454 0 0.489839 0.00100454 0 0.489099 0.00109733 0
0.489099 0.00109733 0 0.48755 0.00122857 0 0.48755 0.00122857 0 0.486484
0.00138075 0 0.486484 0.00138075 0 0.484301 0.00162749 0 0.484301 0.00162749
0 0.482623 0.00200102 0 0.482623 0.00200102 0 0.479375 0.00273979 0
0.479375 0.00273979 0 0.476855 0.00406788 0 0.476855 0.00406788 0 0.491323
0.00444737 0 0.491323 0.00444737 0 
