/*--------------------------------*- C++ -*----------------------------------*\
| =========                 |                                                 |
| \\      /  F ield         | OpenFOAM: The Open Source CFD Toolbox           |
|  \\    /   O peration     | Version:  5.x                                   |
|   \\  /    A nd           | Web:      www.OpenFOAM.org                      |
|    \\/     M anipulation  |                                                 |
\*---------------------------------------------------------------------------*/
FoamFile
{
    version     2.0;
    format      ascii;
    class       volScalarField;
    location    "0.4";
    object      p;
}
// * * * * * * * * * * * * * * * * * * * * * * * * * * * * * * * * * * * * * //

dimensions      [0 2 -2 0 0 0 0];

internalField   nonuniform List<scalar> 
21600
(
0.015134835
0.0098915281
0.0044665168
0.0010784869
-6.0822715e-05
7.3488965e-05
0.00048396057
0.00078106377
0.00092804014
0.0009861959
0.0010087208
0.0010209848
0.0010307004
0.0010387831
0.00104477
0.0010484658
0.0010500631
0.0010499231
0.0010484062
0.0010458062
0.0010423426
0.0010381769
0.0010334288
0.0010281909
0.0010225362
0.0010165251
0.0010102072
0.0010036247
0.0009968126
0.00098980105
0.00098261506
0.00097527631
0.00096780282
0.00096021032
0.00095251205
0.00094471955
0.00093684279
0.00092889026
0.00092086962
0.00091278713
0.00090464875
0.00089645908
0.00088822285
0.00087994349
0.00087162469
0.0008632691
0.00085487952
0.0008464581
0.00083800684
0.00082952768
0.00082102185
0.0008124912
0.00080393625
0.00079535889
0.00078675908
0.00077813877
0.00076949747
0.00076083712
0.0007521569
0.0007434587
0.00073474162
0.00072600741
0.00071725514
0.00070848633
0.00069970012
0.00069089789
0.00068207888
0.00067324445
0.0006643937
0.00065552809
0.00064664652
0.0006377508
0.00062883956
0.00061991498
0.0006109753
0.0006020231
0.00059305642
0.00058407822
0.00057508637
0.00056608403
0.00055706905
0.00054804478
0.00053900923
0.00052996579
0.00052091263
0.00051185318
0.00050278593
0.00049371429
0.00048463715
0.00047555776
0.00046647546
0.00045739349
0.00044831165
0.00043923308
0.00043015802
0.00042108966
0.00041202853
0.00040297821
0.00039393917
0.0003849155
0.00037590773
0.00036692035
0.00035795403
0.00034901366
0.00034010005
0.00033121844
0.00032236991
0.00031355991
0.00030478991
0.00029606542
0.00028738853
0.00027876456
0.00027019638
0.00026168901
0.00025324613
0.00024487242
0.00023657235
0.00022835031
0.00022021138
0.00021215978
0.00020420106
0.00019633926
0.00018858044
0.00018092826
0.00017338944
0.00016596695
0.00015866834
0.00015149563
0.00014445729
0.00013755424
0.00013079579
0.00012418167
0.00011772202
0.00011141518
0.00010527212
9.9289604e-05
9.3479439e-05
8.7836563e-05
8.2373671e-05
7.7083605e-05
7.1980027e-05
6.7053332e-05
6.2318326e-05
5.7762629e-05
5.3402295e-05
4.9221898e-05
4.5238837e-05
4.1434385e-05
3.7827367e-05
3.439546e-05
3.1159094e-05
2.8091957e-05
2.5216341e-05
2.2501548e-05
1.9972045e-05
1.7592402e-05
1.538963e-05
1.3323255e-05
1.1423334e-05
9.6440623e-06
8.0191085e-06
6.4970767e-06
5.1159236e-06
3.8183581e-06
2.6474013e-06
1.5395234e-06
5.4368975e-07
-4.1024021e-07
-1.2663703e-06
-2.1017857e-06
-2.8524975e-06
-3.6028234e-06
-4.2792521e-06
-4.9735321e-06
-5.6009068e-06
-6.2607174e-06
-6.8549848e-06
-7.4908929e-06
-8.0552212e-06
-8.6635684e-06
-9.1856439e-06
-9.7467272e-06
-1.0198015e-05
-1.0676662e-05
-1.1014426e-05
-1.1363495e-05
-1.1535539e-05
-1.1701801e-05
-1.1652948e-05
-1.1583817e-05
-1.1262155e-05
-1.0911282e-05
-1.0272028e-05
-9.6018023e-06
-8.6070777e-06
-7.5874633e-06
-6.200884e-06
-4.8071489e-06
-2.9825452e-06
-1.2268701e-06
0.013887602
0.009697282
0.0046022227
0.0012820316
9.5324069e-05
0.0001703821
0.00054540232
0.00082124312
0.00095587954
0.0010074045
0.0010262865
0.0010362042
0.001044116
0.0010507035
0.0010554369
0.0010580814
0.0010587919
0.0010578964
0.001055729
0.0010525636
0.0010486044
0.0010440011
0.0010388642
0.0010332791
0.0010273128
0.0010210208
0.0010144485
0.0010076347
0.0010006117
0.00099340703
0.00098604379
0.00097854183
0.00097091767
0.00096318571
0.00095535808
0.00094744528
0.00093945645
0.00093139928
0.00092328079
0.00091510659
0.00090688214
0.00089861156
0.00089029915
0.00088194795
0.00087356133
0.00086514162
0.00085669133
0.00084821237
0.0008397065
0.00083117547
0.00082262029
0.00081404267
0.00080544295
0.0007968229
0.0007881823
0.00077952303
0.00077084444
0.00076214841
0.00075343399
0.00074470299
0.00073595444
0.00072718999
0.00071840868
0.00070961192
0.00070079881
0.00069197066
0.00068312668
0.00067426815
0.00066539415
0.00065650608
0.0006476028
0.0006386861
0.00062975454
0.00062081029
0.00061185155
0.00060288088
0.00059389628
0.00058490068
0.00057589194
0.00056687318
0.00055784225
0.00054880245
0.00053975179
0.00053069362
0.00052162613
0.00051255267
0.0005034718
0.00049438681
0.00048529668
0.00047620454
0.00046710984
0.00045801568
0.00044892195
0.00043983168
0.00043074522
0.00042166563
0.00041259352
0.0004035324
0.00039448277
0.00038544868
0.00037643068
0.00036743323
0.00035845701
0.00034950688
0.00034058368
0.00033169259
0.00032283475
0.00031401553
0.00030523648
0.000296503
0.0002878173
0.00027918456
0.00027060778
0.00026209185
0.00025364057
0.00024525849
0.0002369502
0.00022871997
0.00022057299
0.00021251337
0.00020454677
0.00019667711
0.00018891056
0.00018125068
0.00017370429
0.00016627424
0.0001589682
0.00015178809
0.00014474248
0.00013783217
0.0001310666
0.00012444538
0.00011797877
0.00011166498
0.00010551511
9.9525812e-05
9.3709008e-05
8.8059524e-05
8.259017e-05
7.7293677e-05
7.2183826e-05
6.7250899e-05
6.2509821e-05
5.7948097e-05
5.3581903e-05
4.9395702e-05
4.5407006e-05
4.1596987e-05
3.7984573e-05
3.4547349e-05
3.1305844e-05
2.8233657e-05
2.5353173e-05
2.2633615e-05
2.0099531e-05
1.7715421e-05
1.550837e-05
1.3437842e-05
1.1533954e-05
9.7508524e-06
8.1222512e-06
6.5967217e-06
5.2122467e-06
3.9115185e-06
2.7375673e-06
1.6268637e-06
6.2836188e-07
-3.2805896e-07
-1.1865357e-06
-2.0241127e-06
-2.7768604e-06
-3.5290331e-06
-4.2072067e-06
-4.9030441e-06
-5.5319074e-06
-6.1930273e-06
-6.7885771e-06
-7.4256037e-06
-7.9910724e-06
-8.6004152e-06
-9.1235573e-06
-9.6855799e-06
-1.013792e-05
-1.06175e-05
-1.0956333e-05
-1.1306351e-05
-1.1479474e-05
-1.1646687e-05
-1.1598874e-05
-1.1530654e-05
-1.1209903e-05
-1.0859849e-05
-1.0221255e-05
-9.5517269e-06
-8.5572433e-06
-7.5382586e-06
-6.1511838e-06
-4.7582546e-06
-2.9313215e-06
-1.1785261e-06
0.012891576
0.009535292
0.0048674928
0.0016187065
0.00032479836
0.00029392311
0.00061428614
0.00086711415
0.00098983898
0.0010335868
0.0010472274
0.0010535743
0.0010588753
0.0010634155
0.001066496
0.0010678009
0.0010674235
0.0010656369
0.0010627296
0.0010589408
0.0010544495
0.0010493869
0.00104385
0.0010379134
0.0010316362
0.0010250674
0.0010182473
0.0010112107
0.0010039863
0.00099659879
0.00098906894
0.0009814146
0.00097365063
0.00096578998
0.00095784358
0.00094982086
0.00094173006
0.00093357805
0.00092537119
0.00091711446
0.00090881281
0.00090046985
0.00089208949
0.00088367438
0.00087522757
0.00086675108
0.00085824714
0.00084971745
0.00084116351
0.00083258692
0.00082398846
0.00081536975
0.00080673087
0.00079807357
0.00078939741
0.00078070425
0.00077199324
0.00076326624
0.00075452215
0.00074576277
0.00073698699
0.00072819642
0.00071939003
0.00071056916
0.00070173288
0.00069288242
0.00068401696
0.00067513773
0.00066624377
0.00065733643
0.00064841454
0.00063947987
0.00063053092
0.00062156986
0.00061259482
0.00060360839
0.00059460847
0.00058559806
0.0005765749
0.00056754217
0.00055849763
0.00054944462
0.00054038109
0.0005313104
0.00052223072
0.00051314537
0.0005040529
0.00049495659
0.00048585542
0.00047675248
0.00046764723
0.00045854273
0.00044943891
0.00044033874
0.00043124258
0.00042215348
0.00041307204
0.00040400176
0.00039494314
0.00038590022
0.00037687351
0.00036786753
0.00035888288
0.00034992448
0.0003409931
0.00033209398
0.0003232282
0.00031440114
0.00030561437
0.00029687325
0.00028818002
0.00027953981
0.00027095569
0.00026243244
0.00025397398
0.00024558474
0.00023726942
0.00022903217
0.00022087829
0.0002128118
0.00020483842
0.00019696202
0.00018918883
0.00018152233
0.00017396943
0.00016653286
0.00015922046
0.00015203395
0.0001449821
0.00013806551
0.00013129384
0.00012466646
0.00011819389
0.00011187408
0.0001057184
9.9723214e-05
9.3900751e-05
8.8245535e-05
8.2770693e-05
7.7468625e-05
7.2353472e-05
6.7415135e-05
6.2668958e-05
5.8102004e-05
5.3730924e-05
4.9539689e-05
4.5546332e-05
4.1731491e-05
3.8114658e-05
3.4672836e-05
3.1427173e-05
2.8350623e-05
2.5466261e-05
2.2742588e-05
2.020492e-05
1.7816953e-05
1.5606623e-05
1.3532502e-05
1.1625648e-05
9.8392215e-06
8.2079718e-06
6.6793815e-06
5.2925761e-06
3.9890441e-06
2.8130785e-06
1.699817e-06
6.9961002e-07
-2.5913938e-07
-1.1190246e-06
-1.9587247e-06
-2.7126056e-06
-3.4667316e-06
-4.1457953e-06
-4.8434664e-06
-5.4730239e-06
-6.1359216e-06
-6.732026e-06
-7.3708486e-06
-7.9367915e-06
-8.5480185e-06
-9.0716014e-06
-9.6356507e-06
-1.0088417e-05
-1.0570189e-05
-1.0909414e-05
-1.1261781e-05
-1.14352e-05
-1.1604881e-05
-1.1557178e-05
-1.1491502e-05
-1.117057e-05
-1.0823116e-05
-1.0183943e-05
-9.5171059e-06
-8.5215208e-06
-7.5054526e-06
-6.1165741e-06
-4.7268185e-06
-2.8989345e-06
-1.1518917e-06
0.012043661
0.0093476375
0.0051430275
0.0019997817
0.00060967047
0.00045774903
0.00071280146
0.00093633188
0.0010418064
0.0010727836
0.0010773554
0.0010776592
0.001078912
0.0010805185
0.0010812969
0.0010807283
0.0010788104
0.0010757497
0.0010717793
0.0010670945
0.0010618405
0.0010561232
0.0010500202
0.0010435911
0.0010368826
0.0010299341
0.0010227778
0.001015442
0.0010079499
0.0010003221
0.00099257529
0.00098472443
0.00097678179
0.00096875809
0.00096066245
0.00095250268
0.0009442857
0.00093601719
0.00092770251
0.00091934572
0.00091095106
0.0009025214
0.00089406012
0.0008855693
0.00087705153
0.00086850844
0.00085994187
0.00085135322
0.00084274365
0.00083411455
0.0008254664
0.00081680067
0.00080811718
0.00079941758
0.00079070117
0.00078196977
0.0007732223
0.00076446058
0.00075568333
0.00074689231
0.00073808625
0.00072926673
0.0007204326
0.00071158515
0.00070272338
0.00069384844
0.00068495946
0.00067605762
0.00066714189
0.00065821362
0.00064927152
0.00064031741
0.00063134964
0.00062237048
0.00061337787
0.00060437453
0.00059535818
0.00058633192
0.00057729335
0.00056824574
0.00055918671
0.00055011968
0.00054104251
0.00053195857
0.000522866
0.00051376811
0.00050466343
0.00049555521
0.00048644245
0.00047732817
0.00046821189
0.00045909658
0.00044998222
0.00044087171
0.00043176547
0.00042266647
0.00041357534
0.00040449557
0.0003954276
0.00038637555
0.00037733982
0.00036832502
0.00035933165
0.00035036472
0.00034142489
0.00033251749
0.00032364351
0.00031480839
0.00030601365
0.00029726465
0.00028856367
0.00027991576
0.00027132407
0.00026279328
0.00025432742
0.0002459308
0.00023760822
0.00022936374
0.00022120273
0.00021312914
0.00020514875
0.00019726538
0.00018948531
0.00018181194
0.00017425229
0.00016680896
0.00015948994
0.00015229677
0.00014523842
0.00013831528
0.00013153724
0.00012490344
0.00011842462
0.0001120985
0.00010593672
9.9935366e-05
9.4106954e-05
8.8445705e-05
8.2965082e-05
7.7657131e-05
7.2536382e-05
6.7592324e-05
6.2840752e-05
5.8268253e-05
5.3891994e-05
4.9695411e-05
4.5697105e-05
4.1877129e-05
3.8255597e-05
3.4808867e-05
3.1558777e-05
2.8477562e-05
2.5589065e-05
2.2860981e-05
2.0319487e-05
1.7927376e-05
1.5713541e-05
1.3635549e-05
1.172552e-05
9.9354968e-06
8.3014038e-06
6.7694877e-06
5.3801712e-06
4.0735731e-06
2.8954247e-06
1.7793408e-06
7.7726888e-07
-1.8408139e-07
-1.0455322e-06
-1.8876438e-06
-2.64282e-06
-3.399215e-06
-4.0793456e-06
-4.7792054e-06
-5.4096584e-06
-6.0747409e-06
-6.6716345e-06
-7.3127209e-06
-7.8794111e-06
-8.4930549e-06
-9.0173877e-06
-9.5840586e-06
-1.0037587e-05
-1.0522201e-05
-1.0862168e-05
-1.1217576e-05
-1.1391643e-05
-1.1564524e-05
-1.1517279e-05
-1.1454928e-05
-1.1134166e-05
-1.0790166e-05
-1.0150793e-05
-9.4876201e-06
-8.4914024e-06
-7.4793359e-06
-6.0894929e-06
-4.7037203e-06
-2.8784564e-06
-1.1377343e-06
0.011272078
0.0091035417
0.0053747034
0.0023704931
0.00090689125
0.00063843362
0.0008259713
0.0010198
0.0011080895
0.0011248202
0.0011179946
0.0011102803
0.0011060991
0.0011037799
0.001101464
0.001098343
0.0010942998
0.001089469
0.0010840186
0.0010780859
0.0010717699
0.0010651406
0.0010582481
0.001051131
0.0010438195
0.0010363397
0.0010287129
0.0010209583
0.0010130921
0.0010051286
0.0009970796
0.00098895563
0.00098076538
0.00097251648
0.00096421544
0.00095586777
0.0009474785
0.00093905155
0.00093059088
0.00092209921
0.0009135797
0.0009050342
0.00089646524
0.00088787413
0.00087926279
0.00087063224
0.00086198377
0.00085331834
0.00084463663
0.00083593972
0.00082722765
0.00081850169
0.00080976126
0.00080100788
0.0007922405
0.00078346085
0.00077466754
0.00076586234
0.00075704369
0.0007482133
0.00073936971
0.00073051442
0.00072164614
0.00071276606
0.00070387309
0.00069496831
0.00068605074
0.0006771215
0.00066817948
0.00065922599
0.00065025964
0.00064128225
0.00063229203
0.00062329133
0.00061427789
0.00060525456
0.00059621883
0.00058717396
0.00057811732
0.00056905232
0.00055997642
0.0005508931
0.00054180011
0.00053270089
0.00052359346
0.00051448117
0.00050536251
0.0004962407
0.00048711474
0.0004779876
0.00046885883
0.00045973131
0.0004506051
0.00044148298
0.00043236544
0.00042325539
0.00041415345
0.00040506313
0.0003959848
0.00038692266
0.00037787697
0.00036885247
0.00035984951
0.00035087323
0.00034192413
0.00033300769
0.00032412475
0.00031528085
0.00030647743
0.00029771989
0.00028901047
0.00028035422
0.00027175432
0.00026321536
0.00025474148
0.00024633686
0.00023800642
0.0002297541
0.00022158536
0.00021350408
0.00020551609
0.00019762515
0.00018983759
0.00018215676
0.00017458974
0.00016713904
0.00015981276
0.00015261231
0.00014554682
0.00013861648
0.00013183141
0.0001251905
0.00011870475
0.00011237164
0.00010620303
0.00010019478
9.4359668e-05
8.8691638e-05
8.3204452e-05
7.7889841e-05
7.2762686e-05
6.7812099e-05
6.3054296e-05
5.8475417e-05
5.4093117e-05
4.9890324e-05
4.5886181e-05
4.2060188e-05
3.8433046e-05
3.4980509e-05
3.1725062e-05
2.8638265e-05
2.5744691e-05
2.301127e-05
2.0464999e-05
1.8067812e-05
1.5849518e-05
1.3766725e-05
1.1852568e-05
1.0058026e-05
8.4201456e-06
6.8839939e-06
5.4912368e-06
4.1806809e-06
2.9994399e-06
1.8796645e-06
8.74841e-07
-8.9953382e-08
-9.5383035e-07
-1.7991684e-06
-2.5564721e-06
-3.315921e-06
-3.9979203e-06
-4.700722e-06
-5.3328391e-06
-6.0008266e-06
-6.5992438e-06
-7.2432808e-06
-7.8114186e-06
-8.428137e-06
-8.9538907e-06
-9.5238216e-06
-9.9787653e-06
-1.0466858e-05
-1.080822e-05
-1.1167333e-05
-1.1342727e-05
-1.1519534e-05
-1.147348e-05
-1.1415287e-05
-1.1095519e-05
-1.0755964e-05
-1.0117352e-05
-9.459026e-06
-8.4633759e-06
-7.4565988e-06
-6.0676516e-06
-4.6868867e-06
-2.8684216e-06
-1.1348708e-06
0.010574117
0.0088121827
0.0055544401
0.002718303
0.0012033334
0.00082354164
0.00094138684
0.0011059174
0.0011796439
0.0011837711
0.0011655034
0.0011490574
0.0011387995
0.0011321061
0.0011263308
0.0011202981
0.0011137692
0.0011068243
0.0010995784
0.0010921136
0.0010844798
0.0010767086
0.0010688199
0.0010608291
0.0010527474
0.0010445853
0.0010363515
0.0010280548
0.0010197024
0.0010113013
0.0010028572
0.0009943753
0.00098585985
0.00097731463
0.00096874287
0.00096014723
0.00095153031
0.00094289389
0.00093424011
0.00092557
0.00091688535
0.00090818667
0.00089947544
0.00089075192
0.00088201718
0.0008732714
0.00086451521
0.00085574892
0.00084697264
0.00083818695
0.00082939139
0.00082058689
0.00081177239
0.00080294918
0.00079411578
0.00078527378
0.00077642138
0.00076756026
0.00075868851
0.00074980775
0.00074091627
0.00073201546
0.00072310383
0.00071418246
0.00070525011
0.00069630776
0.00068735431
0.00067839079
0.00066941595
0.0006604311
0.00065143465
0.00064242849
0.0006334106
0.00062438343
0.00061534448
0.00060629673
0.00059723743
0.00058816998
0.00057909151
0.00057000556
0.00056090939
0.0005518066
0.00054269476
0.00053357738
0.00052445238
0.00051532312
0.00050618804
0.00049705033
0.00048790898
0.00047876691
0.00046962369
0.00046048212
0.00045134229
0.00044220692
0.00043307651
0.00042395393
0.00041483978
0.0004057376
0.00039664764
0.00038757422
0.00037851744
0.0003694822
0.00036046862
0.00035148206
0.00034252278
0.00033359645
0.00032470372
0.00031585028
0.00030703742
0.00029827063
0.00028955209
0.00028088684
0.00027227809
0.00026373036
0.00025524786
0.00024683465
0.00023849577
0.00023023505
0.00022205801
0.00021396849
0.0002059723
0.00019807325
0.00019027761
0.00018258875
0.00017501374
0.00016755507
0.0001602209
0.00015301252
0.00014593921
0.00013900099
0.00013220814
0.0001255594
0.00011906592
0.00011272501
0.00010654872
0.00010053271
9.4689962e-05
8.9014214e-05
8.3519454e-05
7.8197168e-05
7.3062517e-05
6.8104304e-05
6.33391e-05
5.8752661e-05
5.4363066e-05
5.0152807e-05
4.6141491e-05
4.2308146e-05
3.8673979e-05
3.5214226e-05
3.1951934e-05
2.8858079e-05
2.595787e-05
2.3217575e-05
2.0664911e-05
1.826106e-05
1.6036645e-05
1.3947426e-05
1.2027445e-05
1.0226738e-05
8.5833576e-06
7.0413209e-06
5.6434088e-06
4.3272577e-06
3.1412259e-06
2.0161504e-06
1.0069102e-06
3.7109531e-08
-8.3080976e-07
-1.6808726e-06
-2.4418519e-06
-3.2057697e-06
-3.8910972e-06
-4.5981528e-06
-5.2332838e-06
-5.9053659e-06
-6.5065301e-06
-7.1545733e-06
-7.7252485e-06
-8.3459673e-06
-8.874109e-06
-9.4481212e-06
-9.9053594e-06
-1.03977e-05
-1.0741304e-05
-1.1104912e-05
-1.128252e-05
-1.1464152e-05
-1.1420297e-05
-1.1367357e-05
-1.1049789e-05
-1.0716035e-05
-1.0079687e-05
-9.4278248e-06
-8.4347286e-06
-7.4349482e-06
-6.0498698e-06
-4.6757576e-06
-2.8685453e-06
-1.1440167e-06
0.0099533732
0.0084956845
0.0056835301
0.003039578
0.00149625
0.0010112106
0.0010566196
0.0011910886
0.0012525096
0.0012462689
0.0012171638
0.0011915879
0.0011747696
0.0011634551
0.0011541302
0.0011451217
0.0011360171
0.0011268465
0.0011176863
0.001108571
0.0010995034
0.001090476
0.0010814795
0.0010725063
0.0010635497
0.0010546053
0.0010456694
0.0010367402
0.0010278164
0.0010188973
0.0010099824
0.0010010714
0.00099216398
0.00098325973
0.00097435843
0.00096545964
0.00095656333
0.00094766889
0.00093877642
0.00092988507
0.00092099506
0.00091210542
0.00090321638
0.00089432699
0.00088543737
0.00087654673
0.0008676549
0.00085876143
0.00084986575
0.00084096787
0.00083206672
0.00082316279
0.0008142545
0.00080534283
0.0007964258
0.00078750479
0.00077857754
0.00076964557
0.0007607066
0.00075176212
0.00074281009
0.00073385176
0.00072488541
0.00071591198
0.00070693004
0.00069794043
0.00068894191
0.0006799354
0.00067091949
0.00066189543
0.00065286146
0.00064381947
0.00063476721
0.00062570722
0.00061663673
0.00060755885
0.00059847056
0.00058937539
0.00058027021
0.0005711587
0.00056203789
0.00055291148
0.00054377687
0.00053463762
0.00052549152
0.00051634199
0.00050718734
0.00049803078
0.00048887124
0.0004797116
0.00047055144
0.00046139348
0.00045223783
0.00044308713
0.0004339419
0.00042480498
0.0004156769
0.00040656125
0.00039745817
0.00038837208
0.00037930289
0.00037025568
0.00036123034
0.00035223244
0.00034326198
0.00033432485
0.00032542146
0.00031655767
0.00030773462
0.00029895788
0.00029022955
0.00028155468
0.00027293649
0.00026437942
0.00025588775
0.00024746546
0.00023911762
0.00023084803
0.00022266218
0.00021456395
0.00020655908
0.00019865143
0.00019084718
0.00018314978
0.00017556624
0.00016809904
0.00016075637
0.00015353944
0.00014645762
0.00013951083
0.00013270944
0.00012605207
0.00011954998
0.00011320038
0.00010701542
0.00010099063
9.5139131e-05
8.9454516e-05
8.3950921e-05
7.8619668e-05
7.3476111e-05
6.8508833e-05
6.3734663e-05
5.9139073e-05
5.4740462e-05
5.052099e-05
4.6500623e-05
4.2658027e-05
3.9014799e-05
3.5545784e-05
3.227446e-05
2.917136e-05
2.626219e-05
2.3512704e-05
2.0951194e-05
1.8538252e-05
1.6305154e-05
1.4206995e-05
1.2278547e-05
1.0469099e-05
8.8175204e-06
7.2669916e-06
5.861205e-06
4.5368537e-06
3.3433215e-06
2.2103762e-06
1.1940536e-06
2.1674924e-07
-6.5779742e-07
-1.5149731e-06
-2.282093e-06
-3.0527164e-06
-3.7436731e-06
-4.4570246e-06
-5.097264e-06
-5.7752491e-06
-6.381014e-06
-7.0346137e-06
-7.6094258e-06
-8.2354424e-06
-8.7673381e-06
-9.3465202e-06
-9.807249e-06
-1.0304805e-05
-1.0651781e-05
-1.1020855e-05
-1.1201875e-05
-1.1389442e-05
-1.1349195e-05
-1.1302874e-05
-1.0989279e-05
-1.0663016e-05
-1.0031244e-05
-9.3878177e-06
-8.4003851e-06
-7.4096876e-06
-6.0327756e-06
-4.6677832e-06
-2.8765023e-06
-1.1635796e-06
0.0094079438
0.0081719185
0.0057635191
0.0033302439
0.0017830864
0.0012016567
0.0011721685
0.0012746516
0.0013251535
0.0013108105
0.0012718118
0.0012368375
0.0012129057
0.0011966421
0.0011836754
0.001171687
0.0011599976
0.0011485697
0.0011374543
0.0011266482
0.0011161092
0.0011057894
0.0010956478
0.0010856537
0.0010757825
0.001066015
0.0010563357
0.0010467326
0.0010371956
0.0010277171
0.0010182904
0.0010089099
0.00099957065
0.00099026852
0.00098099982
0.00097176109
0.00096254973
0.00095336276
0.00094419827
0.00093505357
0.00092592727
0.00091681692
0.00090772147
0.0008986388
0.00088956797
0.00088050725
0.0008714556
0.00086241181
0.00085337458
0.00084434329
0.00083531626
0.0008262935
0.00081727287
0.00080825499
0.00079923737
0.00079022112
0.00078120352
0.00077218588
0.00076316554
0.00075414379
0.00074511827
0.00073609006
0.00072705718
0.0007180204
0.00070897809
0.00069993094
0.00069087752
0.00068181863
0.00067275269
0.00066368086
0.00065460121
0.0006455156
0.00063642156
0.00062732166
0.00061821289
0.00060909846
0.00059997505
0.00059084633
0.0005817089
0.00057256657
0.00056341611
0.00055426135
0.00054509945
0.00053593406
0.00052676282
0.00051758918
0.00050841134
0.00049923251
0.00049005155
0.00048087132
0.00047169135
0.00046251432
0.00045334032
0.00044417194
0.00043500967
0.00042585635
0.00041671242
0.00040758152
0.00039846365
0.00038936334
0.00038028033
0.00037121985
0.00036218153
0.00035317119
0.00034418852
0.00033523967
0.00032632476
0.00031744987
0.00030861592
0.0002998286
0.00029108989
0.00028240489
0.00027377676
0.00026520992
0.00025670867
0.00024827692
0.00023991975
0.00023164094
0.00022344595
0.00021533868
0.00020732476
0.00019940817
0.00019159494
0.00018388862
0.0001762961
0.00016881994
0.00016146824
0.00015424224
0.00014715129
0.00014019527
0.00013338459
0.0001267178
0.00012020621
0.00011384697
0.00010765225
0.00010161756
9.575603e-05
9.0061217e-05
8.4547301e-05
7.9205533e-05
7.4051357e-05
6.9073237e-05
6.4288153e-05
5.9681396e-05
5.5271577e-05
5.1040634e-05
4.7008774e-05
4.3154432e-05
3.9499455e-05
3.6018443e-05
3.2735157e-05
2.9619848e-05
2.6698559e-05
2.3936708e-05
2.1362986e-05
1.893759e-05
1.6692264e-05
1.4581648e-05
1.2641043e-05
1.0819226e-05
9.1556586e-06
7.5929423e-06
6.175436e-06
4.8391735e-06
3.6342944e-06
2.4898051e-06
1.462605e-06
4.7421778e-07
-4.1063925e-07
-1.2783497e-06
-2.0551183e-06
-2.8356464e-06
-3.5354968e-06
-4.258051e-06
-4.9063543e-06
-5.5927969e-06
-6.2057592e-06
-6.8670795e-06
-7.4482467e-06
-8.081339e-06
-8.6188624e-06
-9.2046658e-06
-9.6705089e-06
-1.0174525e-05
-1.0526403e-05
-1.0902144e-05
-1.1088213e-05
-1.1283045e-05
-1.1248374e-05
-1.1210278e-05
-1.0903188e-05
-1.0586356e-05
-9.9625024e-06
-9.3297567e-06
-8.3523845e-06
-7.3733107e-06
-6.0101306e-06
-4.6577159e-06
-2.8875155e-06
-1.1894504e-06
0.0089299249
0.0078537117
0.0057972989
0.0035859756
0.0020600055
0.0013949191
0.0012892037
0.0013567262
0.0013966625
0.0013763414
0.0013288031
0.0012844509
0.0012528666
0.0012312232
0.0012144471
0.0011994541
0.0011851756
0.0011714651
0.0011583551
0.0011458204
0.0011337799
0.0011221442
0.0011108382
0.0010998055
0.0010890026
0.0010783958
0.0010679571
0.0010576642
0.0010474984
0.0010374447
0.00102749
0.0010176236
0.001007836
0.00099811915
0.00098846601
0.00097887018
0.00096932648
0.00095982963
0.00095037578
0.00094096042
0.00093158062
0.00092223249
0.00091291376
0.00090362113
0.00089435269
0.00088510573
0.00087587843
0.00086666879
0.00085747482
0.00084829529
0.00083912792
0.00082997221
0.00082082552
0.00081168806
0.00080255689
0.00079343277
0.00078431262
0.00077519745
0.00076608425
0.00075697412
0.00074786435
0.00073875588
0.00072964641
0.00072053659
0.00071142455
0.00070231083
0.00069319382
0.00068407416
0.00067495012
0.00066582276
0.00065668997
0.00064755357
0.00063841087
0.00062926446
0.00062011107
0.00061095402
0.0006017897
0.00059262189
0.00058344691
0.00057426868
0.00056508375
0.00055589603
0.00054670246
0.00053750679
0.00052830645
0.00051910496
0.0005099004
0.00050069596
0.00049149043
0.00048228663
0.00047308408
0.00046388536
0.00045469058
0.00044550224
0.00043632082
0.00042714912
0.00041798753
0.0004088397
0.00039970552
0.0003905896
0.00038149149
0.00037241659
0.00036336425
0.00035434054
0.00034534485
0.00033638356
0.00032745652
0.00031856997
0.00030972466
0.00030092637
0.00029217697
0.00028348157
0.00027484329
0.00026626653
0.00025775557
0.00024931427
0.00024094771
0.00023265964
0.00022445545
0.00021633911
0.0002083161
0.00020039052
0.00019256822
0.00018485287
0.00017725122
0.00016976589
0.00016240491
0.00015516951
0.00014806904
0.00014110333
0.00013428278
0.00012760593
0.00012108406
0.0001147143
0.00010850883
0.00010246312
9.6590299e-05
9.0883908e-05
8.5358117e-05
8.0004161e-05
7.4837504e-05
6.9846556e-05
6.5048369e-05
6.0428134e-05
5.600458e-05
5.1759522e-05
4.7713299e-05
4.3844224e-05
4.0174284e-05
3.6677955e-05
3.3379153e-05
3.024799e-05
2.7310703e-05
2.4532537e-05
2.1942424e-05
1.9500351e-05
1.7238353e-05
1.5110825e-05
1.3153403e-05
1.1314586e-05
9.6342094e-06
8.0545576e-06
6.6204131e-06
5.2674424e-06
4.0462727e-06
2.88547e-06
1.8424964e-06
8.3836126e-07
-6.1572703e-08
-9.4428906e-07
-1.7352537e-06
-2.5298735e-06
-3.2428568e-06
-3.9784224e-06
-4.638632e-06
-5.3368793e-06
-5.9604221e-06
-6.6322981e-06
-7.2227218e-06
-7.8652103e-06
-8.4108274e-06
-9.0051267e-06
-9.4782413e-06
-9.990285e-06
-1.0349119e-05
-1.0732975e-05
-1.092631e-05
-1.1129938e-05
-1.110352e-05
-1.1075424e-05
-1.0778274e-05
-1.0472993e-05
-9.861504e-06
-9.2419603e-06
-8.2802722e-06
-7.3159499e-06
-5.9731865e-06
-4.6377389e-06
-2.894798e-06
-1.2155502e-06
0.0085087534
0.0075496645
0.0057907635
0.0038037451
0.002322914
0.0015905225
0.0014090481
0.0014379117
0.0014664623
0.0014419026
0.0013875643
0.0013342801
0.0012946397
0.001267122
0.001246279
0.0012282161
0.0012113403
0.001195323
0.0011801723
0.001165858
0.0011522723
0.0011392868
0.0011267897
0.0011146963
0.0011029427
0.0010914796
0.0010802666
0.0010692709
0.0010584646
0.001047825
0.0010373328
0.0010269715
0.0010167271
0.0010065874
0.00099654195
0.00098658127
0.00097669759
0.00096688329
0.0009571325
0.00094743887
0.00093779794
0.00092820434
0.00091865461
0.00090914424
0.00089967036
0.00089022932
0.0008808185
0.0008714351
0.00086207652
0.00085274085
0.00084342529
0.0008341288
0.00082484829
0.00081558352
0.00080633116
0.00079709162
0.00078786143
0.00077864136
0.00076942807
0.0007602224
0.0007510214
0.00074182576
0.00073263298
0.00072344352
0.00071425531
0.00070506873
0.00069588198
0.00068669558
0.00067750763
0.00066831909
0.00065912768
0.00064993516
0.00064073866
0.00063154074
0.00062233796
0.00061313362
0.00060392395
0.00059471272
0.00058549608
0.00057627799
0.00056705482
0.0005578305
0.00054860183
0.00053937256
0.00053014002
0.00052090772
0.00051167364
0.00050244095
0.00049320838
0.00048397869
0.00047475137
0.00046552895
0.00045631151
0.00044710149
0.00043789935
0.00042870783
0.00041952729
0.00041036135
0.00040120983
0.00039207736
0.00038296338
0.00037387336
0.00036480647
0.00035576893
0.00034675988
0.00033778588
0.00032884655
0.00031994829
0.00031109163
0.00030228245
0.00029352251
0.00028481693
0.00027616878
0.00026758241
0.00025906211
0.00025061165
0.00024223612
0.00023393921
0.00022572628
0.00021760129
0.00020956964
0.00020163547
0.00019380448
0.00018608044
0.00017846996
0.00017097569
0.0001636056
0.00015636091
0.00014925091
0.00014227541
0.0001354448
0.00012875757
0.00012222498
0.00011584414
0.00010962718
0.00010356958
9.7684417e-05
9.1965236e-05
8.6426176e-05
8.1058456e-05
7.5877541e-05
7.08718e-05
6.6058329e-05
6.1422244e-05
5.6982351e-05
5.2720381e-05
4.8656756e-05
4.4769722e-05
4.1081343e-05
3.756604e-05
3.4247812e-05
3.109672e-05
2.8139105e-05
2.534015e-05
2.2728924e-05
2.026534e-05
1.7981599e-05
1.5832011e-05
1.3852403e-05
1.1991187e-05
1.0288403e-05
8.6862433e-06
7.2297114e-06
5.854364e-06
4.6110849e-06
3.428302e-06
2.3637645e-06
1.3383138e-06
4.1763561e-07
-4.854481e-07
-1.29604e-06
-2.1097869e-06
-2.8409908e-06
-3.5941649e-06
-4.2709231e-06
-4.9850279e-06
-5.6232721e-06
-6.3091468e-06
-6.912409e-06
-7.5671165e-06
-8.1239251e-06
-8.7289904e-06
-9.2121442e-06
-9.7340788e-06
-1.010255e-05
-1.0496179e-05
-1.0699686e-05
-1.0913787e-05
-1.0899095e-05
-1.0882891e-05
-1.0600031e-05
-1.0308576e-05
-9.7149125e-06
-9.1114093e-06
-8.1720598e-06
-7.2262335e-06
-5.9115774e-06
-4.5981473e-06
-2.8901642e-06
-1.2344336e-06
0.0081338131
0.0072648159
0.0057521282
0.0039825855
0.0025679768
0.0017871707
0.0015328144
0.0015191961
0.0015343512
0.001506638
0.0014474548
0.0013861615
0.0013383104
0.0013044182
0.0012791603
0.001257904
0.0012384133
0.0012200748
0.0012028423
0.0011866921
0.0011715067
0.0011571262
0.0011434018
0.0011302179
0.0011174877
0.0011051453
0.0010931374
0.0010814206
0.0010699578
0.0010587184
0.0010476761
0.0010368089
0.0010260979
0.0010155265
0.0010050808
0.00099474811
0.0009845179
0.00097438011
0.0009643268
0.0009543497
0.00094444274
0.00093459904
0.00092481386
0.00091508148
0.00090539804
0.00089575887
0.00088616059
0.00087659955
0.00086707253
0.00085757692
0.0008481094
0.00083866837
0.0008292503
0.00081985449
0.00081047725
0.00080111856
0.00079177468
0.00078244602
0.00077312898
0.00076382414
0.0007545283
0.00074524191
0.00073596228
0.00072668965
0.0007174218
0.00070815892
0.00069889908
0.0006896426
0.00068038748
0.00067113453
0.0006618814
0.00065262968
0.00064337641
0.00063412405
0.00062486907
0.00061561469
0.00060635703
0.00059709981
0.00058783907
0.00057857872
0.00056931506
0.00056005197
0.00055078616
0.00054152133
0.00053225477
0.00052298991
0.00051372471
0.00050446224
0.00049520124
0.00048594437
0.00047669115
0.00046744396
0.00045820295
0.00044897039
0.00043974685
0.00043053489
0.00042133495