/*--------------------------------*- C++ -*----------------------------------*\
| =========                 |                                                 |
| \\      /  F ield         | OpenFOAM: The Open Source CFD Toolbox           |
|  \\    /   O peration     | Version:  5.x                                   |
|   \\  /    A nd           | Web:      www.OpenFOAM.org                      |
|    \\/     M anipulation  |                                                 |
\*---------------------------------------------------------------------------*/
FoamFile
{
    version     2.0;
    format      ascii;
    class       surfaceScalarField;
    location    "0.4";
    object      phi;
}
// * * * * * * * * * * * * * * * * * * * * * * * * * * * * * * * * * * * * * //

dimensions      [0 3 -1 0 0 0 0];

internalField   nonuniform List<scalar> 
42870
(
2.9771035e-08
9.9456144e-09
-3.9716649e-08
2.0561468e-08
9.2095668e-09
1.4207622e-08
6.3538466e-09
1.0639838e-08
3.5677836e-09
8.8231835e-09
1.8166545e-09
7.8255372e-09
9.9764628e-10
7.1959726e-09
6.295646e-10
6.7345963e-09
4.6137624e-10
6.3580145e-09
3.7658183e-10
6.0347464e-09
3.2326809e-10
5.752889e-09
2.8185745e-10
5.5060781e-09
2.4681086e-10
5.2888807e-09
2.1719737e-10
5.0962874e-09
1.925933e-10
4.9240085e-09
1.7227893e-10
4.7685996e-09
1.5540895e-10
4.627376e-09
1.4122357e-10
4.4982468e-09
1.2912924e-10
4.3795549e-09
1.1869184e-10
4.2699595e-09
1.095954e-10
4.1683537e-09
1.0160586e-10
4.0738113e-09
9.4542349e-11
3.985549e-09
8.8262273e-11
3.9028996e-09
8.2649434e-11
3.8252902e-09
7.7609353e-11
3.7522274e-09
7.3062866e-11
3.6832823e-09
6.8945036e-11
3.6180818e-09
6.5200539e-11
3.556298e-09
6.1783813e-11
3.4976427e-09
5.8655325e-11
3.4418603e-09
5.5782401e-11
3.3887241e-09
5.3136156e-11
3.3380315e-09
5.0692604e-11
3.2896013e-09
4.8430206e-11
3.2432704e-09
4.6330918e-11
3.198892e-09
4.4378425e-11
3.1563331e-09
4.2558842e-11
3.1154734e-09
4.0859708e-11
3.0762033e-09
3.9270072e-11
3.038423e-09
3.7780364e-11
3.0020412e-09
3.6381752e-11
2.9669744e-09
3.5066848e-11
2.933146e-09
3.3828403e-11
2.9004853e-09
3.2660675e-11
2.8689276e-09
3.1557679e-11
2.8384127e-09
3.0514874e-11
2.8088854e-09
2.952734e-11
2.7802941e-09
2.8591329e-11
2.7525912e-09
2.7702883e-11
2.7257325e-09
2.685872e-11
2.6996766e-09
2.6055842e-11
2.6743854e-09
2.5291182e-11
2.6498228e-09
2.4562676e-11
2.6259555e-09
2.3867238e-11
2.6027519e-09
2.3203667e-11
2.5801831e-09
2.2568755e-11
2.558221e-09
2.1962109e-11
2.5368406e-09
2.1380427e-11
2.5160166e-09
2.0823956e-11
2.4957273e-09
2.0289324e-11
2.4759501e-09
1.9777189e-11
2.4566659e-09
1.9284247e-11
2.4378544e-09
1.8811416e-11
2.4194988e-09
1.8355615e-11
2.401581e-09
1.7917829e-11
2.3840858e-09
1.7495196e-11
2.3669971e-09
1.7088693e-11
2.3503014e-09
1.6695683e-11
2.3339842e-09
1.6317247e-11
2.3180334e-09
1.5950829e-11
2.3024357e-09
1.5597697e-11
2.2871805e-09
1.5255133e-11
2.2722557e-09
1.4924793e-11
2.2576521e-09
1.4603678e-11
2.2433581e-09
1.4293983e-11
2.2293658e-09
1.3992258e-11
2.2156646e-09
1.3701235e-11
2.2022476e-09
1.3417016e-11
2.1891047e-09
1.3142878e-11
2.1762301e-09
1.2874577e-11
2.1636143e-09
1.2615769e-11
2.1512524e-09
1.2361941e-11
2.1391354e-09
1.211698e-11
2.1272591e-09
1.1876317e-11
2.1156151e-09
1.1643955e-11
2.1041998e-09
1.1415335e-11
2.0930054e-09
1.1194389e-11
2.0820287e-09
1.0976736e-11
2.0712625e-09
1.0766149e-11
2.060704e-09
1.0558535e-11
2.0503466e-09
1.03574e-11
2.0401877e-09
1.0158958e-11
2.0302213e-09
9.9663611e-12
2.020445e-09
9.7763053e-12
2.0108534e-09
9.5915684e-12
2.0014443e-09
9.4091024e-12
1.9922127e-09
9.2315911e-12
1.9831567e-09
9.056015e-12
1.9742716e-09
8.8850908e-12
1.9655558e-09
8.7158107e-12
1.9570048e-09
8.5509805e-12
1.9486175e-09
8.3873614e-12
1.9403893e-09
8.228142e-12
1.9323196e-09
8.0697124e-12
1.924404e-09
7.9156074e-12
1.9166421e-09
7.7619392e-12
1.9090296e-09
7.6124993e-12
1.9015663e-09
7.463245e-12
1.8942483e-09
7.3180242e-12
1.8870754e-09
7.172893e-12
1.8800439e-09
7.0314815e-12
1.8731537e-09
6.8902007e-12
1.8664015e-09
6.7522534e-12
1.8597869e-09
6.6145927e-12
1.8533071e-09
6.4797929e-12
1.8469616e-09
6.3455281e-12
1.8407479e-09
6.2136553e-12
1.8346654e-09
6.0825462e-12
1.8287119e-09
5.9534189e-12
1.8228867e-09
5.8252566e-12
1.8171879e-09
5.6987479e-12
1.8116146e-09
5.5733589e-12
1.8061652e-09
5.4493302e-12
1.8008386e-09
5.3266189e-12
1.7956337e-09
5.2049151e-12
1.7905489e-09
5.0848596e-12
1.7855835e-09
4.9653395e-12
1.7807356e-09
4.8479417e-12
1.7760051e-09
4.7305091e-12
1.7713893e-09
4.615792e-12
1.7668889e-09
4.5003951e-12
1.7625005e-09
4.3883723e-12
1.7582255e-09
4.2750116e-12
1.7540598e-09
4.1657433e-12
1.7500053e-09
4.0544234e-12
1.7460573e-09
3.9479962e-12
1.7422186e-09
3.8387597e-12
1.7384833e-09
3.7352978e-12
1.7348551e-09
3.6281958e-12
1.7313272e-09
3.5278682e-12
1.7279042e-09
3.4229681e-12
1.7245782e-09
3.3259906e-12
1.7213549e-09
3.2233671e-12
1.7182249e-09
3.1299796e-12
1.7151952e-09
3.0297242e-12
1.712255e-09
2.9401807e-12
1.7094126e-09
2.842413e-12
1.7066556e-09
2.7569562e-12
1.7039938e-09
2.6618164e-12
1.7014131e-09
2.5807341e-12
1.6989247e-09
2.488345e-12
1.6965128e-09
2.411956e-12
1.6941903e-09
2.3224666e-12
1.6919392e-09
2.2511267e-12
1.6897745e-09
2.1646702e-12
1.6876757e-09
2.0987665e-12
1.6856603e-09
2.0154903e-12
1.6837048e-09
1.9554073e-12
1.6818294e-09
1.8754321e-12
1.6800079e-09
1.8215506e-12
1.6782629e-09
1.7449649e-12
1.6765653e-09
1.697644e-12
1.6749408e-09
1.6244731e-12
1.6733567e-09
1.5840612e-12
1.6718424e-09
1.5142803e-12
1.6703613e-09
1.4811055e-12
1.6689467e-09
1.414635e-12
1.6675577e-09
1.3890335e-12
1.6662319e-09
1.3257577e-12
1.6649238e-09
1.3080556e-12
1.663676e-09
1.247808e-12
1.6624377e-09
1.2383282e-12
1.6612569e-09
1.1808394e-12
1.660077e-09
1.1798287e-12
1.6589524e-09
1.1246549e-12
1.6578202e-09
1.1321982e-12
1.6567416e-09
1.0786101e-12
1.655647e-09
1.0945296e-12
1.6546056e-09
1.0414398e-12
1.6535403e-09
1.0652703e-12
1.6525291e-09
1.0112077e-12
1.6514869e-09
1.0422582e-12
1.6505013e-09
9.8553383e-13
1.6494783e-09
1.0230718e-12
1.6485163e-09
9.619902e-13
1.6475107e-09
1.0055855e-12
1.6465719e-09
9.387561e-13
1.6455834e-09
9.8854922e-13
1.6446682e-09
9.1516528e-13
1.6436961e-09
9.7213329e-13
1.6428041e-09
8.9202899e-13
1.641846e-09
9.5804348e-13
1.6409744e-09
8.7165608e-13
1.640025e-09
9.4935556e-13
1.6391676e-09
8.5738175e-13
1.6382176e-09
9.5003177e-13
1.6373649e-09
8.5270123e-13
1.6364018e-09
9.6306201e-13
1.635547e-09
8.5481733e-13
1.0601266e-12
4.1945029e-08
1.046564e-08
-4.2465054e-08
3.8698848e-08
1.2455748e-08
3.4616269e-08
1.0436426e-08
3.0800325e-08
7.3837275e-09
2.7652477e-08
4.9645026e-09
2.5119193e-08
3.5309307e-09
2.3095054e-08
2.6537033e-09
2.1481261e-08
2.0751691e-09
2.0181119e-08
1.6767235e-09
1.9108548e-08
1.3958391e-09
1.8200358e-08
1.1900479e-09
1.7415235e-08
1.0319338e-09
1.6726286e-08
9.061463e-10
1.6114993e-08
8.038866e-10
1.5567715e-08
7.1955697e-10
1.5073946e-08
6.4917732e-10
1.462542e-08
5.8974978e-10
1.4215551e-08
5.3899811e-10
1.3839035e-08
4.9520807e-10
1.3491546e-08
4.5708393e-10
1.3169515e-08
4.2363718e-10
1.2869961e-08
3.9409599e-10
1.2590374e-08
3.6784972e-10
1.2328619e-08
3.4440432e-10
1.208287e-08
3.2335868e-10
1.1851553e-08
3.0438e-10
1.1633303e-08
2.871945e-10
1.1426933e-08
2.71571e-10
1.1231399e-08
2.5731767e-10
1.1045784e-08
2.4426976e-10
1.0869277e-08
2.3228957e-10
1.0701156e-08
2.212569e-10
1.0540778e-08
2.1107058e-10
1.0387568e-08
2.0164103e-10
1.0241006e-08
1.9289228e-10
1.0100628e-08
1.8475641e-10
9.966012e-09
1.7717519e-10
9.8367752e-09
1.7009648e-10
9.7125706e-09
1.6347473e-10
9.5930814e-09
1.5726954e-10
9.4780186e-09
1.5144458e-10
9.3671171e-09
1.459683e-10
9.2601343e-09
1.4081127e-10
9.1568463e-09
1.3594862e-10
9.0570477e-09
1.3135629e-10
8.9605481e-09
1.2701441e-10
8.8671722e-09
1.2290325e-10
8.7767571e-09
1.1900652e-10
8.6891518e-09
1.1530816e-10
8.6042161e-09
1.1179438e-10
8.5218195e-09
1.0845245e-10
8.4418406e-09
1.0527014e-10
8.3641654e-09
1.022378e-10
8.2886886e-09
9.934404e-11
8.2153103e-09
9.6581982e-11
8.1439385e-09
9.3940595e-11
8.074485e-09
9.1415546e-11
8.0068694e-09
8.8996032e-11
7.9410136e-09
8.6679804e-11
7.8768467e-09
8.4456251e-11
7.8142992e-09
8.2324634e-11
7.7533087e-09
8.0274753e-11
7.6938132e-09
7.8306924e-11
7.6357572e-09
7.6411617e-11
7.5790853e-09
7.4589714e-11
7.5237481e-09
7.2832382e-11
7.469696e-09
7.1140819e-11
7.4168848e-09
6.9506866e-11
7.3652699e-09
6.7932167e-11
7.3148118e-09
6.6408916e-11
7.2654701e-09
6.4939374e-11
7.2172097e-09
6.351556e-11
7.1699937e-09
6.214076e-11
7.123791e-09
6.0806457e-11
7.0785676e-09
5.9517304e-11
7.0342961e-09
5.8263842e-11
6.9909451e-09
5.7052151e-11
6.9484904e-09
5.5871756e-11
6.9069031e-09
5.4730174e-11
6.8661616e-09
5.3616073e-11
6.8262393e-09
5.2538078e-11
6.7871171e-09
5.1484185e-11
6.7487703e-09
5.0463793e-11
6.7111819e-09
4.9464636e-11
6.6743293e-09
4.8496578e-11
6.6381973e-09
4.7547319e-11
6.6027649e-09
4.6626775e-11
6.5680187e-09
4.5722947e-11
6.5339393e-09
4.484556e-11
6.5005147e-09
4.39832e-11
6.467727e-09
4.3145101e-11
6.4355653e-09
4.2320577e-11
6.4040136e-09
4.151815e-11
6.3730617e-09
4.0728123e-11
6.342695e-09
3.995832e-11
6.3129044e-09
3.9199657e-11
6.2836763e-09
3.8459671e-11
6.2550029e-09
3.7729524e-11
6.2268712e-09
3.7016774e-11
6.1992744e-09
3.6312567e-11
6.1722006e-09
3.5624847e-11
6.1456438e-09
3.4944143e-11
6.1195926e-09
3.4279345e-11
6.0940422e-09
3.36201e-11
6.0689816e-09
3.2976237e-11
6.0444069e-09
3.2336615e-11
6.0203075e-09
3.1711858e-11
5.9966805e-09
3.1090301e-11
5.9735156e-09
3.0482916e-11
5.9508104e-09
2.9878066e-11
5.9285554e-09
2.928649e-11
5.9067485e-09
2.8697132e-11
5.8853807e-09
2.8119991e-11
5.8644502e-09
2.7545081e-11
5.8439489e-09
2.6981167e-11
5.8238747e-09
2.6419739e-11
5.8042202e-09
2.5868103e-11
5.7849835e-09
2.5319249e-11
5.7661578e-09
2.4779128e-11
5.747741e-09
2.4242051e-11
5.7297269e-09
2.3712872e-11
5.7121133e-09
2.3186922e-11
5.6948945e-09
2.2668168e-11
5.6780682e-09
2.2152937e-11
5.661629e-09
2.1644123e-11
5.6455744e-09
2.1139431e-11
5.6298996e-09
2.0640166e-11
5.6146015e-09
2.0145976e-11
5.599676e-09
1.9656017e-11
5.5851194e-09
1.9172395e-11
5.5709281e-09
1.8691676e-11
5.5570978e-09
1.8218747e-11
5.5436254e-09
1.774737e-11
5.5305057e-09
1.7285409e-11
5.5177366e-09
1.6823567e-11
5.5053116e-09
1.6372974e-11
5.4932294e-09
1.5920993e-11
5.4814824e-09
1.5482307e-11
5.47007e-09
1.50406e-11
5.4589833e-09
1.4614516e-11
5.4482227e-09
1.4183579e-11
5.4377778e-09
1.3770934e-11
5.4276498e-09
1.3351313e-11
5.4178267e-09
1.295305e-11
5.4083111e-09
1.2545358e-11
5.3990888e-09
1.2162466e-11
5.3901638e-09
1.176741e-11
5.3815199e-09
1.14009e-11
5.3731624e-09
1.1019245e-11
5.365073e-09
1.0670223e-11
5.3572586e-09
1.0302738e-11
5.3496981e-09
9.9724026e-12
5.3424007e-09
9.6198922e-12
5.3353423e-09
9.3095177e-12
5.3285342e-09
8.9727469e-12
5.3219493e-09
8.6836405e-12
5.3156015e-09
8.363349e-12
5.3094601e-09
8.0967541e-12
5.303542e-09
7.7935513e-12
5.2978129e-09
7.5506184e-12
5.292293e-09
7.2649359e-12
5.286944e-09
7.0466668e-12
5.2817897e-09
6.7787043e-12
5.2767878e-09
6.5859567e-12
5.2719664e-09
6.3356795e-12
5.2672784e-09
6.1691598e-12
5.2627567e-09
5.9362967e-12
5.2583492e-09
5.79659e-12
5.2540943e-09
5.5806379e-12
5.2499342e-09
5.468154e-12
5.2459137e-09
5.2683089e-12
5.2419688e-09
5.1832118e-12
5.2381514e-09
4.9981869e-12
5.2343911e-09
4.9401754e-12
5.2307478e-09
4.7679774e-12
5.2271439e-09
4.7360316e-12
5.2236488e-09
4.573701e-12
5.2201775e-09
4.5659044e-12
5.2168095e-09
4.4094264e-12
5.2134517e-09
4.4230212e-12
5.2101954e-09
4.2675234e-12
5.2069384e-09
4.2992974e-12
5.2037842e-09
4.1396868e-12
5.2006206e-09
4.1867214e-12
5.197564e-09
4.0185327e-12
5.1944904e-09
4.0791787e-12
5.1915297e-09
3.8995423e-12
5.188544e-09
3.9741645e-12
5.1856767e-09
3.782524e-12
5.1827749e-09
3.8739149e-12
5.1799947e-09
3.6722215e-12
5.1771675e-09
3.7852766e-12
5.1744613e-09
3.5778725e-12
5.1716921e-09
3.7185499e-12
5.1690376e-09
3.5118355e-12
5.1663025e-09
3.6851852e-12
5.1636673e-09
3.4878803e-12
5.1609383e-09
3.6920768e-12
5.1582811e-09
3.5119642e-12
3.8862244e-12
4.4985853e-08
9.3758919e-09
-4.3896106e-08
4.492663e-08
1.2514971e-08
4.3804737e-08
1.1558318e-08
4.2101386e-08
9.0870787e-09
4.0237288e-08
6.8286006e-09
3.8381972e-08
5.3862471e-09
3.658701e-08
4.4486647e-09
3.4905431e-08
3.7567481e-09
3.3368775e-08
3.2133797e-09
3.1979408e-08
2.785206e-09
3.0724784e-08
2.4446725e-09
2.9589628e-08
2.1670892e-09
2.8559938e-08
1.9358367e-09
2.7623367e-08
1.7404576e-09
2.6768844e-08
1.5740801e-09
2.5986428e-08
1.431593e-09
2.5267332e-08
1.3088454e-09
2.4603922e-08
1.2024086e-09
2.3989638e-08
1.1094919e-09
2.3418876e-08
1.0278462e-09
2.2886844e-08
9.556693e-10
2.2389435e-08
8.9150465e-10
2.1923114e-08
8.341711e-10
2.148482e-08
7.8269761e-10
2.1071894e-08
7.3628474e-10
2.0682011e-08
6.9426308e-10
2.031313e-08
6.560755e-10
1.9963453e-08
6.2124843e-10
1.9631386e-08
5.893843e-10
1.9315516e-08
5.6014019e-10
1.9014579e-08
5.3322615e-10
1.8727448e-08
5.0838858e-10
1.8453106e-08
4.8541166e-10
1.8190643e-08
4.6410432e-10
1.7939233e-08
4.4430285e-10
1.7698128e-08
4.2586097e-10
1.7466651e-08
4.086523e-10
1.7244184e-08
3.9256356e-10
1.7030163e-08
3.7749541e-10
1.6824074e-08
3.633592e-10
1.6625443e-08
3.5007561e-10
1.6433836e-08
3.3757468e-10
1.6248855e-08
3.2579215e-10
1.6070132e-08
3.1467233e-10
1.5897325e-08
3.0416266e-10
1.5730121e-08
2.9421824e-10
1.5568229e-08
2.8479588e-10
1.5411377e-08
2.7585871e-10
1.5259313e-08
2.6737135e-10
1.5111805e-08
2.5930269e-10
1.4968633e-08
2.5162426e-10
1.4829594e-08
2.4430892e-10
1.4694498e-08
2.3733436e-10
1.4563166e-08
2.3067594e-10
1.4435431e-08
2.2431684e-10
1.4311138e-08
2.18234e-10
1.4190138e-08
2.1241549e-10
1.4072294e-08
2.0683936e-10
1.3957476e-08
2.0149777e-10
1.3845563e-08
1.9636967e-10
1.3736437e-08
1.9145032e-10
1.3629992e-08
1.8671978e-10
1.3526124e-08
1.8217558e-10
1.3424736e-08
1.7779919e-10
1.3325736e-08
1.7358953e-10
1.3229039e-08
1.6952951e-10
1.3134561e-08
1.6561902e-10
1.3042226e-08
1.6184227e-10
1.2951958e-08
1.5820022e-10
1.2863689e-08
1.5467784e-10
1.2777351e-08
1.5127738e-10
1.2692882e-08
1.4798377e-10
1.2610222e-08
1.4480113e-10
1.2529315e-08
1.4171371e-10
1.2450104e-08
1.38728e-10
1.2372541e-08
1.3582688e-10
1.2296574e-08
1.3301937e-10
1.2222159e-08
1.302868e-10
1.2149248e-08
1.2764071e-10
1.2077803e-08
1.2506107e-10
1.200778e-08
1.2256143e-10
1.1939143e-08
1.2012068e-10
1.1871853e-08
1.1775388e-10
1.1805879e-08
1.1543943e-10
1.1741182e-08
1.1319335e-10
1.1677735e-08
1.1099394e-10
1.1615504e-08
1.0885756e-10
1.1554464e-08
1.067629e-10
1.1494584e-08
1.0472626e-10
1.143584e-08
1.0272714e-10
1.1378204e-08
1.0078126e-10
1.1321655e-08
9.8869264e-11
1.1266167e-08
9.7005947e-11
1.1211722e-08
9.5173319e-11
1.1158295e-08
9.3385388e-11
1.110587e-08
9.1624998e-11
1.1054423e-08
8.9905836e-11
1.1003942e-08
8.8211168e-11
1.0954404e-08
8.6554827e-11
1.0905796e-08
8.4919877e-11
1.08581e-08
8.3321127e-11
1.0811304e-08
8.1740381e-11
1.0765389e-08
8.0194261e-11
1.0720346e-08
7.8662949e-11
1.0676157e-08
7.7164889e-11
1.0632815e-08
7.5678711e-11
1.0590303e-08
7.4224492e-11
1.0548613e-08
7.277974e-11
1.0507731e-08
7.1365445e-11
1.046765e-08
6.9958836e-11
1.0428355e-08
6.8580955e-11
1.0389843e-08
6.7209572e-11
1.0352098e-08
6.5864995e-11
1.0315117e-08
6.4526315e-11
1.0278886e-08
6.3212337e-11
1.0243401e-08
6.1904067e-11
1.0208651e-08
6.0618493e-11
1.0174632e-08
5.9338563e-11
1.0141331e-08
5.8079622e-11
1.0108747e-08
5.6826242e-11
1.0076867e-08
5.5592581e-11
1.004569e-08
5.4364302e-11
1.0015203e-08
5.3154768e-11
9.9854055e-09
5.195064e-11
9.9562854e-09
5.0764258e-11
9.927841e-09
4.9583801e-11
9.9000613e-09
4.8419843e-11
9.8729444e-09
4.7262929e-11
9.8464794e-09
4.6121014e-11
9.820664e-09
4.4987772e-11
9.7954878e-09
4.3867917e-11
9.7709478e-09
4.275869e-11
9.7470339e-09
4.1661274e-11
9.7237426e-09
4.0576737e-11
9.7010638e-09
3.9502406e-11
9.6789932e-09
3.8443529e-11
9.657521e-09
3.7393229e-11
9.636642e-09
3.6361306e-11
9.6163464e-09
3.5336217e-11
9.596628e-09
3.4332865e-11
9.5774772e-09
3.3334384e-11
9.5588866e-09
3.2361517e-11
9.5408467e-09
3.1391182e-11
9.5233488e-09
3.0450946e-11
9.5063837e-09
2.9510457e-11
9.4899411e-09
2.8605107e-11
9.4740122e-09
2.7696364e-11
9.4585848e-09
2.6828236e-11
9.4436508e-09
2.5953255e-11
9.4291962e-09
2.512485e-11
9.4152132e-09
2.4285687e-11
9.401686e-09
2.3499641e-11
9.3886075e-09
2.2698379e-11
9.3759596e-09
2.1957426e-11
9.3637363e-09
2.1196043e-11
9.3519171e-09
2.0502878e-11
9.3404972e-09
1.9783221e-11
9.3294536e-09
1.9140317e-11
9.3187833e-09
1.8463891e-11
9.3084605e-09
1.7873421e-11
9.2984841e-09
1.7241284e-11
9.2888258e-09
1.6704995e-11
9.2794868e-09
1.6117662e-11
9.2704359e-09
1.5636857e-11
9.2616774e-09
1.5094265e-11
9.2531767e-09
1.4669779e-11
9.2449418e-09
1.4171263e-11
9.2369349e-09
1.3803465e-11
9.2291678e-09
1.3347718e-11
9.2215996e-09
1.3036382e-11
9.2142466e-09
1.2621291e-11
9.2070644e-09
1.2365403e-11
9.2000749e-09
1.1987711e-11
9.19323e-09
1.1785067e-11
9.186558e-09
1.1439995e-11
9.1800072e-09
1.1286803e-11
9.1736132e-09
1.0967711e-11
9.1673207e-09
1.085844e-11
9.1611732e-09
1.0556873e-11
9.1551117e-09
1.0484565e-11
9.1491882e-09
1.0190946e-11
9.1433394e-09
1.0148165e-11
9.1376259e-09
9.8531813e-12
9.131979e-09
9.8335774e-12
9.1264676e-09
9.5299304e-12
9.1210168e-09
9.5299667e-12
9.1157022e-09
9.2141737e-12
9.1104421e-09
9.2343152e-12
9.1053167e-09
8.9078715e-12
9.1002377e-09
8.9528978e-12
9.0952874e-09
8.6225766e-12
9.0903723e-09
8.7003972e-12
9.0855721e-09
8.3780048e-12
9.0807935e-09
8.4971474e-12
9.0761061e-09
8.1992272e-12
9.0714267e-09
8.3646088e-12
9.0668018e-09
8.112778e-12
9.0621747e-09
8.3191909e-12
9.0575595e-09
8.1271618e-12
8.569968e-12
4.6708755e-08
8.4203815e-09
-4.5753244e-08
4.7419549e-08
1.1804177e-08
4.7561141e-08
1.1416726e-08
4.7201602e-08
9.4466175e-09
4.6553534e-08
7.4766685e-09
4.5746114e-08
6.1936668e-09
4.4816425e-08
5.3783537e-09
4.3809892e-08
4.7632817e-09
4.2774449e-08
4.2488225e-09
4.174161e-08
3.8180453e-09
4.0727046e-08
3.4592358e-09
3.9739111e-08
3.1550242e-09
3.878379e-08
2.8911583e-09
3.7865532e-08
2.6587157e-09
3.6987114e-08
2.4524977e-09
3.6149707e-08
2.2690003e-09
3.5353205e-08
2.1053467e-09
3.4596626e-08
1.9589876e-09
3.3878431e-08
1.8276873e-09
3.3196761e-08
1.7095164e-09
3.2549598e-08
1.6028324e-09
3.1934873e-08
1.5062292e-09
3.135054e-08
1.4185046e-09
3.0794618e-08
1.3386194e-09
3.0265223e-08
1.2656792e-09
2.9760584e-08
1.1989026e-09
2.9279043e-08
1.137616e-09
2.8819065e-08
1.0812269e-09
2.8379225e-08
1.029224e-09
2.7958211e-08
9.8115437e-10
2.7554811e-08
9.3662661e-10
2.7167908e-08
8.9529117e-10
2.6796474e-08
8.5684534e-10
2.6439562e-08
8.2101668e-10
2.6096296e-08
7.8756841e-10
2.5765871e-08
7.5628613e-10
2.5447541e-08
7.2698246e-10
2.5140617e-08
6.994874e-10
2.4844462e-08
6.736507e-10
2.4558485e-08
6.4933659e-10
2.4282137e-08
6.2642308e-10
2.4014911e-08
6.0480107e-10
2.3756332e-08
5.8437043e-10
2.3505962e-08
5.6504286e-10
2.3263389e-08
5.4673553e-10
2.3028231e-08
5.2937621e-10
2.2800131e-08
5.1289617e-10
2.2578754e-08
4.9723535e-10
2.2363789e-08
4.8233692e-10
2.2154941e-08
4.6814985e-10
2.1951938e-08
4.5462776e-10
2.1754521e-08
4.4172607e-10
2.1562447e-08
4.2940774e-10
2.1375491e-08
4.1763247e-10
2.1193436e-08
4.0637161e-10
2.1016082e-08
3.9558775e-10
2.0843238e-08
3.8525969e-10
2.0674725e-08
3.7535212e-10
2.0510373e-08
3.6585011e-10
2.0350023e-08
3.567201e-10
2.0193521e-08
3.4795203e-10
2.0040726e-08
3.3951428e-10
1.9891502e-08
3.3140046e-10
1.974572e-08
3.2358116e-10
1.9603257e-08
3.1605245e-10
1.9463999e-08
3.0878714e-10
1.9327835e-08
3.0178308e-10
1.9194662e-08
2.9501513e-10
1.9064379e-08
2.8848296e-10
1.8936895e-08
2.8216266e-10
1.8812116e-08
2.7605605e-10
1.868996e-08
2.7013929e-10
1.8570344e-08
2.6441714e-10
1.8453193e-08
2.5886489e-10
1.833843e-08
2.5349089e-10
1.8225989e-08
2.4826859e-10
1.8115798e-08
2.4321017e-10
1.8007798e-08
2.3828694e-10
1.7901923e-08
2.3351486e-10
1.7798121e-08
2.2886334e-10
1.7696331e-08
2.243514e-10
1.7596505e-08
2.1994697e-10
1.7498587e-08
2.1567142e-10
1.7402535e-08
2.114919e-10
1.7308297e-08
2.0743144e-10
1.7215834e-08
2.0345694e-10
1.7125099e-08
1.9959221e-10
1.7036058e-08
1.9580453e-10
1.6948666e-08
1.9211798e-10
1.6862892e-08
1.8850078e-10
1.6778697e-08
1.8497653e-10
1.6696051e-08
1.8151482e-10
1.6614919e-08
1.781384e-10
1.6535274e-08
1.7481842e-10
1.6457082e-08
1.7157694e-10
1.6380321e-08
1.6838607e-10
1.6304959e-08
1.6526768e-10
1.6230976e-08
1.6219432e-10
1.6158343e-08
1.5918843e-10
1.6087041e-08
1.5622183e-10
1.6017043e-08
1.5331896e-10
1.5948334e-08
1.5044938e-10
1.5880888e-08
1.4764057e-10
1.5814691e-08
1.4485942e-10
1.5749719e-08
1.4213649e-10
1.5685962e-08
1.3943601e-10
1.5623395e-08
1.367914e-10
1.556201e-08
1.3416484e-10
1.5501784e-08
1.3159159e-10
1.544271e-08
1.290329e-10
1.5384766e-08
1.265248e-10
1.5327947e-08
1.2402863e-10
1.5272232e-08
1.2158013e-10
1.5217616e-08
1.1914183e-10
1.5164081e-08
1.1674814e-10
1.5111621e-08
1.1436349e-10
1.5060219e-08
1.1202066e-10
1.5009872e-08
1.0968595e-10
1.496056e-08
1.0739079e-10
1.4912284e-08
1.051028e-10
1.4865024e-08
1.0285283e-10
1.4818779e-08
1.0060901e-10
1.4773531e-08
9.8402197e-11
1.4729281e-08
9.6200803e-11
1.468601e-08
9.4035511e-11
1.4643718e-08
9.1875621e-11
1.4602387e-08
8.9750708e-11
1.4562018e-08
8.7632045e-11
1.4522592e-08
8.5547001e-11
1.448411e-08
8.3469775e-11
1.4446553e-08
8.142481e-11
1.4409922e-08
7.9389689e-11
1.4374198e-08
7.7385652e-11
1.4339381e-08
7.5393901e-11
1.4305451e-08
7.3432173e-11
1.4272409e-08
7.1485598e-11
1.4240234e-08
6.9568105e-11
1.4208926e-08
6.7669103e-11
1.4178464e-08
6.5798229e-11
1.4148847e-08
6.3949753e-11
1.4120053e-08
6.2128302e-11
1.4092081e-08
6.0333825e-11
1.4064907e-08
5.8564882e-11
1.403853e-08
5.6828281e-11
1.4012925e-08
5.5115255e-11
1.398809e-08
5.3440614e-11
1.3963999e-08
5.1787252e-11
1.3940648e-08
5.017883e-11
1.3918013e-08
4.8589083e-11
1.3896086e-08
4.7051371e-11
1.3874842e-08
4.5529275e-11
1.3854275e-08
4.4066946e-11
1.3834357e-08
4.2616525e-11
1.381508e-08
4.123433e-11
1.3796417e-08
3.9859405e-11
1.3778358e-08
3.8561908e-11
1.3760875e-08
3.726599e-11
1.3743958e-08
3.6057286e-11
1.3727579e-08
3.4843229e-11
1.3711725e-08
3.3726774e-11
1.369637e-08
3.2596586e-11
1.36815e-08
3.1574978e-11
1.3667088e-08
3.0529668e-11
1.365312e-08
2.9604576e-11
1.363957e-08
2.8644046e-11
1.3626424e-08
2.7816147e-11
1.3613656e-08
2.6939125e-11
1.3601252e-08
2.6208039e-11
1.3589187e-08
2.5411968e-11
1.3577448e-08
2.4776028e-11
1.3566012e-08
2.4056791e-11
1.3554865e-08
2.3512703e-11
1.3543989e-08
2.2864129e-11
1.3533367e-08
2.2406406e-11
1.3522987e-08
2.1819783e-11
1.3512834e-08
2.1440261e-11
1.3502898e-08
2.0904011e-11
1.3493164e-08
2.0591843e-11
1.3483629e-08
2.0091871e-11
1.347428e-08
1.9834235e-11
1.3465115e-08
1.9355315e-11
1.3456124e-08
1.9139111e-11
1.344731e-08
1.8667194e-11
1.3438662e-08
1.8481588e-11
1.3430186e-08
1.8006619e-11
1.342187e-08
1.7845547e-11
1.341372e-08
1.7364161e-11
1.3405726e-08
1.7227963e-11
1.3397889e-08
1.6745007e-11
1.3390202e-08
1.6640504e-11
1.3382655e-08
1.6169273e-11
1.3375248e-08
1.6107656e-11
1.3367957e-08
1.5669028e-11
1.3360792e-08
1.5662244e-11
1.3353708e-08
1.528316e-11
1.3346733e-08
1.5339484e-11
1.3339796e-08
1.5049171e-11
1.3332942e-08
1.5173849e-11
1.3326094e-08
1.4974878e-11
1.5397811e-11
4.8509186e-08
7.6798288e-09
-4.7768633e-08
4.9287138e-08
1.1026226e-08
4.9724189e-08
1.0979675e-08
4.9836963e-08
9.3338435e-09
4.9750394e-08
7.5632369e-09
4.9545786e-08
6.3982749e-09
4.9232453e-08
5.6916868e-09
4.8821514e-08
5.1742212e-09
4.8338927e-08
4.7314088e-09
4.7808304e-08
4.3486688e-09
4.7242823e-08
4.0247163e-09
4.6649877e-08
3.7479709e-09
4.6036012e-08
3.5050226e-09
4.5407977e-08
3.2867507e-09
4.4772189e-08
3.0882861e-09
4.4134218e-08
2.9069714e-09
4.3498639e-08
2.7409256e-09
4.286911e-08
2.5885167e-09
4.2248504e-08
2.4482926e-09
4.1639039e-08
2.318982e-09
4.1042374e-08
2.1994975e-09
4.0459707e-08
2.0888962e-09
3.9891851e-08
1.9863606e-09
3.9339306e-08
1.8911636e-09
3.8802323e-08
1.802663e-09
3.828095e-08
1.7202755e-09
3.7775083e-08
1.6434826e-09
3.7284501e-08
1.571809e-09
3.6808893e-08
1.5048321e-09
3.6347885e-08
1.4421619e-09
3.590106e-08
1.3834523e-09
3.5467969e-08
1.3283821e-09
3.5048147e-08
1.2766666e-09
3.4641124e-08
1.2280404e-09
3.4246424e-08
1.1822683e-09
3.3863579e-08
1.1391306e-09
3.349213e-08
1.0984322e-09
3.3131626e-08
1.0599909e-09
3.2781633e-08
1.0236437e-09
3.244173e-08
9.8923954e-10
3.2111512e-08
9.5664113e-10
3.179059e-08
9.2572305e-10
3.1478591e-08
8.9636918e-10
3.1175159e-08
8.6847495e-10
3.0879953e-08
8.4194177e-10
3.0592647e-08
8.1668186e-10
3.0312932e-08
7.9261154e-10
3.0040511e-08
7.6965613e-10
2.9775103e-08
7.4774507e-10
2.9516439e-08
7.2681357e-10
2.9264264e-08
7.0680311e-10
2.9018334e-08
6.8765602e-10
2.8778417e-08
6.6932487e-10
2.8544293e-08
6.5175673e-10
2.831575e-08
6.3491439e-10
2.809259e-08
6.1874813e-10
2.7874619e-08
6.0323e-10
2.7661659e-08
5.8831264e-10
2.7453533e-08
5.7397599e-10
2.7250078e-08
5.6017467e-10
2.7051135e-08
5.4689496e-10
2.6856556e-08
5.3409374e-10
2.6666194e-08
5.2176211e-10
2.6479916e-08
5.0985962e-10
2.6297588e-08
4.9838067e-10
2.6119087e-08
4.8728757e-10
2.5944293e-08
4.7657722e-10
2.5773094e-08
4.6621442e-10
2.5605378e-08
4.5619864e-10
2.5441045e-08
4.4649614e-10
2.5279991e-08
4.3710942e-10
2.5122126e-08
4.2800473e-10
2.4967354e-08
4.191886e-10
2.4815593e-08
4.1062603e-10
2.4666756e-08
4.0232844e-10
2.4520766e-08
3.9425836e-10
2.4377544e-08
3.8643239e-10
2.423702e-08
3.788102e-10
2.4099122e-08
3.7141353e-10
2.3963786e-08
3.6419941e-10
2.3830943e-08
3.5719392e-10
2.3700538e-08
3.503519e-10
2.3572507e-08
3.4370285e-10
2.3446798e-08
3.3720037e-10
2.3323353e-08
3.3087647e-10
2.3202126e-08
3.2468413e-10
2.3083061e-08
3.1865681e-10
2.2966118e-08
3.1274767e-10
2.2851245e-08
3.0699091e-10
2.2738406e-08
3.0134059e-10
2.2627551e-08
2.9583078e-10
2.2518649e-08
2.9041687e-10
2.2411655e-08
2.8513239e-10
2.2306539e-08
2.7993427e-10
2.2203261e-08
2.7485569e-10
2.2101792e-08
2.6985443e-10
2.2002096e-08
2.6496388e-10
2.1904148e-08
2.601419e-10
2.1807914e-08
2.554234e-10
2.1713371e-08
2.5076446e-10
2.1620486e-08
2.4620349e-10
2.1529243e-08
2.4169287e-10
2.1439608e-08
2.3727576e-10
2.1351567e-08
2.3290033e-10
2.1265089e-08
2.2861461e-10
2.1180162e-08
2.243625e-10
2.1096757e-08
2.201966e-10
2.1014864e-08
2.1605736e-10
2.0934455e-08
2.1200071e-10
2.0855523e-08
2.0796494e-10
2.077804e-08
2.0400804e-10
2.0702001e-08
2.0006743e-10
2.062738e-08
1.9620181e-10
2.0554172e-08
1.9234905e-10
2.0482353e-08
1.885674e-10
2.0411921e-08
1.8479594e-10
2.0342849e-08
1.8109216e-10
2.0275139e-08
1.7739623e-10
2.0208764e-08
1.7376539e-10
2.0143727e-08
1.7014002e-10
2.0080002e-08
1.665783e-10
2.0017591e-08
1.6301955e-10
1.9956469e-08
1.5952383e-10
1.9896641e-08
1.5602898e-10
1.983808e-08
1.5259686e-10
1.9780791e-08
1.4916444e-10
1.9724747e-08
1.4579431e-10
1.9669956e-08
1.4242384e-10
1.9616388e-08
1.3911509e-10
1.956405e-08
1.3580691e-10
1.9512915e-08
1.3256007e-10
1.946299e-08
1.2931525e-10
1.9414243e-08
1.2613184e-10
1.9366685e-08
1.2295242e-10
1.9320282e-08
1.1983484e-10
1.9275044e-08
1.1672372e-10
1.9230937e-08
1.1367523e-10
1.918797e-08
1.1063622e-10
1.9146107e-08
1.0766084e-10
1.9105358e-08
1.0469862e-10
1.9065686e-08
1.0180106e-10
1.9027098e-08
9.892112e-11
1.8989557e-08
9.6106565e-11
1.895307e-08
9.3315019e-11
1.8917596e-08
9.0589205e-11
1.8883144e-08
8.7892518e-11
1.884967e-08
8.52617e-11
1.8817182e-08
8.2666627e-11
1.8785634e-08
8.0137391e-11
1.8755034e-08
7.7650999e-11
1.8725333e-08
7.5230065e-11
1.869654e-08
7.2859651e-11
1.8668603e-08
7.055368e-11
1.8641531e-08
6.830657e-11
1.8615269e-08
6.6121899e-11
1.8589825e-08
6.4005031e-11
1.8565144e-08
6.1947454e-11
1.8541234e-08
5.9966981e-11
1.8518036e-08
5.8041241e-11
1.8495561e-08
5.6202223e-11
1.8473746e-08
5.441173e-11
1.8452603e-08
5.2717803e-11
1.8432068e-08
5.1064371e-11
1.8412155e-08
4.9517595e-11
1.8392798e-08
4.8001245e-11
1.8374012e-08
4.6601965e-11
1.835573e-08
4.5220784e-11
1.8337971e-08
4.396747e-11
1.8320666e-08
4.2717407e-11
1.8303835e-08
4.1606305e-11
1.8287411e-08
4.0480781e-11
1.8271419e-08
3.9505419e-11
1.8255788e-08
3.8494711e-11
1.8240549e-08
3.7645202e-11
1.8225633e-08
3.6735884e-11
1.8211075e-08
3.5998437e-11
1.8196806e-08
3.5173153e-11
1.8182867e-08
3.4530271e-11
1.8169191e-08
3.3768506e-11
1.8155825e-08
3.3200199e-11
1.81427e-08
3.2480445e-11
1.8129872e-08
3.1966788e-11
1.8117269e-08
3.1269844e-11
1.8104956e-08
3.0794558e-11
1.8092855e-08
3.0107487e-11
1.808104e-08
2.9661307e-11
1.8069423e-08
2.8980969e-11
1.8058087e-08
2.8563815e-11
1.8046933e-08
2.7898651e-11
1.8036054e-08
2.7519599e-11
1.8025334e-08
2.6889454e-11
1.8014878e-08
2.656411e-11
1.8004549e-08
2.5997997e-11
1.7994466e-08
2.5744684e-11
1.7984473e-08
2.5276596e-11
1.7974699e-08
2.511348e-11
1.7964975e-08
2.4773102e-11
1.7955423e-08
2.4725515e-11
1.7945895e-08
2.4503538e-11
2.4794543e-11
5.0434845e-08
7.1050154e-09
-4.9860032e-08
5.1197154e-08
1.0263917e-08
5.1671114e-08
1.0505715e-08
5.1882892e-08
9.1220653e-09
5.1957575e-08
7.4885538e-09
5.197075e-08
6.3851004e-09
5.1926443e-08
5.7359939e-09
5.1818492e-08
5.2821722e-09
5.1656465e-08
4.8934356e-09
5.1454997e-08
4.5501366e-09
5.1221539e-08
4.2581739e-09
5.0957801e-08
4.0117097e-09
5.0664703e-08
3.7981198e-09
5.0344361e-08
3.6070928e-09
4.9999844e-08
3.4328038e-09
4.9634516e-08
3.2722991e-09
4.9251649e-08
3.1237923e-09
4.8854302e-08
2.9858643e-09
4.8445305e-08
2.8572894e-09
4.8027264e-08
2.7370222e-09
4.7602555e-08
2.6242072e-09
4.7173314e-08
2.5181369e-09
4.6741445e-08
2.4182298e-09
4.6308622e-08
2.3239861e-09
4.5876306e-08
2.2349799e-09
4.5445753e-08
2.1508279e-09
4.5018039e-08
2.0711966e-09
4.4594072e-08
1.9957762e-09
4.4174609e-08
1.9242947e-09
4.3760278e-08
1.8564938e-09
4.3351584e-08
1.7921456e-09
4.2948936e-08
1.7310301e-09
4.255265e-08
1.672953e-09
4.2162965e-08
1.6177249e-09
4.1780056e-08
1.5651779e-09
4.1404039e-08
1.5151478e-09
4.1034982e-08
1.4674884e-09
4.0672916e-08
1.4220574e-09
4.0317833e-08
1.3787265e-09
3.9969701e-08
1.3373722e-09
3.962846e-08
1.2978816e-09
3.9294036e-08
1.2601476e-09
3.8966334e-08
1.2240705e-09
3.8645252e-08
1.1895575e-09
3.8330673e-08
1.1565204e-09
3.8022476e-08
1.1248785e-09
3.7720534e-08
1.0945544e-09
3.7424713e-08
1.0654767e-09