/*--------------------------------*- C++ -*----------------------------------*\
| =========                 |                                                 |
| \\      /  F ield         | OpenFOAM: The Open Source CFD Toolbox           |
|  \\    /   O peration     | Version:  5.x                                   |
|   \\  /    A nd           | Web:      www.OpenFOAM.org                      |
|    \\/     M anipulation  |                                                 |
\*---------------------------------------------------------------------------*/
FoamFile
{
    version     2.0;
    format      ascii;
    class       volVectorField;
    location    "0.4";
    object      U;
}
// * * * * * * * * * * * * * * * * * * * * * * * * * * * * * * * * * * * * * //

dimensions      [0 1 -1 0 0 0 0];

internalField   nonuniform List<vector> 
21600
(
(0.40517821 0.01213335 0)
(0.28658815 0.010905366 0)
(0.19463436 0.0064223787 0)
(0.14038131 0.0024873273 0)
(0.11281168 0.00059979361 0)
(0.0974698 0.00010204623 0)
(0.088153307 2.6396368e-05 0)
(0.081857882 5.7553885e-05 0)
(0.077030886 9.760955e-05 0)
(0.072983852 0.00011625266 0)
(0.069461119 0.00011546108 0)
(0.066369241 0.00010540732 0)
(0.063648929 9.3690627e-05 0)
(0.061243603 8.3322953e-05 0)
(0.059100406 7.4769425e-05 0)
(0.057174499 6.7716809e-05 0)
(0.055430186 6.1787403e-05 0)
(0.053839653 5.6702244e-05 0)
(0.05238109 5.2277517e-05 0)
(0.051037044 4.8389943e-05 0)
(0.049793245 4.4952447e-05 0)
(0.048637825 4.1897165e-05 0)
(0.04756079 3.9169811e-05 0)
(0.046553649 3.6724378e-05 0)
(0.045609139 3.4522914e-05 0)
(0.04472101 3.2532504e-05 0)
(0.043883852 3.0726339e-05 0)
(0.043092962 2.9080899e-05 0)
(0.04234422 2.7577201e-05 0)
(0.041634014 2.6198212e-05 0)
(0.040959143 2.4930274e-05 0)
(0.040316779 2.376083e-05 0)
(0.039704392 2.2679821e-05 0)
(0.039119732 2.167783e-05 0)
(0.038560767 2.0747232e-05 0)
(0.03802568 1.9880899e-05 0)
(0.037512819 1.9072876e-05 0)
(0.0370207 1.8317775e-05 0)
(0.036547962 1.7610779e-05 0)
(0.036093379 1.6947847e-05 0)
(0.03565582 1.6324966e-05 0)
(0.035234262 1.5739123e-05 0)
(0.034827756 1.5186904e-05 0)
(0.034435439 1.4666069e-05 0)
(0.03405651 1.4173723e-05 0)
(0.033690237 1.3708151e-05 0)
(0.033335935 1.3266956e-05 0)
(0.032992979 1.2848682e-05 0)
(0.032660781 1.2451452e-05 0)
(0.032338804 1.2073867e-05 0)
(0.032026541 1.1714663e-05 0)
(0.031723524 1.1372332e-05 0)
(0.031429314 1.1046259e-05 0)
(0.031143505 1.073466e-05 0)
(0.030865711 1.0437537e-05 0)
(0.030595578 1.0152803e-05 0)
(0.030332769 9.881065e-06 0)
(0.030076971 9.6200044e-06 0)
(0.029827886 9.3706803e-06 0)
(0.029585241 9.1305966e-06 0)
(0.029348769 8.9010523e-06 0)
(0.02911823 8.6795556e-06 0)
(0.028893385 8.4675297e-06 0)
(0.028674024 8.2626517e-06 0)
(0.02845993 8.0662844e-06 0)
(0.028250919 7.8762665e-06 0)
(0.028046794 7.6938539e-06 0)
(0.027847393 7.5170733e-06 0)
(0.027652537 7.3472184e-06 0)
(0.027462083 7.1823479e-06 0)
(0.027275869 7.0238729e-06 0)
(0.027093767 6.869643e-06 0)
(0.026915628 6.7214144e-06 0)
(0.026741341 6.5767331e-06 0)
(0.026570768 6.4378475e-06 0)
(0.026403812 6.3018245e-06 0)
(0.026240345 6.1713846e-06 0)
(0.026080283 6.0431507e-06 0)
(0.025923505 5.920339e-06 0)
(0.025769939 5.7992431e-06 0)
(0.025619473 5.6833762e-06 0)
(0.025472043 5.5687828e-06 0)
(0.025327546 5.4591414e-06 0)
(0.025185926 5.3504811e-06 0)
(0.025047086 5.2465301e-06 0)
(0.024910978 5.1433476e-06 0)
(0.024777512 5.0445256e-06 0)
(0.024646646 4.9463298e-06 0)
(0.024518296 4.852151e-06 0)
(0.024392425 4.758564e-06 0)
(0.024268956 4.6686491e-06 0)
(0.024147855 4.5792765e-06 0)
(0.024029054 4.4931651e-06 0)
(0.023912518 4.4076801e-06 0)
(0.023798189 4.3251248e-06 0)
(0.02368603 4.2431262e-06 0)
(0.023575995 4.1638889e-06 0)
(0.023468043 4.0850219e-06 0)
(0.023362139 4.008809e-06 0)
(0.023258238 3.9328488e-06 0)
(0.023156316 3.8594614e-06 0)
(0.023056323 3.7860651e-06 0)
(0.022958248 3.7153271e-06 0)
(0.022862033 3.6442871e-06 0)
(0.022767681 3.5759553e-06 0)
(0.022675123 3.5071063e-06 0)
(0.022584381 3.4409493e-06 0)
(0.022495371 3.3741687e-06 0)
(0.022408135 3.3099581e-06 0)
(0.022322572 3.2451495e-06 0)
(0.022238746 3.1826535e-06 0)
(0.022156537 3.1197214e-06 0)
(0.022076035 3.058768e-06 0)
(0.021997094 2.9976252e-06 0)
(0.021919834 2.9380403e-06 0)
(0.021844083 2.8785949e-06 0)
(0.02176999 2.820283e-06 0)
(0.021697353 2.7623996e-06 0)
(0.021626358 2.7052822e-06 0)
(0.021556766 2.6488396e-06 0)
(0.021488804 2.5928731e-06 0)
(0.021422192 2.5377724e-06 0)
(0.021357201 2.4828744e-06 0)
(0.021293504 2.4290696e-06 0)
(0.021231427 2.3751265e-06 0)
(0.021170586 2.3226333e-06 0)
(0.021111365 2.2695204e-06 0)
(0.021053321 2.2183514e-06 0)
(0.020996902 2.1659807e-06 0)
(0.020941597 2.1161529e-06 0)
(0.020887926 2.0644557e-06 0)
(0.020835301 2.0159552e-06 0)
(0.020784325 1.964904e-06 0)
(0.020734323 1.9177477e-06 0)
(0.020685988 1.8672964e-06 0)
(0.020638548 1.8215102e-06 0)
(0.020592798 1.7716342e-06 0)
(0.020547859 1.7272673e-06 0)
(0.020504639 1.6779342e-06 0)
(0.020462136 1.6350614e-06 0)
(0.020421385 1.5862423e-06 0)
(0.020381251 1.5449796e-06 0)
(0.020342907 1.4966401e-06 0)
(0.020305069 1.4571101e-06 0)
(0.020269067 1.4092288e-06 0)
(0.020233451 1.3715649e-06 0)
(0.020199721 1.3241359e-06 0)
(0.020166244 1.2884477e-06 0)
(0.020134713 1.2414852e-06 0)
(0.02010329 1.2079242e-06 0)
(0.020073879 1.1614134e-06 0)
(0.020044419 1.1301589e-06 0)
(0.020017045 1.0841135e-06 0)
(0.019989449 1.0553842e-06 0)
(0.019964025 1.0098071e-06 0)
(0.019938189 9.8385909e-07 0)
(0.01991462 9.3878315e-07 0)
(0.019890433 9.1589252e-07 0)
(0.01986862 8.7134163e-07 0)
(0.019845964 8.5179988e-07 0)
(0.019825802 8.0779935e-07 0)
(0.019804552 7.9190564e-07 0)
(0.019785933 7.4844067e-07 0)
(0.01976596 7.3651532e-07 0)
(0.019748773 6.9355535e-07 0)
(0.019729942 6.8592906e-07 0)
(0.019714073 6.4341886e-07 0)
(0.019696246 6.4046782e-07 0)
(0.019681579 5.9836184e-07 0)
(0.019664614 6.0049748e-07 0)
(0.019651032 5.5875311e-07 0)
(0.019634783 5.6645529e-07 0)
(0.019622171 5.2500867e-07 0)
(0.019606491 5.3876951e-07 0)
(0.019594735 4.9747827e-07 0)
(0.019579477 5.1774085e-07 0)
(0.019568473 4.7627892e-07 0)
(0.019553498 5.0331229e-07 0)
(0.019543155 4.6107554e-07 0)
(0.019528337 4.9491663e-07 0)
(0.01951859 4.5091614e-07 0)
(0.019503826 4.913533e-07 0)
(0.019494639 4.4429635e-07 0)
(0.019479849 4.9095296e-07 0)
(0.019471222 4.3934706e-07 0)
(0.019456347 4.9195719e-07 0)
(0.019448308 4.3434115e-07 0)
(0.019433301 4.9298715e-07 0)
(0.0194259 4.2818113e-07 0)
(0.019410703 4.9360712e-07 0)
(0.019403998 4.2076827e-07 0)
(0.019388522 4.9457602e-07 0)
(0.01938257 4.1315827e-07 0)
(0.019366663 4.9791526e-07 0)
(0.019361524 4.0719852e-07 0)
(0.019344931 5.068601e-07 0)
(0.019340714 4.0448396e-07 0)
(0.019322982 5.2531742e-07 0)
(0.019320106 4.0083498e-07 0)
(0.019299904 6.2916243e-07 0)
(0.48430605 0.022535517 0)
(0.45686091 0.024514315 0)
(0.41446438 0.019498883 0)
(0.3704165 0.012617725 0)
(0.33189045 0.0073139598 0)
(0.29914804 0.0043276073 0)
(0.2726848 0.0027948891 0)
(0.25196297 0.0019945624 0)
(0.23566486 0.0015563466 0)
(0.22246445 0.0012941718 0)
(0.21140503 0.0011135363 0)
(0.2019015 0.00097253118 0)
(0.1935983 0.00085660546 0)
(0.18625993 0.00076057792 0)
(0.17971464 0.00068104315 0)
(0.1738297 0.00061477206 0)
(0.16850044 0.00055891239 0)
(0.16364359 0.00051121508 0)
(0.15919249 0.00047001515 0)
(0.15509312 0.00043408781 0)
(0.15130118 0.00040251795 0)
(0.14777989 0.00037459613 0)
(0.14449837 0.00034976161 0)
(0.14143049 0.00032755791 0)
(0.13855393 0.00030761345 0)
(0.13584952 0.00028961734 0)
(0.13330071 0.00027331386 0)
(0.13089307 0.00025848556 0)
(0.12861402 0.00024495268 0)
(0.12645249 0.00023255972 0)
(0.1243987 0.00022117753 0)
(0.122444 0.00021069238 0)
(0.12058066 0.00020100931 0)
(0.11880181 0.00019204343 0)
(0.11710123 0.00018372329 0)
(0.11547339 0.00017598447 0)
(0.11391323 0.00016877203 0)
(0.11241624 0.00016203665 0)
(0.11097825 0.00015573512 0)
(0.10959553 0.00014982937 0)
(0.10826464 0.00014428469 0)
(0.10698244 0.00013907155 0)
(0.10574605 0.00013416157 0)
(0.10455285 0.00012953166 0)
(0.10340037 0.00012515848 0)
(0.10228641 0.0001210237 0)
(0.10120886 0.00011710811 0)
(0.10016583 0.00011339666 0)
(0.09915552 0.00010987378 0)
(0.098176297 0.00010652648 0)
(0.09722662 0.00010334275 0)
(0.096305061 0.0001003107 0)
(0.095410285 9.7421697e-05 0)
(0.094541052 9.4664129e-05 0)
(0.093696193 9.2032473e-05 0)
(0.092874626 8.9514952e-05 0)
(0.092075323 8.7108944e-05 0)
(0.091297336 8.4802507e-05 0)
(0.090539755 8.2595368e-05 0)
(0.08980175 8.0475464e-05 0)
(0.089082507 7.8444101e-05 0)
(0.088381298 7.6489504e-05 0)
(0.087697394 7.4614021e-05 0)
(0.087030157 7.2806634e-05 0)
(0.086378925 7.1070093e-05 0)
(0.08574314 6.9394157e-05 0)
(0.085122202 6.7781682e-05 0)
(0.084515617 6.6223215e-05 0)
(0.083922844 6.4722015e-05 0)
(0.083343444 6.3268974e-05 0)
(0.082776924 6.1868017e-05 0)
(0.082222898 6.0509607e-05 0)
(0.081680913 5.9198959e-05 0)
(0.081150628 5.7925672e-05 0)
(0.080631629 5.6696756e-05 0)
(0.080123614 5.5500391e-05 0)
(0.0796262 5.4345408e-05 0)
(0.079139124 5.3218518e-05 0)
(0.07866203 5.2130417e-05 0)
(0.078194689 5.1066641e-05 0)
(0.077736766 5.0039235e-05 0)
(0.077288066 4.9032821e-05 0)
(0.076848275 4.8060314e-05 0)
(0.076417224 4.7106067e-05 0)
(0.07599462 4.6183469e-05 0)
(0.075580315 4.5276878e-05 0)
(0.075174038 4.4399549e-05 0)
(0.074775659 4.3536359e-05 0)
(0.074384928 4.2700121e-05 0)
(0.074001728 4.1876611e-05 0)
(0.073625833 4.107783e-05 0)
(0.073257131 4.0290567e-05 0)
(0.072895423 3.9525696e-05 0)
(0.072540599 3.8771538e-05 0)
(0.072192489 3.8037797e-05 0)
(0.071850977 3.7313661e-05 0)
(0.07151593 3.6608476e-05 0)
(0.071187215 3.5911621e-05 0)
(0.070864738 3.5232489e-05 0)
(0.070548352 3.4560518e-05 0)
(0.070238 3.3905435e-05 0)
(0.069933512 3.325591e-05 0)
(0.069634878 3.2622929e-05 0)
(0.069341898 3.1993952e-05 0)
(0.069054612 3.1381138e-05 0)
(0.068772781 3.0770993e-05 0)
(0.068496503 3.0176591e-05 0)
(0.068225495 2.9583855e-05 0)
(0.067959916 2.9006146e-05 0)
(0.067699429 2.8429617e-05 0)
(0.067444266 2.7867036e-05 0)
(0.067194026 2.7305605e-05 0)
(0.066949017 2.6756807e-05 0)
(0.066708768 2.6209536e-05 0)
(0.066473677 2.5673307e-05 0)
(0.066243183 2.5139302e-05 0)
(0.066017787 2.4614752e-05 0)
(0.065796827 2.4093105e-05 0)
(0.06558092 2.3579513e-05 0)
(0.065369288 2.3069426e-05 0)
(0.065162678 2.2566271e-05 0)
(0.064960177 2.2067083e-05 0)
(0.064762681 2.1573845e-05 0)
(0.064569124 2.1085171e-05 0)
(0.064380567 2.0601297e-05 0)
(0.064195771 2.0123014e-05 0)
(0.064015984 1.9648022e-05 0)
(0.063839772 1.9180122e-05 0)
(0.063668589 1.8713684e-05 0)
(0.063500783 1.8256249e-05 0)
(0.06333804 1.7798212e-05 0)
(0.063178461 1.7351323e-05 0)
(0.063023992 1.6901721e-05 0)
(0.062872458 1.6465625e-05 0)
(0.062726093 1.6024538e-05 0)
(0.062582415 1.559959e-05 0)
(0.062443981 1.5167239e-05 0)
(0.062307962 1.4753937e-05 0)
(0.062177277 1.4330595e-05 0)
(0.062048711 1.3929604e-05 0)
(0.061925581 1.3515616e-05 0)
(0.061804248 1.3127763e-05 0)
(0.061688472 1.2723509e-05 0)
(0.06157414 1.2349722e-05 0)
(0.061465502 1.1955643e-05 0)
(0.061357921 1.1596901e-05 0)
(0.061256193 1.1213543e-05 0)
(0.061155098 1.0870808e-05 0)
(0.061060037 1.0498786e-05 0)
(0.060965146 1.0173162e-05 0)
(0.060876492 9.8130602e-06 0)
(0.060787504 9.5057654e-06 0)
(0.060704985 9.1582415e-06 0)
(0.060621579 8.8706139e-06 0)
(0.060544905 8.5362803e-06 0)
(0.060466741 8.2697493e-06 0)
(0.060395606 7.9492405e-06 0)
(0.060322325 7.7052084e-06 0)
(0.060256409 7.3990515e-06 0)
(0.060187636 7.1788782e-06 0)
(0.060126609 6.8874544e-06 0)
(0.060061952 6.6923962e-06 0)
(0.060005477 6.4158548e-06 0)
(0.059944535 6.2470903e-06 0)
(0.059892269 5.9853746e-06 0)
(0.059834632 5.843986e-06 0)
(0.059786234 5.5968283e-06 0)
(0.059731487 5.4838787e-06 0)
(0.059686619 5.250842e-06 0)
(0.059634346 5.1673145e-06 0)
(0.059592679 4.9477312e-06 0)
(0.059542467 4.8945057e-06 0)
(0.059503688 4.6872723e-06 0)
(0.059455133 4.6648633e-06 0)
(0.059418955 4.4681714e-06 0)
(0.059371676 4.4764083e-06 0)
(0.059337854 4.2873688e-06 0)
(0.059291503 4.3250807e-06 0)
(0.059259848 4.1395067e-06 0)
(0.059214125 4.2044827e-06 0)
(0.05918452 4.0169144e-06 0)
(0.059139181 4.1062099e-06 0)
(0.059111591 3.910568e-06 0)
(0.059066445 4.0212569e-06 0)
(0.059040909 3.8117025e-06 0)
(0.058995798 3.9420974e-06 0)
(0.058972415 3.714169e-06 0)
(0.058927178 3.8647758e-06 0)
(0.058906081 3.6163466e-06 0)
(0.058860508 3.7906644e-06 0)
(0.058841838 3.5221568e-06 0)
(0.058795613 3.7266901e-06 0)
(0.058779513 3.4409232e-06 0)
(0.058732144 3.6844471e-06 0)
(0.058718788 3.3857046e-06 0)
(0.058669512 3.6779824e-06 0)
(0.058659241 3.3709555e-06 0)
(0.058606788 3.7158606e-06 0)
(0.058600671 3.3977341e-06 0)
(0.058542359 4.0217481e-06 0)
(0.48501103 0.02056181 0)
(0.48876925 0.026122984 0)
(0.48430993 0.023583001 0)
(0.47044894 0.017965023 0)
(0.45158305 0.012980148 0)
(0.43043356 0.0097476705 0)
(0.40943217 0.007679641 0)
(0.38991045 0.0062017221 0)
(0.37225147 0.0050887368 0)
(0.35635736 0.004253764 0)
(0.34201005 0.0036248575 0)
(0.32902174 0.0031397878 0)
(0.3172413 0.0027544218 0)
(0.30653636 0.0024413546 0)
(0.2967842 0.0021833742 0)
(0.28787114 0.0019683928 0)
(0.27969481 0.0017872408 0)
(0.27216538 0.0016328757 0)
(0.26520552 0.0014999524 0)
(0.25874911 0.0013844193 0)
(0.25273975 0.0012831855 0)
(0.24712919 0.0011938475 0)
(0.24187599 0.0011145138 0)
(0.23694437 0.0010436639 0)
(0.23230331 0.00098006993 0)
(0.22792573 0.00092271967 0)
(0.22378793 0.00087078213 0)
(0.21986906 0.00082355847 0)
(0.21615067 0.00078046843 0)
(0.21261645 0.00074101533 0)
(0.20925179 0.00070478323 0)
(0.20604373 0.00067141018 0)
(0.20298058 0.00064059079 0)
(0.20005189 0.00061205546 0)
(0.19724815 0.00058557493 0)
(0.19456086 0.00056094472 0)
(0.19198221 0.00053798917 0)
(0.18950519 0.00051655121 0)
(0.18712333 0.00049649362 0)
(0.18483079 0.00047769443 0)
(0.18262215 0.00046004446 0)
(0.18049251 0.00044344814 0)
(0.1784373 0.00042781724 0)
(0.17645236 0.00041307622 0)
(0.17453382 0.00039915302 0)
(0.17267811 0.00038598714 0)
(0.17088194 0.00037351949 0)
(0.16914223 0.00036170053 0)
(0.16745614 0.00035048207 0)
(0.16582103 0.0003398223 0)
(0.16423443 0.00032968271 0)
(0.16269403 0.00032002665 0)
(0.1611977 0.00031082442 0)
(0.15974341 0.00030204233 0)
(0.15832928 0.00029365861 0)
(0.15695357 0.0002856412 0)
(0.1556146 0.00027797546 0)
(0.15431083 0.00027063045 0)
(0.15304078 0.00026359742 0)
(0.15180311 0.00025684633 0)
(0.15059648 0.00025037284 0)
(0.14941972 0.00024414825 0)
(0.14827162 0.00023817135 0)
(0.14715114 0.00023241537 0)
(0.14605721 0.00022688094 0)
(0.14498891 0.0002215433 0)
(0.14394525 0.00021640419 0)
(0.14292543 0.00021144075 0)
(0.14192855 0.00020665611 0)
(0.1409539 0.00020202846 0)
(0.14000067 0.00019756271 0)
(0.13906821 0.00019323678 0)
(0.13815579 0.00018905838 0)
(0.13726285 0.00018500416 0)
(0.13638869 0.00018108546 0)
(0.13553283 0.00017727662 0)
(0.13469463 0.00017359281 0)
(0.13387365 0.00017000582 0)
(0.13306932 0.00016653465 0)
(0.13228124 0.00016314889 0)
(0.13150888 0.00015987057 0)
(0.13075189 0.00015666754 0)
(0.13000977 0.000153564 0)
(0.12928223 0.00015052707 0)
(0.1285688 0.00014758233 0)
(0.12786922 0.00014469674 0)
(0.12718305 0.0001418962 0)
(0.12651006 0.00013914838 0)
(0.12584986 0.00013647887 0)
(0.12520223 0.00013385675 0)
(0.12456682 0.00013130649 0)
(0.12394342 0.00012879902 0)
(0.12333173 0.0001263571 0)
(0.12273153 0.00012395412 0)
(0.12214258 0.00012161122 0)
(0.12156465 0.00011930327 0)
(0.12099755 0.00011705078 0)
(0.12044103 0.00011482928 0)
(0.11989498 0.00011265935 0)
(0.11935909 0.00011051647 0)
(0.11883334 0.00010842235 0)
(0.11831737 0.00010635075 0)
(0.11781125 0.00010432599 0)
(0.11731456 0.00010231945 0)
(0.11682746 0.00010035804 0)
(0.11634945 9.8410966e-05 0)
(0.11588081 9.650739e-05 0)
(0.11542095 9.4614988e-05 0)
(0.11497026 9.2764053e-05 0)
(0.11452806 9.0922133e-05 0)
(0.11409485 8.9119179e-05 0)
(0.11366984 8.7323995e-05 0)
(0.11325369 8.5564917e-05 0)
(0.11284546 8.3813253e-05 0)
(0.11244598 8.209445e-05 0)
(0.11205414 8.0383361e-05 0)
(0.11167097 7.8701971e-05 0)
(0.11129516 7.7028743e-05 0)
(0.11092796 7.5382461e-05 0)
(0.11056785 7.3744737e-05 0)
(0.1102163 7.2131817e-05 0)
(0.10987156 7.0527681e-05 0)
(0.10953537 6.8946603e-05 0)
(0.10920569 6.7374827e-05 0)
(0.10888457 6.5824234e-05 0)
(0.10856966 6.4284247e-05 0)
(0.10826334 6.2763083e-05 0)
(0.1079629 6.125476e-05 0)
(0.10767111 5.9762417e-05 0)
(0.10738485 5.8285963e-05 0)
(0.10710732 5.6822358e-05 0)
(0.10683494 5.5378201e-05 0)
(0.10657139 5.3943741e-05 0)
(0.10631259 5.2532757e-05 0)
(0.10606275 5.1128159e-05 0)
(0.1058172 4.9751598e-05 0)
(0.10558077 4.837798e-05 0)
(0.10534816 4.7037516e-05 0)
(0.10512484 4.5696277e-05 0)
(0.1049048 4.439403e-05 0)
(0.10469426 4.3086829e-05 0)
(0.10448643 4.1825325e-05 0)
(0.10428833 4.0553992e-05 0)
(0.10409231 3.9336064e-05 0)
(0.10390629 3.8102625e-05 0)
(0.10372165 3.6931253e-05 0)
(0.10354731 3.5738008e-05 0)
(0.1033736 3.4616248e-05 0)
(0.10321053 3.346566e-05 0)
(0.10304725 3.2396831e-05 0)
(0.10289501 3.1291397e-05 0)
(0.10274166 3.0279041e-05 0)
(0.10259978 2.922133e-05 0)
(0.10245579 2.826917e-05 0)
(0.10232378 2.7261622e-05 0)
(0.10218858 2.637341e-05 0)
(0.1020659 2.5418335e-05 0)
(0.10193888 2.4597577e-05 0)
(0.101825 2.3696865e-05 0)
(0.10170551 2.2946729e-05 0)
(0.10159988 2.2101706e-05 0)
(0.10148726 2.1424863e-05 0)
(0.10138932 2.0636151e-05 0)
(0.10128289 2.0034766e-05 0)
(0.10119206 1.9302259e-05 0)
(0.10109114 1.8777976e-05 0)
(0.10100688 1.8100822e-05 0)
(0.10091078 1.7654801e-05 0)
(0.10083253 1.7031378e-05 0)
(0.10074057 1.6664124e-05 0)
(0.10066782 1.6091815e-05 0)
(0.10057935 1.5802927e-05 0)
(0.10051161 1.5277597e-05 0)
(0.10042598 1.506516e-05 0)
(0.10036285 1.4580553e-05 0)
(0.10027947 1.4440476e-05 0)
(0.10022059 1.3987607e-05 0)
(0.10013894 1.3913259e-05 0)
(0.10008407 1.3480309e-05 0)
(0.1000037 1.3462853e-05 0)
(0.099952699 1.3035972e-05 0)
(0.099873233 1.30656e-05 0)
(0.099826097 1.2630827e-05 0)
(0.09974723 1.2698979e-05 0)
(0.099704047 1.2244714e-05 0)
(0.099625499 1.2346715e-05 0)
(0.099586435 1.1866402e-05 0)
(0.099507904 1.2003371e-05 0)
(0.099473167 1.1497342e-05 0)
(0.099394254 1.1677003e-05 0)
(0.099364062 1.1152971e-05 0)
(0.099284199 1.1388279e-05 0)
(0.099258784 1.0861079e-05 0)
(0.099177143 1.1166695e-05 0)
(0.099156801 1.0658108e-05 0)
(0.099072174 1.1043293e-05 0)
(0.099057436 1.0585488e-05 0)
(0.098967989 1.1036944e-05 0)
(0.098960118 1.0657586e-05 0)
(0.098863064 1.1524385e-05 0)
(0.48432005 0.017835123 0)
(0.49043053 0.024335103 0)
(0.49746305 0.023345161 0)
(0.49889 0.019096216 0)
(0.49461544 0.014928795 0)
(0.48639294 0.012194776 0)
(0.47626162 0.01041337 0)
(0.46547386 0.0090495105 0)
(0.45456275 0.0079128808 0)
(0.44370499 0.006971191 0)
(0.43297916 0.0061979386 0)
(0.4224673 0.0055549715 0)
(0.41225292 0.0050087298 0)
(0.40240338 0.0045375659 0)
(0.39296209 0.0041285128 0)
(0.38395002 0.0037724201 0)
(0.37537149 0.0034615848 0)
(0.36721944 0.0031892195 0)
(0.35947976 0.0029494894 0)
(0.35213401 0.0027374867 0)
(0.34516149 0.0025491372 0)
(0.33854051 0.002381045 0)
(0.33224931 0.0022303888 0)
(0.32626668 0.0020947976 0)
(0.32057224 0.0019722872 0)
(0.31514681 0.0018611767 0)
(0.30997234 0.0017600537 0)
(0.3050321 0.0016677095 0)
(0.30031053 0.0015831228 0)
(0.29579331 0.0015054095 0)
(0.29146716 0.0014338187 0)
(0.28731992 0.0013676922 0)
(0.2833403 0.0013064682 0)
(0.27951799 0.0012496487 0)
(0.27584338 0.0011968061 0)
(0.27230772 0.001147558 0)
(0.26890282 0.0011015732 0)
(0.26562122 0.0010585545 0)
(0.26245591 0.0010182412 0)
(0.2594005 0.00098040017 0)
(0.25644897 0.00094482299 0)
(0.25359584 0.00091132502 0)
(0.2508359 0.00087973744 0)
(0.24816441 0.00084991275 0)
(0.24557689 0.00082171277 0)
(0.24306918 0.00079501828 0)
(0.24063741 0.00076971562 0)
(0.23827795 0.00074570669 0)
(0.23598741 0.00072289823 0)
(0.23376261 0.00070120758 0)
(0.23160059 0.00068055926 0)
(0.22949854 0.0006608814 0)
(0.22745385 0.00064211432 0)
(0.22546405 0.00062419326 0)
(0.22352684 0.00060707256 0)
(0.22164001 0.00059069211 0)
(0.21980153 0.00057501873 0)
(0.21800944 0.00055999561 0)
(0.21626192 0.00054559999 0)
(0.21455724 0.00053177778 0)
(0.21289375 0.00051851425 0)
(0.21126994 0.0005057584 0)
(0.2096843 0.00049350142 0)
(0.20813549 0.00048169597 0)
(0.20662215 0.00047033711 0)
(0.20514308 0.00045938114 0)
(0.20369704 0.00044882586 0)
(0.20228297 0.00043863096 0)
(0.20089974 0.00042879706 0)
(0.1995464 0.00041928589 0)
(0.19822192 0.00041010145 0)
(0.19692544 0.00040120551 0)
(0.19565604 0.00039260687 0)
(0.19441293 0.00038426574 0)
(0.19319527 0.00037619681 0)
(0.19200236 0.00036835716 0)
(0.19083342 0.00036076772 0)
(0.18968783 0.00035338197 0)
(0.18856486 0.00034622704 0)
(0.18746397 0.00033925317 0)
(0.18638448 0.00033249253 0)
(0.1853259 0.00032589282 0)
(0.18428761 0.00031949001 0)
(0.18326917 0.00031323057 0)
(0.18227001 0.00030715303 0)
(0.18128973 0.00030120351 0)
(0.18032781 0.00029542164 0)
(0.17938387 0.00028975434 0)
(0.17845747 0.00028424136 0)
(0.17754824 0.00027883144 0)
(0.17665578 0.00027356321 0)
(0.17577974 0.00026838798 0)
(0.1749198 0.00026334246 0)
(0.17407557 0.00025838099 0)
(0.17324684 0.00025353878 0)
(0.17243318 0.00024877195 0)
(0.17163447 0.0002441151 0)
(0.17085022 0.0002395254 0)
(0.17008044 0.00023503789 0)
(0.16932457 0.00023060909 0)
(0.16858273 0.00022627676 0)
(0.16785428 0.00022199407 0)
(0.16713949 0.00021780346 0)
(0.16643759 0.00021365401 0)
(0.16574902 0.00020959283 0)
(0.16507288 0.00020556498 0)
(0.16440978 0.00020162187 0)
(0.16375868 0.00019770555 0)
(0.16312038 0.00019387001 0)
(0.16249365 0.00019005627 0)
(0.16187951 0.00018631893 0)
(0.16127655 0.00018259985 0)
(0.16068602 0.00017895238 0)
(0.16010627 0.00017532108 0)
(0.15953882 0.00017175626 0)
(0.15898176 0.00016820653 0)
(0.15843691 0.00016471847 0)
(0.15790206 0.00016124478 0)
(0.15737937 0.00015782871 0)
(0.15686627 0.00015442628 0)
(0.15636533 0.00015107857 0)
(0.15587356 0.00014774355 0)
(0.15539398 0.00014446115 0)
(0.15492313 0.00014119102 0)
(0.15446452 0.00013797142 0)
(0.1540142 0.00013476488 0)
(0.15357621 0.0001316063 0)
(0.15314602 0.000128463 0)
(0.15272829 0.00012536456 0)
(0.15231784 0.00012228488 0)
(0.15192002 0.00011924681 0)
(0.15152892 0.00011623174 0)
(0.15115064 0.00011325521 0)
(0.15077847 0.00011030665 0)
(0.15041937 0.00010739358 0)
(0.15006571 0.00010451422 0)
(0.1497254 0.00010166737 0)
(0.1493898 9.8860776e-05 0)
(0.14906787 9.6083511e-05 0)
(0.14874986 9.3354099e-05 0)
(0.14844587 9.0650418e-05 0)
(0.14814494 8.800337e-05 0)
(0.14785844 8.5377654e-05 0)
(0.14757403 8.2818767e-05 0)
(0.14730452 8.0275846e-05 0)
(0.14703606 7.7811213e-05 0)
(0.14678301 7.5356434e-05 0)
(0.14652987 7.2992381e-05 0)
(0.14629271 7.0631388e-05 0)
(0.14605421 6.8374632e-05 0)
(0.14583236 6.6113181e-05 0)
(0.14560778 6.3970747e-05 0)
(0.14540057 6.1814617e-05 0)
(0.14518916 5.9793707e-05 0)
(0.14499593 5.7748358e-05 0)
(0.14479686 5.5855969e-05 0)
(0.1446169 5.3926444e-05 0)
(0.14442932 5.2168908e-05 0)
(0.14426189 5.0359286e-05 0)
(0.14408492 4.874204e-05 0)
(0.14392927 4.7055141e-05 0)
(0.14376199 4.5582407e-05 0)
(0.14361734 4.4019578e-05 0)
(0.14345883 4.2694277e-05 0)
(0.14332442 4.1255243e-05 0)
(0.14317372 4.0078921e-05 0)
(0.14304881 3.876172e-05 0)
(0.14290497 3.7734493e-05 0)
(0.14278884 3.6535315e-05 0)
(0.14265094 3.565552e-05 0)
(0.1425429 3.4568268e-05 0)
(0.14241004 3.3831927e-05 0)
(0.14230947 3.284738e-05 0)
(0.1421808 3.2247237e-05 0)
(0.14208718 3.1352191e-05 0)
(0.14196191 3.0876822e-05 0)
(0.14187481 3.0053415e-05 0)
(0.14175223 2.968708e-05 0)
(0.14167137 2.8913167e-05 0)
(0.14155086 2.8636825e-05 0)
(0.14147611 2.7888034e-05 0)
(0.14135716 2.7681927e-05 0)
(0.14128851 2.6935297e-05 0)
(0.14117068 2.678302e-05 0)
(0.14110828 2.6021472e-05 0)
(0.14099114 2.5914121e-05 0)
(0.1409352 2.5130904e-05 0)
(0.14081827 2.5069812e-05 0)
(0.14076908 2.4271167e-05 0)
(0.14065176 2.4268231e-05 0)
(0.14060961 2.3474022e-05 0)
(0.14049111 2.3548198e-05 0)
(0.14045631 2.2791292e-05 0)
(0.14033551 2.2961792e-05 0)
(0.14030845 2.2287582e-05 0)
(0.14018385 2.2563357e-05 0)
(0.14016508 2.2028737e-05 0)
(0.14003467 2.2403399e-05 0)
(0.14002517 2.2017818e-05 0)
(0.13988661 2.2941201e-05 0)
(0.48572414 0.016050337 0)
(0.49006147 0.022582873 0)
(0.49782637 0.022343343 0)
(0.50337006 0.018866173 0)
(0.5048849 0.015206604 0)
(0.50314065 0.012809636 0)
(0.49965747 0.01132797 0)
(0.49539607 0.010222086 0)
(0.49068833 0.0092709475 0)
(0.48558281 0.0084486712 0)
(0.48008585 0.0077521324 0)
(0.47424444 0.0071563314 0)
(0.46813628 0.0066328175 0)
(0.46184467 0.0061630198 0)
(0.45544444 0.0057376837 0)
(0.44899788 0.0053518662 0)
(0.44255563 0.0050017364 0)
(0.43615841 0.0046836405 0)
(0.42983867 0.0043941588 0)
(0.42362176 0.0041302223 0)
(0.41752701 0.0038891501 0)
(0.41156864 0.0036685776 0)
(0.40575662 0.0034664255 0)
(0.40009743 0.003280832 0)
(0.39459471 0.0031101467 0)
(0.38924986 0.0029528855 0)
(0.38406248 0.0028077374 0)
(0.37903087 0.0026735212 0)
(0.37415225 0.0025491963 0)
(0.36942314 0.0024338224 0)
(0.36483945 0.0023265735 0)
(0.36039684 0.0022266999 0)
(0.3560906 0.0021335443 0)
(0.35191605 0.0020465074 0)
(0.34786833 0.0019650635 0)
(0.34394273 0.001888732 0)
(0.3401345 0.0018170895 0)
(0.33643909 0.0017497485 0)
(0.33285198 0.0016863645 0)
(0.32936889 0.0016266243 0)
(0.32598561 0.0015702453 0)
(0.32269816 0.0015169729 0)
(0.31950268 0.0014665735 0)
(0.31639548 0.0014188392 0)
(0.31337306 0.0013735754 0)
(0.31043203 0.0013306109 0)
(0.30756921 0.0012897831 0)
(0.3047815 0.0012509489 0)
(0.30206605 0.0012139732 0)
(0.29942 0.0011787338 0)
(0.29684079 0.0011451199 0)
(0.29432582 0.0011130245 0)
(0.29187276 0.0010823583 0)
(0.28947926 0.0010530247 0)
(0.28714322 0.001024954 0)
(0.28486248 0.00099805639 0)
(0.28263515 0.00097227988 0)
(0.28045928 0.0009475398 0)
(0.27833313 0.00092379877 0)
(0.27625495 0.00090097645 0)
(0.27422314 0.00087904709 0)
(0.27223612 0.00085793498 0)
(0.27029243 0.00083762315 0)
(0.26839064 0.00081804115 0)
(0.26652941 0.00079917799 0)
(0.26470745 0.00078096843 0)
(0.26292352 0.000763406 0)
(0.26117645 0.00074643021 0)
(0.25946511 0.00073003909 0)
(0.25778844 0.00071417504 0)
(0.2561454 0.00069884132 0)
(0.25453502 0.0006839806 0)
(0.25295635 0.00066960316 0)
(0.2514085 0.00065564967 0)
(0.24989061 0.0006421389 0)
(0.24840186 0.00062900739 0)
(0.24694146 0.00061628287 0)
(0.24550865 0.00060389707 0)
(0.24410273 0.00059188657 0)
(0.24272299 0.00058017868 0)
(0.24136878 0.00056881737 0)
(0.24003946 0.00055772637 0)
(0.23873445 0.00054695539 0)
(0.23745313 0.00053642627 0)
(0.23619499 0.0005261928 0)
(0.23495945 0.00051617603 0)
(0.23374605 0.00050643199 0)
(0.23255425 0.00049688236 0)
(0.23138367 0.0004875841 0)
(0.23023373 0.00047846085 0)
(0.22910417 0.00046956884 0)
(0.22799438 0.00046083461 0)
(0.22690422 0.00045231285 0)
(0.22583302 0.00044393325 0)
(0.22478076 0.00043574948 0)
(0.2237467 0.00042769314 0)
(0.22273099 0.0004198177 0)
(0.22173275 0.00041205558 0)
(0.22075234 0.00040446203 0)
(0.21978873 0.00039696726 0)
(0.21884247 0.00038963177 0)
(0.21791238 0.00038238008 0)
(0.21699924 0.00037528018 0)
(0.21610168 0.00036824999 0)
(0.21522071 0.00036136521 0)
(0.21435476 0.0003545371 0)
(0.2135051 0.0003478485 0)
(0.21266991 0.00034120544 0)
(0.21185077 0.00033469566 0)
(0.21104559 0.0003282224 0)
(0.21025625 0.00032187591 0)
(0.20948036 0.00031555897 0)
(0.20872018 0.00030936195 0)
(0.20797294 0.00030318955 0)
(0.20724131 0.00029713005 0)
(0.20652212 0.00029109161 0)
(0.20581851 0.00028515972 0)
(0.20512681 0.00027924592 0)
(0.2044507 0.00027343367 0)
(0.20378597 0.00026763649 0)
(0.20313689 0.00026193769 0)
(0.20249864 0.00025625075 0)
(0.20187615 0.00025066035 0)
(0.20126391 0.00024507934 0)
(0.20066759 0.00023959337 0)
(0.20008089 0.00023411596 0)
(0.19951032 0.00022873174 0)
(0.19894873 0.00022335725 0)
(0.19840351 0.00021807369 0)
(0.19786656 0.00021280269 0)
(0.1973463 0.00020762051 0)
(0.19683353 0.00020245477 0)
(0.19633781 0.00019737631 0)
(0.19584875 0.00019231909 0)
(0.19537715 0.00018734806 0)
(0.19491129 0.00018240402 0)
(0.19446338 0.00017754548 0)
(0.1940202 0.00017272076 0)
(0.1935955 0.00016798098 0)
(0.19317443 0.00016328307 0)
(0.19277244 0.00015866938 0)
(0.19237289 0.00015410709 0)
(0.19199308 0.00014962755 0)
(0.19161437 0.00014521068 0)
(0.19125616 0.00014087418 0)
(0.1908976 0.00013661307 0)
(0.19056038 0.00013242934 0)
(0.1902212 0.00012833476 0)
(0.18990429 0.00012431402 0)
(0.18958369 0.00012039728 0)
(0.18928638 0.00011654996 0)
(0.18898347 0.00011282275 0)
(0.18870499 0.0001091592 0)
(0.18841884 0.00010563332 0)
(0.1881584 0.00010216333 0)
(0.18788801 9.8850012e-05 0)
(0.18764475 9.5582532e-05 0)
(0.18738908 9.2491725e-05 0)
(0.18716212 8.9433996e-05 0)
(0.18692007 8.6573975e-05 0)
(0.18670851 8.3731069e-05 0)
(0.18647894 8.1107841e-05 0)
(0.18628186 7.8482276e-05 0)
(0.18606364 7.6099408e-05 0)
(0.18588012 7.3690846e-05 0)
(0.18567205 7.1549243e-05 0)
(0.1855012 6.9354284e-05 0)
(0.18530213 6.7451993e-05 0)
(0.18514309 6.5463879e-05 0)
(0.18495186 6.3795511e-05 0)
(0.18480382 6.2003437e-05 0)
(0.18461931 6.0559334e-05 0)
(0.18448155 5.8947356e-05 0)
(0.1843027 5.7712333e-05 0)
(0.1841746 5.6258335e-05 0)
(0.18400043 5.521071e-05 0)
(0.18388151 5.3885858e-05 0)
(0.18371111 5.2997694e-05 0)
(0.18360105 5.1767571e-05 0)
(0.18343364 5.1006594e-05 0)
(0.18333228 4.9834793e-05 0)
(0.18316717 4.9168629e-05 0)
(0.18307454 4.8022346e-05 0)
(0.18291111 4.7424626e-05 0)
(0.18282737 4.6281385e-05 0)
(0.18266501 4.5737492e-05 0)
(0.18259043 4.4591376e-05 0)
(0.18242849 4.4102076e-05 0)
(0.1823634 4.2967034e-05 0)
(0.18220109 4.2548267e-05 0)
(0.18214586 4.1458396e-05 0)
(0.18198217 4.1136069e-05 0)
(0.18193716 4.0143043e-05 0)
(0.18177081 3.9944983e-05 0)
(0.1817364 3.9112938e-05 0)
(0.18156576 3.9061871e-05 0)
(0.18154241 3.8451887e-05 0)
(0.18136553 3.8581073e-05 0)
(0.18135384 3.8165703e-05 0)
(0.18116869 3.8954048e-05 0)
(0.48712946 0.014785074 0)
(0.49046342 0.021076565 0)
(0.4971269 0.021399815 0)
(0.50295031 0.018455104 0)