/*--------------------------------*- C++ -*----------------------------------*\
| =========                 |                                                 |
| \\      /  F ield         | OpenFOAM: The Open Source CFD Toolbox           |
|  \\    /   O peration     | Version:  5.x                                   |
|   \\  /    A nd           | Web:      www.OpenFOAM.org                      |
|    \\/     M anipulation  |                                                 |
\*---------------------------------------------------------------------------*/
FoamFile
{
    version     2.0;
    format      ascii;
    class       volScalarField;
    location    "0.1";
    object      p;
}
// * * * * * * * * * * * * * * * * * * * * * * * * * * * * * * * * * * * * * //

dimensions      [0 2 -2 0 0 0 0];

internalField   nonuniform List<scalar> 
21600
(
0.014722266
0.0094644176
0.0040276856
0.00062801058
-0.00052212969
-0.00039681705
6.6242017e-06
0.00029788245
0.00043903627
0.00049050318
0.00050511444
0.00050852495
0.00050888933
0.00050711795
0.00050276438
0.00049592738
0.00048671544
0.00047522368
0.00046208046
0.00044782659
0.00043233721
0.00041566929
0.00039843598
0.00038084626
0.00036258501
0.00034383557
0.00032524788
0.00030695851
0.00028873223
0.00027086978
0.00025405435
0.00023852703
0.00022419653
0.00021135041
0.00020063228
0.0001924432
0.00018683416
0.00018393743
0.00018417857
0.00018800834
0.00019558726
0.00020679237
0.00022147781
0.00023963887
0.00026126677
0.00028603049
0.00031311973
0.00034137657
0.00036957072
0.00039665119
0.00042191748
0.00044507718
0.00046617053
0.0004854229
0.00050311856
0.00051953375
0.00053490501
0.00054937697
0.00056303826
0.00057593301
0.0005880748
0.0005994924
0.00061020087
0.0006202161
0.00062954208
0.00063820049
0.00064621525
0.00065361294
0.00066040766
0.0006666243
0.00067228533
0.00067740964
0.00068201845
0.00068612417
0.00068974723
0.00069290651
0.0006956247
0.00069789408
0.0006997554
0.00070122051
0.0007022992
0.00070300281
0.00070334128
0.00070332839
0.00070297689
0.00070230085
0.00070131622
0.00070003483
0.00069847129
0.00069663576
0.00069453831
0.0006921899
0.00068959803
0.00068677419
0.00068372728
0.00068046808
0.00067700814
0.00067335813
0.00066953071
0.00066553654
0.00066138754
0.00065709397
0.00065266506
0.00064811041
0.00064343666
0.00063865119
0.00063376051
0.00062876958
0.00062368372
0.00061850755
0.00061324492
0.00060790022
0.00060247687
0.00059697782
0.00059140621
0.00058576505
0.00058005718
0.00057428477
0.00056845048
0.00056255664
0.00055660545
0.00055059942
0.00054454048
0.00053843029
0.0005322711
0.00052606455
0.00051981237
0.00051351632
0.00050717766
0.00050079798
0.00049437879
0.00048792153
0.00048142748
0.00047489807
0.00046833434
0.00046173744
0.00045510852
0.00044844859
0.00044175878
0.00043504007
0.00042829357
0.00042152018
0.00041472105
0.00040789679
0.00040104832
0.00039417612
0.0003872813
0.00038036453
0.00037342671
0.00036646833
0.00035949027
0.00035249295
0.00034547733
0.0003384438
0.00033139326
0.00032432584
0.00031724245
0.00031014335
0.00030302953
0.00029590149
0.00028875982
0.00028160465
0.00027443661
0.00026725585
0.00026006316
0.00025285877
0.0002456435
0.00023841746
0.00023118149
0.00022393545
0.00021668011
0.00020941536
0.00020214212
0.00019486023
0.00018757091
0.00018027372
0.0001729696
0.0001656583
0.00015834068
0.00015101658
0.00014368711
0.00013635166
0.00012901123
0.00012166529
0.00011431502
0.00010695995
9.960153e-05
9.2238901e-05
8.4873305e-05
7.7504058e-05
7.013225e-05
6.2757362e-05
5.5380575e-05
4.8001059e-05
4.0620064e-05
3.3236717e-05
2.5852496e-05
1.8466565e-05
1.1080388e-05
3.6931738e-06
0.013472746
0.0092698037
0.0041633838
0.00083166656
-0.00036590389
-0.00029993977
6.79896e-05
0.00033798731
0.00046681575
0.00051165959
0.00052262046
0.00052366614
0.00052221113
0.00051892789
0.00051329644
0.00050538889
0.00049527698
0.00048300547
0.00046918234
0.00045434488
0.00043833955
0.00042119688
0.00040353859
0.00038557707
0.00036697046
0.00034788914
0.00032900009
0.00031044189
0.00029195612
0.00027383644
0.00025678256
0.00024103901
0.00022649758
0.00021343876
0.00020251741
0.00019414145
0.00018835408
0.00018527921
0.00018534503
0.00018901067
0.00019644029
0.00020750708
0.00022206001
0.00024009531
0.00026161204
0.00028628731
0.00031331326
0.00034152884
0.00036969785
0.00039676255
0.0004220165
0.0004451639
0.00046624448
0.00048548373
0.00050316613
0.0005195687
0.00053492191
0.00054938603
0.00056304026
0.00057592792
0.00058806273
0.00059947575
0.00061018036
0.00062019291
0.00062951683
0.00063817373
0.0006461873
0.00065358501
0.0006603795
0.00066659626
0.00067225769
0.00067738246
0.00068199221
0.00068609876
0.00068972273
0.00069288291
0.00069560284
0.00069787265
0.00069973524
0.00070120161
0.00070228153
0.00070298643
0.00070332603
0.00070331423
0.00070296378
0.00070228863
0.00070130491
0.00070002435
0.00069846163
0.00069662692
0.00069453017
0.00069218248
0.00068959124
0.000686768
0.00068372168
0.00068046297
0.00067700343
0.00067335374
0.00066952665
0.00066553278
0.00066138402
0.00065709066
0.0006526619
0.00064810742
0.00064343388
0.00063864856
0.00063375799
0.00062876718
0.00062368144
0.00061850542
0.00061324292
0.0006078983
0.00060247505
0.0005969761
0.00059140459
0.00058576352
0.00058005573
0.00057428338
0.00056844917
0.0005625554
0.00055660427
0.00055059829
0.00054453942
0.00053842929
0.00053227014
0.00052606365
0.0005198115
0.0005135155
0.00050717689
0.00050079723
0.00049437808
0.00048792086
0.00048142685
0.00047489747
0.00046833377
0.00046173689
0.000455108
0.0004484481
0.00044175831
0.00043503962
0.00042829315
0.00042151978
0.00041472068
0.00040789644
0.00040104798
0.00039417579
0.00038728099
0.00038036424
0.00037342644
0.00036646807
0.00035949002
0.00035249271
0.00034547711
0.00033844359
0.00033139307
0.00032432566
0.00031724228
0.00031014319
0.00030302938
0.00029590136
0.0002887597
0.00028160454
0.00027443651
0.00026725576
0.00026006308
0.00025285869
0.00024564344
0.0002384174
0.00023118145
0.00022393541
0.00021668007
0.00020941534
0.00020214211
0.00019486022
0.00018757091
0.00018027374
0.00017296962
0.00016565832
0.00015834071
0.00015101662
0.00014368716
0.00013635172
0.00012901129
0.00012166536
0.0001143151
0.00010696003
9.960162e-05
9.2239003e-05
8.487341e-05
7.7504173e-05
7.0132368e-05
6.2757491e-05
5.5380717e-05
4.8001205e-05
4.0620214e-05
3.3236877e-05
2.5852663e-05
1.8466741e-05
1.1080561e-05
3.6933563e-06
0.012475459
0.0091074172
0.0044286617
0.0011687024
-0.00013600409
-0.00017604399
0.00013712236
0.00038398854
0.00050084192
0.00053789856
0.0005436288
0.00054111288
0.00053705146
0.00053171477
0.00052441185
0.00051514887
0.00050393819
0.00049075528
0.00047616957
0.00046069805
0.00044414724
0.00042651631
0.00040843188
0.0003901044
0.00037116162
0.00035176154
0.00033258843
0.00031377979
0.00029505155
0.00027669197
0.00025941871
0.00024347761
0.00022874142
0.00021548488
0.00020437609
0.00019582905
0.00018987706
0.0001866356
0.00018653722
0.00019005044
0.00019734229
0.0002082808
0.0002227098
0.00024062803
0.00026204347
0.00028664063
0.00031361195
0.00034179114
0.00036993515
0.00039697959
0.00042221304
0.00044533791
0.00046639493
0.00048561134
0.00050327279
0.00051965713
0.00053499512
0.0005494458
0.00056308955
0.00057596382
0.00058809601
0.00059950277
0.00061020236
0.00062020947
0.00062952771
0.00063818061
0.00064619035
0.00065358557
0.00066037762
0.00066659277
0.00067225299
0.00067737667
0.00068198639
0.00068609271
0.00068971649
0.00069287656
0.0006955982
0.00069786676
0.00069973003
0.00070119703
0.00070227755
0.00070298318
0.00070332331
0.00070331204
0.00070296206
0.00070228726
0.00070130394
0.00070002381
0.00069846148
0.00069662712
0.00069453066
0.00069218332
0.00068959243
0.0006867694
0.00068372321
0.00068046455
0.00067700509
0.00067335542
0.00066952825
0.00066553428
0.00066138543
0.00065709205
0.0006526632
0.0006481086
0.00064343501
0.00063864965
0.00063375907
0.00062876822
0.00062368242
0.0006185064
0.00061324391
0.00060789927
0.00060247598
0.00059697702
0.0005914055
0.00058576443
0.00058005665
0.00057428425
0.00056845001
0.00056255625
0.00055660511
0.0005505991
0.00054454022
0.00053843008
0.00053227091
0.00052606441
0.00051981225
0.00051351624
0.00050717762
0.00050079794
0.00049437877
0.00048792154
0.00048142752
0.00047489813
0.00046833441
0.00046173751
0.00045510862
0.0004484487
0.0004417589
0.00043504019
0.0004282937
0.00042152033
0.00041472122
0.00040789696
0.00040104848
0.00039417629
0.00038728148
0.00038036471
0.0003734269
0.00036646852
0.00035949047
0.00035249314
0.00034547753
0.000338444
0.00033139348
0.00032432606
0.00031724265
0.00031014356
0.00030302975
0.00029590172
0.00028876006
0.00028160487
0.00027443684
0.00026725608
0.00026006339
0.00025285899
0.00024564373
0.00023841769
0.00023118173
0.00022393568
0.00021668034
0.00020941559
0.00020214236
0.00019486046
0.00018757115
0.00018027398
0.00017296985
0.00016565854
0.00015834094
0.00015101683
0.00014368738
0.00013635193
0.0001290115
0.00012166555
0.00011431529
0.00010696022
9.9601811e-05
9.2239188e-05
8.4873592e-05
7.7504342e-05
7.0132538e-05
6.2757652e-05
5.5380882e-05
4.8001355e-05
4.0620365e-05
3.3237023e-05
2.5852812e-05
1.846689e-05
1.1080691e-05
3.6934666e-06
0.011626069
0.0089191516
0.0047042266
0.0015502782
0.00014952021
-1.1594771e-05
0.00023613416
0.00045354562
0.00055304153
0.0005772922
0.00057397122
0.00056545392
0.00055738236
0.00054913808
0.00053954604
0.00052841557
0.0005156691
0.00050121192
0.00048556072
0.00046919623
0.0004518858
0.0004335956
0.00041494173
0.00039612446
0.00037674635
0.00035695094
0.00033742772
0.0003183094
0.00029929154
0.00028065561
0.00026312875
0.0002469558
0.00023199486
0.00021851517
0.00020719283
0.00019844519
0.00019229784
0.00018885928
0.00018856408
0.0001918871
0.0001989979
0.00020976162
0.00022401874
0.00024176954
0.00026302813
0.00028748504
0.00031433515
0.00034241173
0.00037046997
0.00039744277
0.00042261546
0.00044568788
0.00046669931
0.00048587613
0.00050350329
0.00051985783
0.00053517026
0.0005495984
0.0005632225
0.00057607863
0.00058819376
0.00059958709
0.00061027739
0.00062026963
0.00062958092
0.00063822702
0.00064623103
0.00065362008
0.00066040481
0.00066661482
0.00067227099
0.00067739065
0.00068199759
0.00068610161
0.00068972327
0.00069288135
0.0006956044
0.00069786944
0.00069973277
0.00070119972
0.00070228021
0.0007029862
0.0007033264
0.00070331531
0.00070296554
0.00070229089
0.00070130781
0.00070002793
0.00069846583
0.00069663179
0.0006945356
0.00069218852
0.00068959783
0.00068677491
0.00068372878
0.00068047008
0.00067701051
0.00067336068
0.0006695333
0.0006655391
0.00066139001
0.00065709644
0.00065266737
0.00064811254
0.00064343878
0.00063865328
0.00063376257
0.00062877162
0.00062368568
0.00061850957
0.00061324702
0.0006079023
0.0006024789
0.00059697984
0.00059140825
0.00058576712
0.00058005931
0.00057428679
0.00056845248
0.00056255867
0.00055660748
0.0005506014
0.00054454245
0.00053843225
0.00053227303
0.00052606648
0.00051981427
0.0005135182
0.00050717953
0.0005007998
0.00049438057
0.0004879233
0.00048142923
0.0004748998
0.00046833603
0.00046173909
0.00045511016
0.00044845019
0.00044176035
0.0004350416
0.00042829507
0.00042152166
0.00041472252
0.00040789822
0.0004010497
0.00039417747
0.00038728263
0.00038036583
0.00037342799
0.00036646957
0.00035949149
0.00035249413
0.00034547849
0.00033844493
0.00033139438
0.00032432693
0.0003172435
0.00031014438
0.00030303056
0.00029590251
0.00028876082
0.0002816056
0.00027443754
0.00026725675
0.00026006404
0.00025285961
0.00024564435
0.00023841828
0.0002311823
0.00022393623
0.00021668087
0.00020941609
0.00020214285
0.00019486093
0.00018757161
0.00018027442
0.00017297027
0.00016565893
0.00015834133
0.0001510172
0.00014368774
0.00013635227
0.00012901182
0.00012166584
0.00011431559
0.0001069605
9.9602082e-05
9.2239445e-05
8.4873835e-05
7.7504557e-05
7.0132747e-05
6.2757839e-05
5.5381062e-05
4.8001505e-05
4.062051e-05
3.3237153e-05
2.5852938e-05
1.8467007e-05
1.1080783e-05
3.6935195e-06
0.010853061
0.0086744647
0.0049359623
0.0019215004
0.00044742495
0.00016979058
0.00034992632
0.0005374919
0.00061967965
0.00062963788
0.00061494945
0.00059848628
0.00058505796
0.00057295954
0.0005603354
0.0005466971
0.00053186192
0.00051567625
0.00049858413
0.00048100414
0.00046266943
0.00044351285
0.00042411197
0.0004046459
0.00038470849
0.00036442622
0.00034446966
0.0003249642
0.0003056012
0.00028665145
0.00026883212
0.00025238518
0.00023716691
0.0002234408
0.00021187719
0.00020289132
0.00019650796
0.00019283257
0.00019229499
0.00019536747
0.00020222115
0.0002127243
0.00022671822
0.00024420106
0.00026518547
0.00028936551
0.00031594547
0.00034377104
0.00037160888
0.00039839862
0.00042342578
0.00044638484
0.00046730731
0.00048641272
0.00050398113
0.00052028557
0.00053555338
0.0005499399
0.00056352493
0.00057634581
0.00058842875
0.00059979346
0.00061045888
0.00062042596
0.00062971414
0.00063834135
0.00064633272
0.00065370029
0.00066047673
0.00066667714
0.00067232501
0.00067743833
0.00068203748
0.00068613377
0.00068974941
0.00069290208
0.00069562518
0.00069788234
0.00069974422
0.00070120946
0.00070228837
0.00070299363
0.00070333296
0.00070332131
0.0007029712
0.0007022963
0.00070131317
0.00070003341
0.00069847151
0.00069663786
0.00069454203
0.00069219529
0.00068960492
0.00068678223
0.0006837363
0.00068047764
0.00067701801
0.00067336805
0.0006695405
0.0006655461
0.00066139677
0.00065710296
0.00065267366
0.00064811857
0.00064344461
0.00063865893
0.00063376804
0.00062877696
0.00062369086
0.00061851461
0.00061325196
0.00060790712
0.00060248359
0.00059698439
0.00059141268
0.00058577144
0.00058006359
0.00057429089
0.00056845646
0.00056256256
0.00055661129
0.00055060511
0.00054454605
0.00053843576
0.00053227644
0.00052606982
0.00051981752
0.00051352135
0.0005071826
0.00050080279
0.00049438348
0.00048792613
0.000481432
0.00047490248
0.00046833865
0.00046174162
0.00045511264
0.00044845258
0.00044176268
0.00043504385
0.00042829726
0.00042152379
0.00041472459
0.00040790023
0.00040105164
0.00039417935
0.00038728446
0.00038036761
0.00037342972
0.00036647124
0.00035949311
0.0003524957
0.00034548001
0.0003384464
0.00033139581
0.00032432831
0.00031724483
0.00031014568
0.00030303183
0.00029590373
0.00028876199
0.00028160672
0.00027443862
0.00026725779
0.00026006505
0.00025286058
0.00024564529
0.00023841918
0.00023118316
0.00022393706
0.00021668167
0.00020941684
0.00020214358
0.00019486163
0.00018757229
0.00018027507
0.00017297089
0.00016565951
0.00015834189
0.00015101773
0.00014368825
0.00013635275
0.00012901227
0.00012166625
0.00011431599
0.00010696087
9.960243e-05
9.2239768e-05
8.487413e-05
7.7504812e-05
7.0132986e-05
6.2758042e-05
5.5381243e-05
4.8001647e-05
4.0620635e-05
3.3237252e-05
2.5853025e-05
1.8467073e-05
1.1080828e-05
3.693509e-06
0.010153894
0.0083825509
0.0051156896
0.0022697519
0.00074452843
0.00035561412
0.00046602101
0.00062416851
0.0006916706
0.00068897717
0.00066288431
0.00063778042
0.00061837993
0.00060201803
0.00058604606
0.00056958697
0.00055234736
0.00053414434
0.00051535091
0.00049631445
0.00047674958
0.0004565624
0.00043626846
0.00041601952
0.00039542267
0.00037458572
0.00035413352
0.00033418328
0.00031444289
0.00029516768
0.00027704065
0.00026029941
0.00024481501
0.00023084478
0.00021903558
0.00020979315
0.00020314987
0.0001992134
0.00019840041
0.000201168
0.00020768547
0.00021783152
0.00023145426
0.00024854513
0.00026910462
0.00029282636
0.0003189328
0.00034629933
0.00037372278
0.00040016458
0.00042491739
0.00044766769
0.00046843113
0.00048741253
0.00050488137
0.00052110185
0.0005362936
0.00055060738
0.000564123
0.00057687992
0.00058890403
0.0006002149
0.00061082967
0.00062075226
0.0006300011
0.00063859346
0.00064655423
0.00065389339
0.00066064171
0.00066681806
0.00067244608
0.0006775446
0.00068212601
0.00068620928
0.00068981301
0.0006929547
0.00069567692
0.0006979189
0.00069977463
0.00070123452
0.00070230853
0.00070301028
0.00070334642
0.00070333241
0.0007029804
0.00070230397
0.00070131991
0.00070003964
0.00069847748
0.00069664388
0.0006945483
0.00069220196
0.0006896121
0.00068678985
0.00068374432
0.00068048592
0.00067702649
0.00067337664
0.00066954911
0.00066555467
0.00066140522
0.00065711129
0.00065268183
0.00064812654
0.00064345239
0.00063866654
0.00063377548
0.00062878429
0.00062369803
0.00061852161
0.00061325883
0.00060791385
0.00060249016
0.0005969908
0.00059141892
0.00058577755
0.00058006967
0.00057429672
0.00056846213
0.00056256809
0.00055661671
0.00055061039
0.00054455119
0.00053844077
0.00053228132
0.00052607458
0.00051982217
0.00051352586
0.000507187
0.00050080708
0.00049438765
0.00048793019
0.00048143595
0.00047490633
0.00046834238
0.00046174523
0.00045511599
0.00044845595
0.00044176599
0.00043504707
0.00042830039
0.00042152684
0.00041472757
0.00040790311
0.00040105443
0.00039418206
0.0003872871
0.00038037016
0.0003734322
0.00036647364
0.00035949544
0.00035249796
0.0003454822
0.00033844852
0.00033139786
0.00032433029
0.00031724675
0.00031014754
0.00030303364
0.00029590548
0.00028876368
0.00028160834
0.00027444018
0.00026725928
0.00026006649
0.00025286197
0.00024564663
0.00023842047
0.00023118439
0.00022393823
0.00021668279
0.00020941791
0.0002021446
0.00019486262
0.00018757323
0.00018027597
0.00017297174
0.00016566032
0.00015834266
0.00015101845
0.00014368893
0.00013635339
0.00012901286
0.0001216668
0.00011431651
0.00010696136
9.9602873e-05
9.2240174e-05
8.4874491e-05
7.7505118e-05
7.0133263e-05
6.2758267e-05
5.5381429e-05
4.8001783e-05
4.0620738e-05
3.3237318e-05
2.5853068e-05
1.8467081e-05
1.1080815e-05
3.693428e-06
0.0095320896
0.0080654625
0.0052446579
0.0025914139
0.0010381129
0.00054401784
0.00058196602
0.00070994851
0.0007650298
0.00075192558
0.00071503907
0.00068090342
0.00065505769
0.00063420363
0.00061482159
0.00059551167
0.00057581694
0.00055553218
0.00053496884
0.00051440447
0.00049354577
0.0004722779
0.00045104235
0.00042996191
0.00040867448
0.00038727052
0.00036631091
0.00034590547
0.00032579626
0.00030621975
0.00028780514
0.00027078465
0.00025505818
0.00024087606
0.00022884633
0.00021935837
0.00021245814
0.00020825912
0.00020715756
0.00020958391
0.00021570125
0.00022540385
0.00023855248
0.00025512827
0.00027510971
0.00029818638
0.00032360729
0.00035029387
0.0003770916
0.0004030001
0.0004273284
0.00044975405
0.00047026957
0.00048905769
0.00050637207
0.0005224629
0.00053753686
0.00055173725
0.00056514399
0.00057779953
0.00058972999
0.00060095427
0.00061148822
0.00062133861
0.00063052249
0.00063905638
0.00064696243
0.00065425331
0.00066095818
0.00066709602
0.00067268976
0.00067775857
0.00068231141
0.0006863671
0.00068994641
0.00069306591
0.0006957198
0.0006979983
0.00069984231
0.00070129117
0.00070235595
0.00070304994
0.0007033781
0.00070335782
0.00070300066
0.00070231982
0.00070133245
0.00070004985
0.00069848594
0.00069665123
0.00069455506
0.0006922087
0.00068961917
0.0006867973
0.00068375225
0.00068049434
0.00067703544
0.00067338604
0.0006695588
0.00066556455
0.00066141523
0.0006571214
0.00065269198
0.00064813661
0.0006434624
0.00063867646
0.00063378523
0.00062879394
0.00062370753
0.00061853094
0.00061326802
0.00060792287
0.00060249899
0.00059699943
0.00059142736
0.00058578578
0.00058007703
0.00057430453
0.00056846979
0.00056257559
0.00055662408
0.00055061759
0.00054455821
0.00053844762
0.000532288
0.00052608111
0.00051982855
0.00051353207
0.00050719306
0.00050081298
0.0004943934
0.00048793579
0.00048144141
0.00047491163
0.00046834755
0.00046175025
0.0004551209
0.0004484607
0.00044177061
0.00043505155
0.00042830475
0.00042153109
0.00041473169
0.0004079071
0.0004010583
0.00039418581
0.00038729075
0.00038037371
0.00037343564
0.00036647697
0.00035949867
0.00035250108
0.00034548522
0.00033845145
0.0003314007
0.00032433304
0.0003172494
0.00031015012
0.00030303615
0.0002959079
0.00028876602
0.00028161057
0.00027444232
0.00026726134
0.00026006847
0.00025286388
0.00024564848
0.00023842224
0.00023118608
0.00022393984
0.00021668434
0.00020941938
0.00020214601
0.00019486397
0.00018757452
0.0001802772
0.00017297291
0.00016566141
0.0001583437
0.00015101943
0.00014368985
0.00013635425
0.00012901366
0.00012166754
0.0001143172
0.000106962
9.9603455e-05
9.2240705e-05
8.4874956e-05
7.7505515e-05
7.0133612e-05
6.2758546e-05
5.538165e-05
4.8001939e-05
4.0620843e-05
3.3237373e-05
2.5853086e-05
1.8467045e-05
1.1080754e-05
3.6932876e-06
0.0089856812
0.0077411173
0.0053244854
0.0028824611
0.001325636
0.0007352062
0.00069823411
0.00079414765
0.00083820917
0.00081696745
0.00077023797
0.00072680692
0.00069396732
0.00066829964
0.00064542711
0.00062328102
0.00060114621
0.00057877702
0.00055643547
0.00053433821
0.0005121876
0.00048984818
0.00046768215
0.00044578169
0.00042382271
0.00040187972
0.00038044157
0.00035961097
0.00033917338
0.00031934501
0.00030069065
0.00028343645
0.00026751856
0.00025317908
0.00024097823
0.00023128485
0.00022416034
0.00021972432
0.00021834768
0.00022042667
0.00022611335
0.00023531897
0.00024792019
0.00026388532
0.00028316403
0.00030543983
0.00032999553
0.00035581128
0.00038179587
0.00040700149
0.00043076303
0.00045274987
0.00047292601
0.0004914469
0.00050854673
0.00052445743
0.00053936768
0.00055341043
0.00056666582
0.00057918015
0.00059097992
0.00060208246
0.00061250233
0.00062224892
0.00063133884
0.00063978775
0.00064761556
0.00065483671
0.00066147781
0.00066755793
0.00067309919
0.00067811861
0.00068262769
0.00068664472
0.00069018849
0.00069327519
0.00069590907
0.00069815365
0.00069997429
0.00070140244
0.0007024507
0.00070312578
0.00070344349
0.00070341167
0.0007030447
0.00070235569
0.00070136117
0.00070007245
0.00069850375
0.00069666549
0.0006945667
0.00069221871
0.00068962837
0.00068680619
0.00068376127
0.00068050369
0.00067704535
0.00067339659
0.00066956991
0.00066557623
0.00066142733
0.00065713378
0.00065270459
0.00064814933
0.00064347518
0.00063868906
0.00063379791
0.00062880658
0.00062372007
0.00061854332
0.00061328024
0.00060793489
0.00060251079
0.00059701101
0.0005914387
0.00058579689
0.00058008803
0.00057431519
0.00056848019
0.00056258575
0.00055663402
0.0005506273
0.00054456769
0.00053845686
0.00053229701
0.00052608992
0.00051983714
0.00051354044
0.00050720121
0.00050082092
0.00049440114
0.00048794333
0.00048144876
0.00047491878
0.0004683545
0.00046175701
0.00045512748
0.00044846709
0.00044177683
0.00043505759
0.00042831062
0.0004215368
0.00041473724
0.00040791248
0.00040106351
0.00039419088
0.00038729567
0.00038037848
0.00037344027
0.00036648146
0.00035950301
0.00035250529
0.0003454893
0.0003384554
0.00033140452
0.00032433673
0.00031725298
0.00031015359
0.00030303953
0.00029591116
0.00028876915
0.00028161358
0.00027444521
0.00026726412
0.00026007116
0.00025286647
0.00024565097
0.00023842463
0.00023118837
0.00022394202
0.00021668642
0.00020942137
0.00020214792
0.00019486581
0.00018757627
0.00018027886
0.00017297449
0.0001656629
0.00015834511
0.00015102077
0.0001436911
0.00013635541
0.00012901474
0.00012166855
0.00011431813
0.00010696287
9.9604241e-05
9.224142e-05
8.4875584e-05
7.7506057e-05
7.0134085e-05
6.2758929e-05
5.5381954e-05
4.8002161e-05
4.0620993e-05
3.3237457e-05
2.5853114e-05
1.8467005e-05
1.1080672e-05
3.6931154e-06
0.008506766
0.007422405
0.0053581042
0.0031385485
0.0016032244
0.00092919655
0.00081598377
0.00087688246
0.00091029686
0.00088304657
0.00082783237
0.00077513091
0.00073476113
0.00070385177
0.00067732635
0.00065232936
0.00062776342
0.00060329967
0.00057915959
0.00055551336
0.00053206404
0.00050865628
0.00048557088
0.00046286575
0.00044025494
0.00041779907
0.00039591325
0.00037469123
0.0003539638
0.00033392769
0.0003150804
0.00029764073
0.00028158183
0.00026713646
0.00025481442
0.00024496238
0.00023765559
0.0002330174
0.00023139094
0.00023313519
0.00023838757
0.00024707494
0.00025909033
0.00027438782
0.00029288499
0.00031425933
0.0003378323
0.00036264977
0.00038769174
0.00041207214
0.00043515906
0.00045661553
0.0004763749
0.00049456333
0.00051139428
0.00052707868
0.0005417832
0.00055562805
0.00056869375
0.00058103105
0.00059266651
0.00060361487
0.00061388963
0.00062350306
0.00063247217
0.00064081139
0.00064853802
0.000655667
0.0006622232
0.00066822577
0.00067369623
0.00067865061
0.00068310182
0.00068706615
0.00069056124
0.00069360283
0.00069620019
0.00069840204
0.00070019068
0.00070158958
0.00070261198
0.00070326452
0.00070356026
0.00070350966
0.00070312664
0.00070242426
0.00070141696
0.00070011794
0.00069854032
0.00069669494
0.00069459059
0.00069223836
0.00068964483
0.00068682063
0.00068377466
0.00068051677
0.0006770585
0.00067340997
0.00066958381
0.00066559082
0.00066144244
0.00065714948
0.00065272073
0.00064816574
0.00064349182
0.00063870583
0.00063381464
0.00062882327
0.00062373664
0.00061855971
0.00061329643
0.00060795082
0.00060252643
0.00059702636
0.00059145374
0.0005858116
0.00058010249
0.00057432926
0.00056849394
0.00056259918
0.00055664716
0.00055064013
0.0005445802
0.00053846907
0.00053230891
0.00052610152
0.00051984847
0.00051355146
0.00050721195
0.00050083138
0.00049441132
0.00048795324
0.00048145842
0.00047492817
0.00046836364
0.00046176589
0.00045513613
0.00044847548
0.00044178499
0.00043506552
0.00042831834
0.0004215443
0.00041474452
0.00040791954
0.00040107035
0.00039419752
0.00038730212
0.00038038474
0.00037344634
0.00036648735
0.00035950872
0.00035251082
0.00034549465
0.00033846059
0.00033140954
0.00032434158
0.00031725767
0.00031015815
0.00030304395
0.00029591543
0.00028877326
0.00028161753
0.00027444901
0.00026726778
0.00026007468
0.00025286987
0.00024565425
0.00023842777
0.00023119137
0.00022394489
0.00021668917
0.00020942399
0.00020215044
0.00019486823
0.00018757857
0.00018028105
0.00017297657
0.00016566487
0.00015834698
0.00015102253
0.00014369276
0.00013635696
0.00012901618
0.0001216699
0.00011431938
0.00010696404
9.9605299e-05
9.2242383e-05
8.4876439e-05
7.7506805e-05
7.0134739e-05
6.2759472e-05
5.5382394e-05
4.8002498e-05
4.0621235e-05
3.3237615e-05
2.5853195e-05
1.8467002e-05
1.1080606e-05
3.692947e-06
0.0080847795
0.0071179349
0.0053513967
0.0033566092
0.001866769
0.0011255241
0.0009365512
0.00095876062
0.0009807247
0.00094920606
0.00088724712
0.00082572585
0.00077742636
0.00074078233
0.00071034986
0.00068244335
0.0006554453
0.00062887094
0.00060289832
0.00057766629
0.00055288704
0.00052839091
0.00050437853
0.00048086704
0.0004576044
0.00043464113
0.00041232098
0.00039072421
0.00036972396
0.00034950057
0.00033048698
0.00031289222
0.00029672261
0.00028220105
0.00026978899
0.00025981098
0.00025235238
0.00024753677
0.00024567927
0.0002471019
0.00025192532
0.00026008931
0.0002715023
0.00028610374
0.00030377891
0.00032420049
0.00034673108
0.00037048409
0.00039451263
0.00041799608
0.00044034003
0.00046120324
0.00048048882
0.00049829449
0.00051481378
0.00053023535
0.00054470097
0.00055831629
0.0005711624
0.00058329495
0.00059474018
0.00060550938
0.00061561499
0.00062507217
0.00063389862
0.00064210738
0.0006497133
0.00065673152
0.00066318572
0.00066909496
0.00067447971
0.00067935494
0.00068373401
0.00068763216
0.00069106624
0.00069405187
0.00069660168
0.0006987535
0.0007005002
0.0007018606
0.0007028474
0.00070346839
0.00070373595
0.00070366092
0.00070325626
0.0007025348
0.00070151029
0.00070019564
0.00069860446
0.00069674759
0.00069463402
0.0006922735
0.00068967439
0.00068684575
0.00068379681
0.00068053719
0.00067707756
0.00067342894
0.00066960293
0.00066561043
0.00066146257
0.00065717007
0.00065274179
0.00064818713
0.00064351345
0.00063872761
0.00063383643
0.00062884501
0.00062375825
0.00061858109
0.00061331753
0.00060797156
0.00060254678
0.00059704631
0.00059147328
0.00058583071
0.00058012122
0.00057434751
0.00056851175
0.00056261656
0.00055666413
0.00055065669
0.00054459634
0.0005384848
0.00053232424
0.00052611646
0.00051986303
0.00051356563
0.00050722574
0.0005008448
0.00049442438
0.00048796595
0.00048147079
0.00047494019
0.00046837532
0.00046177725
0.00045514718
0.00044848621
0.00044179541
0.00043507565
0.00042832818
0.00042155386
0.0004147538
0.00040792854
0.00040107907
0.00039420599
0.00038731034
0.00038039271
0.00037345407
0.00036649484
0.00035951598
0.00035251785
0.00034550147
0.00033846718
0.00033141592
0.00032434776
0.00031726365
0.00031016394
0.00030304957
0.00029592085
0.00028877849
0.00028162256
0.00027445385
0.00026727243
0.00026007918
0.00025287421
0.00024565842
0.00023843178
0.00023119521
0.00022394857
0.00021669268
0.00020942735
0.00020215366
0.00019487132
0.00018758151
0.00018028387
0.00017297924
0.0001656674
0.00015834938
0.00015102481
0.00014369489
0.00013635897
0.00012901805
0.00012167165
0.000114321
0.00010696556
9.9606685e-05
9.2243649e-05
8.4877572e-05
7.7507809e-05
7.0135622e-05
6.2760223e-05
5.5383015e-05
4.8002994e-05
4.0621613e-05
3.3237889e-05
2.5853368e-05
1.8467074e-05
1.1080588e-05
3.6928139e-06
0.007709082
0.0068327267
0.0053125819
0.0035356791
0.0021124496
0.0013229147
0.0010610578
0.0010407669
0.001049289
0.0010145905
0.00094784029
0.00087842753
0.000822051
0.00077917434
0.00074448816
0.00071355497
0.00068411346
0.00065541797
0.00062757971
0.00060071766
0.00057456196
0.00054893839
0.00052397529
0.00049964255
0.00047571207
0.00045222791
0.00042946953
0.00040749885
0.00038622339
0.0003658102
0.00034663506
0.00032889563
0.00031262422
0.00029803272
0.00028553927
0.00027544799
0.00026784959
0.00026286384
0.00026077926
0.00026188338
0.00026627902
0.00027391592
0.0002847167
0.00029860702
0.00031544145
0.00033488959
0.00035635574
0.00037901931
0.00040200449
0.0004245561
0.0004461188
0.00046634872
0.00048512048
0.00050250598
0.00051868101
0.00053381185
0.00054801344
0.0005613756
0.00057398016
0.00058588803
0.00059712469
0.00060769703
0.00061761619
0.00062690011
0.00063556757
0.00064363043
0.00065110134
0.00065799523
0.0006643347
0.00067013822
0.00067542504
0.00068020942
0.00068450521
0.00068832719
0.0006916914
0.00069461302
0.00069710603
0.00069920051
0.00070089674
0.0007022108
0.0007031551
0.00070373848
0.00070397222
0.00070386695
0.00070343517
0.00070268916
0.00070164278
0.00070030894
0.00069870068
0.00069682879
0.00069470229
0.00069233079
0.00068972249
0.00068688671
0.00068383247
0.00068056911
0.00067710696
0.00067345672
0.00066963
0.00066563733
0.00066148957
0.00065719735