/*--------------------------------*- C++ -*----------------------------------*\
| =========                 |                                                 |
| \\      /  F ield         | OpenFOAM: The Open Source CFD Toolbox           |
|  \\    /   O peration     | Version:  5.x                                   |
|   \\  /    A nd           | Web:      www.OpenFOAM.org                      |
|    \\/     M anipulation  |                                                 |
\*---------------------------------------------------------------------------*/
FoamFile
{
    version     2.0;
    format      ascii;
    class       surfaceScalarField;
    location    "0.1";
    object      phi;
}
// * * * * * * * * * * * * * * * * * * * * * * * * * * * * * * * * * * * * * //

dimensions      [0 3 -1 0 0 0 0];

internalField   nonuniform List<scalar> 
42870
(
2.9789251e-08
9.9415839e-09
-3.9730835e-08
2.0577976e-08
9.2112754e-09
1.4221076e-08
6.3568994e-09
1.0651666e-08
3.5694101e-09
8.8347916e-09
1.8168748e-09
7.83788e-09
9.9691161e-10
7.2096644e-09
6.2821564e-10
6.7499654e-09
4.5969899e-10
6.3751244e-09
3.7484099e-10
6.053502e-09
3.2162242e-10
5.773173e-09
2.8032899e-10
5.5279337e-09
2.4523926e-10
5.312501e-09
2.1543275e-10
5.1218757e-09
1.9062531e-10
4.9518219e-09
1.700538e-10
4.7989854e-09
1.5283655e-10
4.6606325e-09
1.3835284e-10
4.5346354e-09
1.259971e-10
4.4194606e-09
1.1517478e-10
4.3138145e-09
1.0564616e-10
4.216494e-09
9.7320458e-11
4.1266156e-09
8.987842e-11
4.0435623e-09
8.3053279e-11
3.9666645e-09
7.6897771e-11
3.8952607e-09
7.1403787e-11
3.8289584e-09
6.6302369e-11
3.7674958e-09
6.1462583e-11
3.7104782e-09
5.7017526e-11
3.65751e-09
5.2968264e-11
3.6084133e-09
4.9096724e-11
3.5630872e-09
4.5326111e-11
3.5212983e-09
4.1788814e-11
3.482786e-09
3.8512363e-11
3.4474401e-09
3.534592e-11
3.4152281e-09
3.2211947e-11
3.3860332e-09
2.9194917e-11
3.3596723e-09
2.636085e-11
3.3360215e-09
2.3650869e-11
3.3150404e-09
2.0981103e-11
3.2966856e-09
1.8354737e-11
3.2808397e-09
1.5845945e-11
3.2673311e-09
1.3508607e-11
3.2560103e-09
1.1320779e-11
3.2467883e-09
9.2220127e-12
3.239587e-09
7.2012799e-12
3.2342522e-09
5.3348433e-12
3.2305159e-09
3.7362287e-12
3.2280313e-09
2.4846135e-12
3.2264346e-09
1.5967463e-12
3.2254014e-09
1.0331842e-12
3.2246893e-09
7.1214344e-13
3.2241546e-09
5.346688e-13
3.2237354e-09
4.1920172e-13
3.2234162e-09
3.1916016e-13
3.2232024e-09
2.1387643e-13
3.2231081e-09
9.4204331e-14
3.2231461e-09
-3.7939958e-14
3.2233165e-09
-1.7039543e-13
3.2236087e-09
-2.921845e-13
3.2240052e-09
-3.9649224e-13
3.2244888e-09
-4.8360973e-13
3.2250447e-09
-5.558872e-13
3.2256593e-09
-6.1463982e-13
3.226313e-09
-6.5374393e-13
3.2269957e-09
-6.8269808e-13
3.227697e-09
-7.0126617e-13
3.2284098e-09
-7.1282051e-13
3.2291247e-09
-7.1491494e-13
3.2298369e-09
-7.1217801e-13
3.2305413e-09
-7.0440443e-13
3.2312338e-09
-6.9245463e-13
3.2319117e-09
-6.7788788e-13
3.2325695e-09
-6.5783616e-13
3.2332063e-09
-6.3676863e-13
3.23382e-09
-6.1374585e-13
3.2344097e-09
-5.8969557e-13
3.2349753e-09
-5.6555938e-13
3.2355152e-09
-5.3989177e-13
3.2360301e-09
-5.1494772e-13
3.2365199e-09
-4.8981698e-13
3.2369846e-09
-4.6466247e-13
3.237424e-09
-4.3939016e-13
3.2378386e-09
-4.1458785e-13
3.238229e-09
-3.9045831e-13
3.2385962e-09
-3.6720626e-13
3.2389413e-09
-3.4510835e-13
3.2392655e-09
-3.24166e-13
3.2395701e-09
-3.045649e-13
3.2398562e-09
-2.8608744e-13
3.2401247e-09
-2.6857271e-13
3.2403766e-09
-2.5185867e-13
3.2406124e-09
-2.3584479e-13
3.240833e-09
-2.2052936e-13
3.2410389e-09
-2.0589243e-13
3.2412308e-09
-1.9194625e-13
3.2414095e-09
-1.7874969e-13
3.2415759e-09
-1.6634011e-13
3.2417307e-09
-1.5484545e-13
3.241875e-09
-1.4429116e-13
3.2420097e-09
-1.3465717e-13
3.2421355e-09
-1.2585488e-13
3.2422534e-09
-1.1791634e-13
3.2423642e-09
-1.1071561e-13
3.2424684e-09
-1.0422772e-13
3.2425667e-09
-9.832244e-14
3.2426596e-09
-9.2941932e-14
3.2427476e-09
-8.7984498e-14
3.2428311e-09
-8.3467843e-14
3.2429104e-09
-7.92485e-14
3.2429858e-09
-7.5380292e-14
3.2430575e-09
-7.1711074e-14
3.2431258e-09
-6.8313021e-14
3.2431909e-09
-6.5084031e-14
3.243253e-09
-6.2100031e-14
3.2433122e-09
-5.9228446e-14
3.2433687e-09
-5.6558517e-14
3.2434227e-09
-5.3989047e-14
3.2434743e-09
-5.1604745e-14
3.2435236e-09
-4.9308117e-14
3.2435708e-09
-4.7161889e-14
3.2436159e-09
-4.507995e-14
3.243659e-09
-4.315321e-14
3.2437003e-09
-4.1291764e-14
3.2437399e-09
-3.9559474e-14
3.2437778e-09
-3.7867306e-14
3.2438141e-09
-3.6294585e-14
3.2438488e-09
-3.476158e-14
3.2438821e-09
-3.3332208e-14
3.2439141e-09
-3.1948972e-14
3.2439447e-09
-3.0649706e-14
3.2439741e-09
-2.9385074e-14
3.2440023e-09
-2.8202362e-14
3.2440294e-09
-2.7046446e-14
3.2440553e-09
-2.5970723e-14
3.2440803e-09
-2.4914855e-14
3.2441042e-09
-2.3923456e-14
3.2441271e-09
-2.2953829e-14
3.2441492e-09
-2.2039896e-14
3.2441703e-09
-2.1162116e-14
3.2441907e-09
-2.0320135e-14
3.2442102e-09
-1.9516836e-14
3.2442289e-09
-1.8735393e-14
3.2442469e-09
-1.7994332e-14
3.2442642e-09
-1.7267884e-14
3.2442808e-09
-1.6580664e-14
3.2442967e-09
-1.5904269e-14
3.2443119e-09
-1.5274408e-14
3.2443266e-09
-1.4644824e-14
3.2443407e-09
-1.4074179e-14
3.2443541e-09
-1.3481007e-14
3.2443671e-09
-1.2954262e-14
3.2443795e-09
-1.2384676e-14
3.2443914e-09
-1.1892041e-14
3.2444027e-09
-1.1356777e-14
3.2444136e-09
-1.0912654e-14
3.244424e-09
-1.0405088e-14
3.244434e-09
-9.9944398e-15
3.2444435e-09
-9.4989493e-15
3.2444527e-09
-9.1272763e-15
3.2444613e-09
-8.6537721e-15
3.2444696e-09
-8.3171647e-15
3.2444775e-09
-7.855107e-15
3.244485e-09
-7.5428721e-15
3.2444921e-09
-7.088031e-15
3.2444989e-09
-6.8089271e-15
3.2445053e-09
-6.3597548e-15
3.2445114e-09
-6.1190096e-15
3.2445171e-09
-5.6750777e-15
3.2445225e-09
-5.4582155e-15
3.2445276e-09
-5.016587e-15
3.2445324e-09
-4.8244782e-15
3.2445368e-09
-4.3752152e-15
3.244541e-09
-4.2136467e-15
3.2445447e-09
-3.7548257e-15
3.2445484e-09
-3.6255473e-15
3.2445515e-09
-3.162638e-15
3.2445546e-09
-3.0545704e-15
3.2445572e-09
-2.5792928e-15
3.2445597e-09
-2.5031122e-15
3.2445617e-09
-2.0142831e-15
3.2445636e-09
-1.9664966e-15
3.2445651e-09
-1.4672026e-15
3.2445665e-09
-1.4357071e-15
3.2445675e-09
-9.2128756e-16
3.2445684e-09
-9.150748e-16
3.2445688e-09
-3.8333804e-16
3.2445692e-09
-4.0402523e-16
3.244569e-09
1.5217572e-16
3.2445689e-09
1.060385e-16
3.2445682e-09
6.8222923e-16
3.2445676e-09
6.1258214e-16
3.2445664e-09
1.2040451e-15
3.2445653e-09
1.1163442e-15
3.2445636e-09
1.7237502e-15
3.2445619e-09
1.6261912e-15
3.2445597e-09
2.2431001e-15
3.2445576e-09
2.1255765e-15
3.2445548e-09
2.7537758e-15
3.2445522e-09
2.6272969e-15
3.5018258e-15
4.1964436e-08
1.0455626e-08
-4.2478477e-08
3.872084e-08
1.2454871e-08
3.4638013e-08
1.0439726e-08
3.08218e-08
7.3856234e-09
2.7675401e-08
4.9632736e-09
2.5145686e-08
3.5266271e-09
2.3126494e-08
2.6474075e-09
2.1517929e-08
2.0682642e-09
2.0222637e-08
1.6701329e-09
1.9154425e-08
1.3898337e-09
1.8250307e-08
1.184447e-09
1.7469356e-08
1.0261903e-09
1.6785003e-08
8.9978598e-10
1.61789e-08
7.9672793e-10
1.5637581e-08
7.1137285e-10
1.5150666e-08
6.3975216e-10
1.4709869e-08
5.7914926e-10
1.4308648e-08
5.2721856e-10
1.3941868e-08
4.819549e-10
1.3605263e-08
4.4225092e-10
1.3295237e-08
4.0734671e-10
1.3008967e-08
3.7614858e-10
1.2744175e-08
3.4784512e-10
1.2498774e-08
3.222985e-10
1.2270968e-08
2.9921003e-10
1.2059432e-08
2.778385e-10
1.186306e-08
2.5783385e-10
1.1680722e-08
2.3935584e-10
1.1511448e-08
2.2224275e-10
1.1354591e-08
2.0595343e-10
1.1209598e-08
1.90319e-10
1.1075817e-08
1.7556977e-10
1.0952662e-08
1.6166766e-10
1.0839762e-08
1.4824545e-10
1.073682e-08
1.3515409e-10
1.0643439e-08
1.2257585e-10
1.0559189e-08
1.1061142e-10
1.0483737e-08
9.9102739e-11
1.041683e-08
8.7887936e-11
1.0358162e-08
7.7022939e-11
1.0307306e-08
6.6701879e-11
1.026377e-08
5.7043987e-11
1.0227088e-08
4.8003584e-11
1.0196817e-08
3.9492191e-11
1.0172447e-08
3.1572051e-11
1.0153284e-08
2.4497035e-11
1.0138462e-08
1.855906e-11
1.0127032e-08
1.3914544e-11
1.01181e-08
1.0528759e-11
1.0110925e-08
8.2079288e-12
1.0104978e-08
6.6588559e-12
1.009994e-08
5.5729545e-12
1.0095646e-08
4.7127359e-12
1.0092023e-08
3.9428122e-12
1.0089036e-08
3.2001282e-12
1.008667e-08
2.4601839e-12
1.0084902e-08
1.730032e-12
1.008369e-08
1.0415934e-12
1.0082975e-08
4.2285932e-13
1.0082691e-08
-1.1209953e-13
1.0082778e-08
-5.7021203e-13
1.0083179e-08
-9.5700553e-13
1.0083843e-08
-1.2784888e-12
1.0084715e-08
-1.5259636e-12
1.0085756e-08
-1.7242899e-12
1.0086931e-08
-1.8760528e-12
1.008821e-08
-1.9913042e-12
1.0089562e-08
-2.0671954e-12
1.0090966e-08
-2.116346e-12
1.0092402e-08
-2.140046e-12
1.0093851e-08
-2.1419926e-12
1.00953e-08
-2.1270518e-12
1.0096733e-08
-2.0907924e-12
1.0098141e-08
-2.0443882e-12
1.0099514e-08
-1.9869212e-12
1.0100846e-08
-1.9215389e-12
1.0102132e-08
-1.8512196e-12
1.0103366e-08
-1.7737853e-12
1.0104546e-08
-1.6948344e-12
1.0105669e-08
-1.6131381e-12
1.0106734e-08
-1.5297189e-12
1.010774e-08
-1.445108e-12
1.0108686e-08
-1.3612804e-12
1.0109575e-08
-1.279066e-12
1.0110407e-08
-1.1993354e-12
1.0111185e-08
-1.1230528e-12
1.0111911e-08
-1.0503836e-12
1.0112588e-08
-9.8185763e-13
1.0113219e-08
-9.1699411e-13
1.0113806e-08
-8.5556011e-13
1.0114352e-08
-7.9733707e-13
1.0114858e-08
-7.4208433e-13
1.0115327e-08
-6.8982471e-13
1.0115762e-08
-6.4046601e-13
1.0116164e-08
-5.940755e-13
1.0116536e-08
-5.508239e-13
1.0116881e-08
-5.1070256e-13
1.01172e-08
-4.7385514e-13
1.0117495e-08
-4.4019577e-13
1.011777e-08
-4.0964257e-13
1.0118027e-08
-3.8192828e-13
1.0118266e-08
-3.5696848e-13
1.0118489e-08
-3.3433969e-13
1.0118699e-08
-3.1387594e-13
1.0118896e-08
-2.9524683e-13
1.0119081e-08
-2.7829884e-13
1.0119256e-08
-2.6270703e-13
1.0119421e-08
-2.4843663e-13
1.0119577e-08
-2.3512384e-13
1.0119724e-08
-2.2287852e-13
1.0119864e-08
-2.1134722e-13
1.0119996e-08
-2.0066461e-13
1.0120122e-08
-1.9054221e-13
1.0120241e-08
-1.8115079e-13
1.0120354e-08
-1.7219e-13
1.0120461e-08
-1.6386897e-13
1.0120563e-08
-1.5590514e-13
1.012066e-08
-1.4849472e-13
1.0120752e-08
-1.4139942e-13
1.0120839e-08
-1.3478012e-13
1.0120923e-08
-1.2840825e-13
1.0121002e-08
-1.2249816e-13
1.0121078e-08
-1.1681132e-13
1.012115e-08
-1.1152757e-13
1.0121218e-08
-1.0639757e-13
1.0121283e-08
-1.0162226e-13
1.0121346e-08
-9.699287e-14
1.0121405e-08
-9.2690359e-14
1.0121462e-08
-8.8531055e-14
1.0121516e-08
-8.4651287e-14
1.0121567e-08
-8.0871639e-14
1.0121616e-08
-7.7352897e-14
1.0121663e-08
-7.390992e-14
1.0121708e-08
-7.0724416e-14
1.0121751e-08
-6.7591959e-14
1.0121791e-08
-6.4690801e-14
1.012183e-08
-6.1831934e-14
1.0121867e-08
-5.9175101e-14
1.0121903e-08
-5.6580617e-14
1.0121937e-08
-5.4154089e-14
1.0121969e-08
-5.1787241e-14
1.0122e-08
-4.9553295e-14
1.0122029e-08
-4.7371923e-14
1.0122057e-08
-4.5309187e-14
1.0122084e-08
-4.3292854e-14
1.0122109e-08
-4.1390041e-14
1.0122134e-08
-3.9541032e-14
1.0122157e-08
-3.7783168e-14
1.0122179e-08
-3.6098014e-14
1.01222e-08
-3.4455874e-14
1.012222e-08
-3.2897284e-14
1.0122239e-08
-3.1340769e-14
1.0122257e-08
-2.9889503e-14
1.0122274e-08
-2.8436029e-14
1.012229e-08
-2.7109248e-14
1.0122305e-08
-2.5738068e-14
1.012232e-08
-2.450779e-14
1.0122333e-08
-2.3187397e-14
1.0122346e-08
-2.2062321e-14
1.0122359e-08
-2.0804994e-14
1.012237e-08
-1.9769909e-14
1.0122381e-08
-1.8551697e-14
1.0122391e-08
-1.7582974e-14
1.01224e-08
-1.6396679e-14
1.0122409e-08
-1.5518757e-14
1.0122417e-08
-1.4361232e-14
1.0122424e-08
-1.3574505e-14
1.0122431e-08
-1.2432668e-14
1.0122437e-08
-1.1706359e-14
1.0122443e-08
-1.057363e-14
1.0122448e-08
-9.9072814e-15
1.0122452e-08
-8.7668311e-15
1.0122456e-08
-8.1758942e-15
1.0122459e-08
-7.0212693e-15
1.0122462e-08
-6.5031954e-15
1.0122465e-08
-5.3332697e-15
1.0122466e-08
-4.8724368e-15
1.0122467e-08
-3.6777038e-15
1.0122468e-08
-3.288702e-15
1.0122468e-08
-2.0613856e-15
1.0122468e-08
-1.7377557e-15
1.0122467e-08
-4.7963242e-16
1.0122466e-08
-2.0209553e-16
1.0122464e-08
1.0918572e-15
1.0122462e-08
1.3116614e-15
1.0122459e-08
2.6585835e-15
1.0122455e-08
2.8187008e-15
1.0122451e-08
4.2319558e-15
1.0122447e-08
4.3239615e-15
1.0122442e-08
5.7980762e-15
1.0122437e-08
5.827454e-15
1.0122431e-08
7.355344e-15
1.0122424e-08
7.3379861e-15
1.0122417e-08
8.923785e-15
1.012241e-08
8.8688038e-15
1.0122402e-08
1.0500865e-14
1.0122393e-08
1.0395424e-14
1.0122384e-08
1.2093127e-14
1.0122375e-08
1.1942227e-14
1.4014878e-14
4.5004195e-08
9.3616853e-09
-4.3910255e-08
4.4948549e-08
1.2510517e-08
4.3827773e-08
1.1560502e-08
4.2124312e-08
9.0890851e-09
4.0260818e-08
6.8267674e-09
3.8408321e-08
5.3791238e-09
3.6618844e-08
4.4368851e-09
3.4944648e-08
3.7424603e-09
3.3416107e-08
3.1986736e-09
3.2034676e-08
2.7712645e-09
3.0787472e-08
2.4316508e-09
2.9659404e-08
2.1542585e-09
2.8636848e-08
1.922342e-09
2.7707868e-08
1.7257078e-09
2.6861813e-08
1.5574283e-09
2.6089021e-08
1.4125444e-09
2.5380824e-08
1.2873462e-09
2.4729747e-08
1.1782949e-09
2.412944e-08
1.082262e-09
2.357438e-08
9.9731077e-10
2.3059835e-08
9.2189204e-10
2.2581926e-08
8.5405753e-10
2.2137379e-08
7.9239218e-10
2.1723255e-08
7.3642269e-10
2.1337051e-08
6.8541403e-10
2.097679e-08
6.3809971e-10
2.0640765e-08
5.9385882e-10
2.0327358e-08
5.5276204e-10
2.0035206e-08
5.1439491e-10
1.9763286e-08
4.7787363e-10
1.9510697e-08
4.4290785e-10
1.9276512e-08
4.0975479e-10
1.9059917e-08
3.7826236e-10
1.8860319e-08
3.4784372e-10
1.8677201e-08
3.1827228e-10
1.8509975e-08
2.8980135e-10
1.8358038e-08
2.6254909e-10
1.8220876e-08
2.3626475e-10
1.8098038e-08
2.1072606e-10
1.7988999e-08
1.8606174e-10
1.7893093e-08
1.6260771e-10
1.7809566e-08
1.4057152e-10
1.7737655e-08
1.1991453e-10
1.767658e-08
1.0056719e-10
1.7625431e-08
8.2720417e-11
1.7583078e-08
6.6850327e-11
1.7548187e-08
5.3449734e-11
1.7519352e-08
4.2749624e-11
1.7495249e-08
3.4631535e-11
1.7474771e-08
2.8685924e-11
1.7457097e-08
2.4332819e-11
1.7441685e-08
2.0985446e-11
1.74282e-08
1.8197587e-11
1.7416438e-08
1.5705069e-11
1.7406265e-08
1.337279e-11
1.7397583e-08
1.1142795e-11
1.7390292e-08
9.0205437e-12
1.7384279e-08
7.0547047e-12
1.7379414e-08
5.2881667e-12
1.7375568e-08
3.73374e-12
1.737262e-08
2.3780284e-12
1.7370455e-08
1.2073976e-12
1.7368971e-08
2.0542228e-13
1.7368064e-08
-6.1916836e-13
1.7367654e-08
-1.3134085e-12
1.7367663e-08
-1.885432e-12
1.7368028e-08
-2.3561243e-12
1.7368685e-08
-2.7247964e-12
1.7369585e-08
-3.0162796e-12
1.737068e-08
-3.2351852e-12
1.7371929e-08
-3.3907202e-12
1.7373296e-08
-3.4937198e-12
1.7374744e-08
-3.5393652e-12
1.7376248e-08
-3.5484566e-12
1.7377783e-08
-3.5213406e-12
1.7379327e-08
-3.465215e-12
1.7380862e-08
-3.3869809e-12
1.7382373e-08
-3.2846864e-12
1.7383848e-08
-3.1692117e-12
1.7385275e-08
-3.0400746e-12
1.7386645e-08
-2.9004374e-12
1.7387953e-08
-2.7525909e-12
1.7389193e-08
-2.6010703e-12
1.7390362e-08
-2.448246e-12
1.7391459e-08
-2.2966268e-12
1.7392485e-08
-2.1487046e-12
1.739344e-08
-2.0054521e-12
1.7394326e-08
-1.868476e-12
1.7395147e-08
-1.7376138e-12
1.7395904e-08
-1.6130399e-12
1.7396602e-08
-1.4948046e-12
1.7397243e-08
-1.3827968e-12
1.739783e-08
-1.2773467e-12
1.7398368e-08
-1.1784448e-12
1.739886e-08
-1.0862345e-12
1.739931e-08
-1.0009287e-12
1.7399722e-08
-9.2242396e-13
1.7400099e-08
-8.5086494e-13
1.7400445e-08
-7.8594456e-13
1.7400763e-08
-7.2734775e-13
1.7401055e-08
-6.7446872e-13
1.7401325e-08
-6.2702297e-13
1.7401575e-08
-5.8421239e-13
1.7401807e-08
-5.4561412e-13
1.7402022e-08
-5.1059136e-13
1.7402223e-08
-4.788001e-13
1.740241e-08
-4.4967054e-13
1.7402584e-08
-4.2306781e-13
1.7402747e-08
-3.983595e-13
1.74029e-08
-3.7565809e-13
1.7403043e-08
-3.5439584e-13
1.7403177e-08
-3.3474159e-13
1.7403303e-08
-3.1621961e-13
1.7403421e-08
-2.9905461e-13
1.7403532e-08
-2.8277279e-13
1.7403635e-08
-2.676901e-13
1.7403733e-08
-2.5333736e-13
1.7403824e-08
-2.4000606e-13
1.740391e-08
-2.2730985e-13
1.7403991e-08
-2.1550189e-13
1.7404067e-08
-2.041963e-13
1.7404138e-08
-1.937392e-13
1.7404205e-08
-1.8371638e-13
1.7404268e-08
-1.7444416e-13
1.7404327e-08
-1.6547669e-13
1.7404382e-08
-1.5716979e-13
1.7404435e-08
-1.4913153e-13
1.7404484e-08
-1.4171369e-13
1.740453e-08
-1.3453913e-13
1.7404573e-08
-1.2791644e-13
1.7404613e-08
-1.2144808e-13
1.7404652e-08
-1.1549517e-13
1.7404687e-08
-1.0963847e-13
1.7404721e-08
-1.0429395e-13
1.7404752e-08
-9.8996799e-14
1.7404782e-08
-9.4183325e-14
1.7404809e-08
-8.9383167e-14
1.7404835e-08
-8.5020004e-14
1.7404859e-08
-8.068048e-14
1.7404882e-08
-7.6735809e-14
1.7404903e-08
-7.2794564e-14
1.7404923e-08
-6.9200932e-14
1.7404941e-08
-6.5584534e-14
1.7404958e-08
-6.230086e-14
1.7404973e-08
-5.8971849e-14
1.7404988e-08
-5.5974547e-14
1.7405001e-08
-5.2928481e-14
1.7405014e-08
-5.0187119e-14
1.7405025e-08
-4.7412033e-14
1.7405036e-08
-4.4876667e-14
1.7405045e-08
-4.2312712e-14
1.7405054e-08
-3.9935563e-14
1.7405061e-08
-3.7553018e-14
1.7405068e-08
-3.5354284e-14
1.7405074e-08
-3.3168815e-14
1.740508e-08
-3.1111452e-14
1.7405084e-08
-2.9080752e-14
1.7405088e-08
-2.7116764e-14
1.7405091e-08
-2.5250507e-14
1.7405094e-08
-2.3392579e-14
1.7405096e-08
-2.1663961e-14
1.7405097e-08
-1.9874529e-14
1.7405098e-08
-1.8245881e-14
1.7405098e-08
-1.6513926e-14
1.7405097e-08
-1.5023478e-14
1.7405096e-08
-1.3344246e-14
1.7405095e-08
-1.1987628e-14
1.7405093e-08
-1.0334435e-14
1.740509e-08
-9.0634966e-15
1.7405087e-08
-7.4229838e-15
1.7405083e-08
-6.2348496e-15
1.7405079e-08
-4.5847911e-15
1.7405074e-08
-3.5061043e-15
1.7405069e-08
-1.8353404e-15
1.7405063e-08
-8.5816529e-16
1.7405057e-08
8.437256e-16
1.7405051e-08
1.7392571e-15
1.7405044e-08
3.4851104e-15
1.7405036e-08
4.2798641e-15
1.7405028e-08
6.0826039e-15
1.7405019e-08
6.7847509e-15
1.740501e-08
8.6475899e-15
1.7405001e-08
9.2809592e-15
1.7404991e-08
1.1214394e-14
1.740498e-08
1.176602e-14
1.7404969e-08
1.3800085e-14
1.7404957e-08
1.4265468e-14
1.7404945e-08
1.6421512e-14
1.7404933e-08
1.678056e-14
1.740492e-08
1.9057079e-14
1.7404906e-08
1.9314758e-14
1.7404892e-08
2.1706862e-14
1.7404877e-08
2.1886156e-14
1.7404862e-08
2.440618e-14
1.7404846e-08
2.4510532e-14
1.7404829e-08
2.7154209e-14
1.7404813e-08
2.7156409e-14
1.7404795e-08
2.9994816e-14
1.7404777e-08
2.9907708e-14
3.3050816e-14
4.672671e-08
8.4031062e-09
-4.5768131e-08
4.7440886e-08
1.1796341e-08
4.758427e-08
1.1417118e-08
4.7224752e-08
9.4486031e-09
4.6576203e-08
7.4753166e-09
4.5769321e-08
6.1860055e-09
4.4842459e-08
5.3637478e-09
4.3841402e-08
4.7435166e-09
4.2813596e-08
4.2264794e-09
4.1789629e-08
3.7952319e-09
4.0784354e-08
3.4369259e-09
3.9805709e-08
3.1329031e-09
3.8859582e-08
2.8684691e-09
3.7950608e-08
2.6346817e-09
3.7082005e-08
2.4260317e-09
3.625537e-08
2.2391797e-09
3.5470897e-08
2.0718189e-09
3.4727936e-08
1.9212558e-09
3.4025278e-08
1.7849197e-09
3.3361218e-08
1.6613707e-09
3.2733855e-08
1.5492553e-09
3.2141393e-08
1.4465201e-09
3.1582062e-08
1.3517225e-09
3.105404e-08
1.2644452e-09
3.0555666e-08
1.1837882e-09
3.008557e-08
1.108195e-09
2.9642483e-08
1.036946e-09
2.9225139e-08
9.7010656e-10
2.8832453e-08
9.0708083e-10
2.8463592e-08
8.4673463e-10
2.8117794e-08
7.8870597e-10
2.7794269e-08
7.3327908e-10
2.7492319e-08
6.8021232e-10
2.7211409e-08
6.2875353e-10
2.6951065e-08
5.7861689e-10
2.6710754e-08
5.3011208e-10
2.6489913e-08
4.8338974e-10
2.6288026e-08
4.3815242e-10
2.6104609e-08
3.9414249e-10
2.5939112e-08
3.5155884e-10
2.5790831e-08
3.1088877e-10
2.5658936e-08
2.7246645e-10
2.5542544e-08
2.3630664e-10
2.5440719e-08
2.0239194e-10
2.5352384e-08
1.7105551e-10
2.5276239e-08
1.4299584e-10
2.5210777e-08
1.1891138e-10
2.5154394e-08
9.913266e-11
2.510553e-08
8.3495831e-11
2.5062811e-08
7.1404296e-11
2.5025148e-08
6.1996484e-11
2.499174e-08
5.439273e-11
2.4962026e-08
4.791185e-11
2.4935604e-08
4.2127494e-11
2.491218e-08
3.6796772e-11
2.4891525e-08
3.179751e-11
2.4873433e-08
2.7112366e-11
2.4857695e-08
2.2793458e-11
2.4844094e-08
1.8889037e-11
2.4832423e-08
1.5404711e-11
2.4822486e-08
1.2314239e-11
2.4814102e-08
9.5922556e-12
2.4807094e-08
7.2127015e-12
2.4801311e-08
5.1637934e-12
2.4796606e-08
3.3915129e-12
2.4792852e-08
1.8686066e-12
2.4789936e-08
5.6020076e-13
2.4787748e-08
-5.364301e-13
2.4786196e-08
-1.4643515e-12
2.4785194e-08
-2.2332585e-12
2.4784664e-08
-2.8606641e-12
2.4784537e-08
-3.3664887e-12
2.4784744e-08
-3.746445e-12
2.478523e-08
-4.0348058e-12
2.4785943e-08
-4.2341179e-12
2.4786835e-08
-4.3578005e-12
2.4787867e-08
-4.4190409e-12
2.4789e-08
-4.417117e-12
2.4790202e-08
-4.3709642e-12
2.4791444e-08
-4.2821211e-12
2.4792701e-08
-4.1577351e-12
2.4793952e-08
-4.0034297e-12
2.4795179e-08
-3.8280025e-12
2.4796367e-08
-3.6367504e-12
2.4797506e-08
-3.435264e-12
2.4798586e-08
-3.2290445e-12
2.4799602e-08
-3.0212318e-12
2.4800549e-08
-2.8159483e-12
2.4801426e-08
-2.6145944e-12
2.4802232e-08
-2.4190066e-12
2.4802968e-08
-2.2306346e-12
2.4803636e-08
-2.0504994e-12
2.4804239e-08
-1.8800582e-12
2.480478e-08
-1.7199984e-12
2.4805265e-08
-1.571044e-12
2.4805698e-08
-1.4337613e-12
2.4806084e-08
-1.3081065e-12
2.4806427e-08
-1.1943115e-12
2.4806733e-08
-1.0918175e-12
2.4807005e-08
-1.0000021e-12
2.4807249e-08
-9.1779586e-13
2.4807466e-08
-8.445908e-13
2.4807661e-08
-7.7908796e-13
2.4807836e-08
-7.2048364e-13
2.4807993e-08
-6.6772803e-13
2.4808135e-08
-6.2016343e-13
2.4808262e-08
-5.7691528e-13
2.4808377e-08
-5.3767792e-13
2.480848e-08
-5.0150542e-13
2.4808572e-08
-4.684551e-13
2.4808656e-08
-4.3772128e-13
2.4808731e-08
-4.094705e-13
2.4808797e-08
-3.8303495e-13
2.4808857e-08
-3.5866451e-13
2.480891e-08
-3.3569715e-13
2.4808957e-08
-3.1454998e-13
2.4808998e-08
-2.9454622e-13
2.4809034e-08
-2.7608052e-13
2.4809065e-08
-2.5859455e-13
2.4809092e-08
-2.424552e-13
2.4809115e-08
-2.2707126e-13
2.4809134e-08
-2.1296597e-13
2.480915e-08
-1.9948476e-13
2.4809163e-08
-1.8715035e-13
2.4809173e-08
-1.7523785e-13
2.480918e-08
-1.6434841e-13
2.4809184e-08
-1.5379508e-13
2.4809187e-08
-1.4421253e-13
2.4809187e-08
-1.3490093e-13
2.4809186e-08
-1.2648205e-13
2.4809183e-08
-1.1819254e-13
2.4809178e-08
-1.1074803e-13
2.4809172e-08
-1.0332719e-13
2.4809164e-08
-9.6750889e-14
2.4809155e-08
-9.0111692e-14
2.4809145e-08
-8.4293586e-14
2.4809134e-08
-7.8347827e-14
2.4809122e-08
-7.316588e-14
2.4809109e-08
-6.7847341e-14
2.4809096e-08
-6.3251512e-14
2.4809082e-08
-5.8469426e-14
2.4809067e-08
-5.4359766e-14
2.4809051e-08
-5.0010595e-14
2.4809035e-08
-4.6326277e-14
2.4809019e-08
-4.2355656e-14
2.4809002e-08
-3.9059128e-14
2.4808984e-08
-3.545272e-14
2.4808967e-08
-3.2495845e-14
2.4808948e-08
-2.9232139e-14
2.480893e-08
-2.654676e-14
2.4808911e-08
-2.3546765e-14
2.4808892e-08
-2.1069034e-14
2.4808873e-08
-1.8291602e-14
2.4808854e-08
-1.6041822e-14
2.4808834e-08
-1.3500224e-14
2.4808815e-08
-1.1428672e-14
2.4808795e-08
-9.0687439e-15
2.4808775e-08
-7.1112958e-15
2.4808754e-08
-4.9408934e-15
2.4808734e-08
-3.1093405e-15
2.4808713e-08
-1.0922902e-15
2.4808693e-08
6.6076787e-16
2.4808672e-08
2.5744336e-15
2.4808651e-08
4.2644623e-15
2.480863e-08
6.0259624e-15
2.4808609e-08
7.6602115e-15
2.4808588e-08
9.2758747e-15
2.4808567e-08
1.0891094e-14
2.4808545e-08
1.242287e-14
2.4808524e-08
1.4039696e-14
2.4808502e-08
1.5494318e-14
2.480848e-08
1.714128e-14
2.4808458e-08
1.8480892e-14
2.4808436e-08
2.0172356e-14
2.4808414e-08
2.1406533e-14
2.4808392e-08
2.3161799e-14
2.4808369e-08
2.4313814e-14
2.4808346e-08
2.6150955e-14
2.4808324e-08
2.7198156e-14
2.48083e-08
2.9133732e-14
2.4808277e-08
3.0083076e-14
2.4808254e-08
3.212698e-14
2.480823e-08
3.3002981e-14
2.4808206e-08
3.5171902e-14
2.4808182e-08
3.5959518e-14
2.4808157e-08
3.8297181e-14
2.4808133e-08
3.8986399e-14
2.4808108e-08
4.1524365e-14
2.4808082e-08
4.2081904e-14
2.4808056e-08
4.4825372e-14
2.480803e-08
4.5252106e-14
2.4808004e-08
4.82002e-14
2.4807977e-08
4.8523008e-14
2.480795e-08
5.1696701e-14
2.4807923e-08
5.1909935e-14
2.4807895e-08
5.5320804e-14
2.4807866e-08
5.538075e-14
2.4807837e-08
5.9136412e-14
2.4807808e-08
5.9127037e-14
6.2992595e-14
4.8527005e-08
7.660126e-09
-4.7784025e-08
4.9308002e-08
1.1015345e-08
4.9747218e-08
1.0977901e-08
4.9860491e-08
9.3353301e-09
4.9773311e-08
7.5624972e-09
4.9567948e-08
6.3913686e-09
4.925498e-08
5.6767157e-09
4.8846515e-08
5.1519811e-09
4.836882e-08
4.7041744e-09
4.784516e-08
4.318892e-09
4.7288025e-08
3.9940607e-09
4.6704159e-08
3.7167696e-09
4.6099655e-08
3.4729723e-09
4.5481065e-08
3.2532718e-09
4.4854949e-08
3.0521479e-09
4.4227225e-08
2.8669033e-09
4.3602825e-08
2.6962195e-09
4.2985809e-08
2.5382713e-09
4.2379496e-08
2.3912334e-09
4.1786401e-08
2.2544656e-09
4.1208386e-08
2.1272703e-09
4.0646933e-08
2.0079728e-09
4.010316e-08
1.8954957e-09
3.957776e-08
1.7898451e-09
3.9071204e-08
1.6903437e-09
3.8583922e-08
1.5954775e-09
3.8116205e-08
1.5046627e-09
3.7668153e-08
1.4181591e-09
3.7239829e-08
1.3354051e-09
3.6831352e-08
1.2552107e-09
3.6442797e-08
1.1772619e-09
3.6074129e-08
1.1019465e-09
3.5725302e-08
1.0290397e-09
3.5396304e-08
9.577511e-10
3.5087114e-08
8.8780698e-10
3.479764e-08
8.1958664e-10
3.4527719e-08
7.5331067e-10
3.427715e-08
6.8872126e-10
3.4045701e-08
6.2559099e-10
3.3833067e-08
5.6419285e-10
3.36388e-08
5.0515613e-10
3.3462293e-08
4.4897333e-10
3.3302826e-08
3.9577341e-10
3.3159584e-08
3.4563404e-10
3.3031609e-08
2.9903039e-10
3.2917753e-08
2.5685229e-10
3.2816686e-08
2.1997797e-10
3.2726967e-08
1.8885224e-10
3.2647131e-08
1.6333113e-10
3.2575811e-08
1.4272434e-10
3.2511831e-08
1.2597666e-10
3.2454247e-08
1.1197684e-10
3.240232e-08
9.9838772e-11
3.2355471e-08
8.8976942e-11
3.2313243e-08
7.9024786e-11
3.2275269e-08
6.9771396e-11
3.2241229e-08
6.1152539e-11
3.2210817e-08
5.3204915e-11
3.2183737e-08
4.5968783e-11
3.2159708e-08
3.943431e-11
3.2138465e-08
3.3557193e-11
3.211976e-08
2.8296939e-11
3.2103357e-08
2.3615701e-11
3.208904e-08
1.9480758e-11
3.2076606e-08
1.5825348e-11
3.2065873e-08
1.2602167e-11
3.2056669e-08
9.7638174e-12
3.2048846e-08
7.286887e-12
3.2042258e-08
5.1239685e-12
3.2036773e-08
3.2512947e-12
3.2032271e-08
1.6410078e-12
3.2028644e-08
2.61118e-13
3.2025781e-08
-8.8413832e-13
3.2023594e-08
-1.8475654e-12
3.2021994e-08
-2.6337226e-12
3.20209e-08
-3.2636594e-12
3.2020239e-08
-3.7586477e-12
3.2019942e-08
-4.1194339e-12
3.2019947e-08
-4.3760666e-12
3.2020197e-08
-4.5329447e-12
3.2020643e-08
-4.6032953e-12
3.2021237e-08
-4.5978235e-12
3.2021941e-08
-4.5314785e-12
3.2022718e-08
-4.4139741e-12
3.2023538e-08
-4.255502e-12
3.2024375e-08
-4.0660053e-12
3.2025206e-08
-3.8521904e-12
3.2026013e-08
-3.6224313e-12
3.2026779e-08
-3.3813411e-12
3.2027495e-08
-3.1343648e-12
3.2028151e-08
-2.8863248e-12
3.2028741e-08
-2.6414245e-12
3.2029266e-08
-2.4041815e-12
3.2029723e-08
-2.1776499e-12
3.2030117e-08
-1.9646728e-12
3.203045e-08
-1.7673647e-12
3.2030729e-08
-1.5865989e-12
3.2030958e-08
-1.4233328e-12
3.2031143e-08
-1.2770872e-12
3.203129e-08
-1.1471221e-12
3.2031404e-08
-1.031931e-12
3.203149e-08
-9.305175e-13
3.2031552e-08
-8.4093147e-13
3.2031594e-08
-7.6184241e-13
3.2031618e-08
-6.9164184e-13
3.2031627e-08
-6.2918095e-13
3.2031623e-08
-5.7316763e-13
3.2031608e-08
-5.2299737e-13
3.2031584e-08
-4.7733088e-13
3.2031552e-08
-4.3609255e-13
3.2031512e-08
-3.9818385e-13
3.2031466e-08
-3.637226e-13
3.2031415e-08
-3.3181723e-13
3.2031359e-08
-3.0272979e-13
3.2031299e-08
-2.755652e-13
3.2031235e-08
-2.5086647e-13
3.2031168e-08
-2.2768421e-13
3.2031099e-08
-2.0656815e-13
3.2031027e-08
-1.8671935e-13
3.2030953e-08
-1.6869605e-13
3.2030878e-08
-1.5159411e-13
3.2030801e-08
-1.3622356e-13
3.2030723e-08
-1.2155838e-13
3.2030645e-08
-1.0847102e-13
3.2030565e-08
-9.5802706e-14
3.2030485e-08
-8.4569244e-14
3.2030405e-08
-7.3604064e-14
3.2030325e-08
-6.4013435e-14
3.2030245e-08
-5.4570028e-14
3.2030165e-08
-4.6422909e-14
3.2030085e-08
-3.8226891e-14
3.2030005e-08
-3.1278246e-14
3.2029926e-08
-2.4120689e-14
3.2029847e-08
-1.8217943e-14
3.2029769e-08
-1.1974341e-14
3.2029692e-08
-6.9738044e-15
3.2029615e-08
-1.5311442e-15
3.2029539e-08
2.7301514e-15
3.2029464e-08
7.4667653e-15
3.202939e-08
1.1048358e-14
3.2029316e-08
1.5192802e-14
3.2029243e-08
1.8226236e-14
3.2029171e-08
2.1908141e-14
3.2029101e-08
2.4472378e-14
3.202903e-08
2.7760832e-14
3.2028962e-08
2.9904178e-14
3.2028893e-08
3.2822081e-14
3.2028826e-08
3.4608749e-14
3.202876e-08
3.7186241e-14
3.2028694e-08
3.8697667e-14
3.202863e-08
4.1025886e-14
3.2028567e-08
4.2336863e-14
3.2028504e-08
4.4467464e-14
3.2028442e-08
4.5558955e-14
3.2028381e-08
4.748165e-14
3.2028321e-08
4.840951e-14
3.2028262e-08
5.0183293e-14
3.2028204e-08
5.1023995e-14
3.2028146e-08
5.2643561e-14
3.202809e-08
5.3387151e-14
3.2028034e-08
5.4895966e-14
3.2027979e-08
5.559181e-14
3.2027924e-08
5.704582e-14
3.2027871e-08
5.7715723e-14
3.2027818e-08
5.9058605e-14
3.2027766e-08
5.971134e-14
3.2027714e-08
6.0947955e-14
3.2027664e-08
6.1625514e-14
3.2027613e-08
6.2825278e-14
3.2027564e-08
6.355212e-14
3.2027514e-08
6.4724759e-14
3.2027466e-08
6.5536033e-14
3.2027418e-08
6.6634039e-14
3.202737e-08
6.7546838e-14
3.2027323e-08
6.8576716e-14
3.2027277e-08
6.9615593e-14
3.2027231e-08
7.0600464e-14
3.2027185e-08
7.1788455e-14
3.2027139e-08
7.2703743e-14
3.2027094e-08
7.4059846e-14
3.202705e-08
7.4908433e-14
3.2027005e-08
7.6449167e-14
3.2026961e-08
7.7251825e-14
3.2026917e-08
7.8997315e-14
3.2026873e-08
7.9736109e-14
3.202683e-08
8.1742421e-14
3.2026787e-08
8.2398828e-14
3.2026743e-08
8.4709202e-14
3.20267e-08
8.5237135e-14
3.2026657e-08
8.7862119e-14
3.2026614e-08
8.8259223e-14
3.2026571e-08
9.1197796e-14
3.2026528e-08
9.1495035e-14
3.2026485e-08
9.477119e-14
3.2026442e-08
9.4955492e-14
3.2026399e-08
9.8594939e-14
3.2026356e-08
9.8616118e-14
3.2026312e-08
1.027165e-13
3.2026268e-08
1.0275202e-13
1.0681498e-13
5.0452578e-08
7.0833707e-09
-4.9875823e-08
5.1217639e-08
1.0250283e-08
5.169397e-08
1.0501571e-08
5.1906808e-08
9.1224917e-09
5.1981408e-08
7.4878972e-09
5.1993799e-08
6.3789778e-09
5.1948864e-08
5.721651e-09
5.1841452e-08
5.2593927e-09
5.1681805e-08
4.8638215e-09
5.1484731e-08
4.5159661e-09
5.1257376e-08
4.2214155e-09
5.1000908e-08
3.9732375e-09
5.0715749e-08
3.758132e-09
5.0403639e-08
3.5653815e-09
5.0067494e-08
3.388293e-09
4.9710797e-08
3.2236002e-09
4.9337091e-08
3.069925e-09
4.8949778e-08
2.9255847e-09
4.8552105e-08
2.7889063e-09
4.8147071e-08
2.6594996e-09
4.7737343e-08
2.5369984e-09
4.7325342e-08
2.4199739e-09
4.6913283e-08
2.3075543e-09
4.6503097e-08
2.2000311e-09
4.6096463e-08
2.0969783e-09
4.5694935e-08
1.9970049e-09
4.5299949e-08
1.8996487e-09
4.4912756e-08
1.8053525e-09
4.4534472e-08
1.7136889e-09
4.4166152e-08
1.6235313e-09