/*--------------------------------*- C++ -*----------------------------------*\
| =========                 |                                                 |
| \\      /  F ield         | OpenFOAM: The Open Source CFD Toolbox           |
|  \\    /   O peration     | Version:  5.x                                   |
|   \\  /    A nd           | Web:      www.OpenFOAM.org                      |
|    \\/     M anipulation  |                                                 |
\*---------------------------------------------------------------------------*/
FoamFile
{
    version     2.0;
    format      ascii;
    class       volVectorField;
    location    "0.1";
    object      U;
}
// * * * * * * * * * * * * * * * * * * * * * * * * * * * * * * * * * * * * * //

dimensions      [0 1 -1 0 0 0 0];

internalField   nonuniform List<vector> 
21600
(
(0.4053814 0.012122607 0)
(0.28680744 0.010909413 0)
(0.194806 0.0064272467 0)
(0.14052454 0.0024893605 0)
(0.11294628 0.00060016595 0)
(0.097609822 0.00010158005 0)
(0.088307099 2.5530783e-05 0)
(0.082029944 5.6331285e-05 0)
(0.077222939 9.6273252e-05 0)
(0.073195577 0.00011503724 0)
(0.06969128 0.00011444271 0)
(0.066617511 0.00010445711 0)
(0.063916726 9.2685556e-05 0)
(0.061533293 8.2269165e-05 0)
(0.059414829 7.3611592e-05 0)
(0.057517234 6.6370296e-05 0)
(0.05580494 6.0318041e-05 0)
(0.054249757 5.5153283e-05 0)
(0.052830436 5.0529567e-05 0)
(0.051530376 4.6418434e-05 0)
(0.050335009 4.2879513e-05 0)
(0.04923231 3.9692962e-05 0)
(0.048213501 3.668508e-05 0)
(0.047270905 3.3995905e-05 0)
(0.046396761 3.1671406e-05 0)
(0.045585038 2.9477002e-05 0)
(0.044831865 2.7326364e-05 0)
(0.044133266 2.5397078e-05 0)
(0.043484642 2.3712456e-05 0)
(0.042882755 2.2065997e-05 0)
(0.042325947 2.0402035e-05 0)
(0.041812151 1.887613e-05 0)
(0.041338471 1.7526024e-05 0)
(0.040902829 1.6203171e-05 0)
(0.040504407 1.4836548e-05 0)
(0.040142259 1.3519986e-05 0)
(0.039814592 1.2323821e-05 0)
(0.039519654 1.1186736e-05 0)
(0.039256543 1.0019067e-05 0)
(0.03902477 8.818003e-06 0)
(0.038823337 7.652564e-06 0)
(0.038650513 6.5706656e-06 0)
(0.038504443 5.5399606e-06 0)
(0.038383796 4.4840485e-06 0)
(0.038287618 3.3746497e-06 0)
(0.038214491 2.2756184e-06 0)
(0.038161822 1.2976789e-06 0)
(0.038125881 5.2983571e-07 0)
(0.0381024 9.6800438e-09 0)
(0.038087291 -2.772013e-07 0)
(0.038077234 -3.880866e-07 0)
(0.038070004 -3.9914659e-07 0)
(0.038064438 -3.7244177e-07 0)
(0.038060114 -3.3956173e-07 0)
(0.038056992 -3.1355166e-07 0)
(0.038055207 -2.9914716e-07 0)
(0.038054922 -3.1945386e-07 0)
(0.038056211 -3.7172244e-07 0)
(0.038059001 -4.1825297e-07 0)
(0.038063122 -4.4108336e-07 0)
(0.038068369 -4.6620578e-07 0)
(0.038074555 -4.8846742e-07 0)
(0.038081508 -5.0529181e-07 0)
(0.038089032 -5.1047975e-07 0)
(0.038096953 -5.138578e-07 0)
(0.03810515 -5.1304313e-07 0)
(0.038113522 -5.1107483e-07 0)
(0.03812197 -5.0384208e-07 0)
(0.038130413 -4.949348e-07 0)
(0.03813879 -4.8388602e-07 0)
(0.038147049 -4.7128258e-07 0)
(0.038155149 -4.5819904e-07 0)
(0.038163043 -4.4143897e-07 0)
(0.038170692 -4.2532281e-07 0)
(0.03817808 -4.0854729e-07 0)
(0.038185188 -3.9178722e-07 0)
(0.038192011 -3.7577863e-07 0)
(0.038198539 -3.5889024e-07 0)
(0.038204767 -3.431756e-07 0)
(0.038210699 -3.2752565e-07 0)
(0.038216334 -3.1194884e-07 0)
(0.038221669 -2.9619745e-07 0)
(0.038226709 -2.80742e-07 0)
(0.038231459 -2.6568507e-07 0)
(0.03823593 -2.5116872e-07 0)
(0.038240132 -2.3741129e-07 0)
(0.038244081 -2.2438794e-07 0)
(0.03824779 -2.1228297e-07 0)
(0.038251274 -2.008661e-07 0)
(0.038254546 -1.8996918e-07 0)
(0.038257616 -1.7943463e-07 0)
(0.038260493 -1.6916343e-07 0)
(0.038263185 -1.591518e-07 0)
(0.0382657 -1.4938655e-07 0)
(0.038268046 -1.3989436e-07 0)
(0.038270232 -1.3075804e-07 0)
(0.038272267 -1.2202841e-07 0)
(0.038274162 -1.138564e-07 0)
(0.038275926 -1.0629902e-07 0)
(0.038277571 -9.9368553e-08 0)
(0.038279107 -9.301057e-08 0)
(0.038280545 -8.7284022e-08 0)
(0.038281894 -8.2089305e-08 0)
(0.038283162 -7.742777e-08 0)
(0.038284356 -7.3195625e-08 0)
(0.038285485 -6.9355548e-08 0)
(0.038286552 -6.5817527e-08 0)
(0.038287564 -6.2609795e-08 0)
(0.038288524 -5.9605272e-08 0)
(0.038289436 -5.68672e-08 0)
(0.038290304 -5.4257571e-08 0)
(0.03829113 -5.1847329e-08 0)
(0.038291917 -4.9541803e-08 0)
(0.038292668 -4.7421651e-08 0)
(0.038293384 -4.5363471e-08 0)
(0.038294067 -4.3454688e-08 0)
(0.038294719 -4.1602928e-08 0)
(0.038295343 -3.9888788e-08 0)
(0.038295938 -3.8226146e-08 0)
(0.038296508 -3.6674124e-08 0)
(0.038297051 -3.515543e-08 0)
(0.038297573 -3.3755302e-08 0)
(0.03829807 -3.2392261e-08 0)
(0.038298548 -3.11266e-08 0)
(0.038299004 -2.9880986e-08 0)
(0.038299443 -2.8726355e-08 0)
(0.038299861 -2.759384e-08 0)
(0.038300264 -2.6536279e-08 0)
(0.038300648 -2.5509469e-08 0)
(0.038301019 -2.4540245e-08 0)
(0.038301372 -2.359649e-08 0)
(0.038301713 -2.2712164e-08 0)
(0.038302038 -2.184863e-08 0)
(0.038302352 -2.1040986e-08 0)
(0.038302651 -2.024685e-08 0)
(0.03830294 -1.9493002e-08 0)
(0.038303216 -1.8759793e-08 0)
(0.038303482 -1.8060857e-08 0)
(0.038303737 -1.7400697e-08 0)
(0.038303982 -1.6753215e-08 0)
(0.038304217 -1.6147846e-08 0)
(0.038304443 -1.553999e-08 0)
(0.03830466 -1.4979492e-08 0)
(0.038304867 -1.441105e-08 0)
(0.038305068 -1.3891303e-08 0)
(0.038305259 -1.3358959e-08 0)
(0.038305444 -1.2883426e-08 0)
(0.038305619 -1.238427e-08 0)
(0.038305791 -1.1956797e-08 0)
(0.038305951 -1.1482295e-08 0)
(0.03830611 -1.1087972e-08 0)
(0.038306256 -1.062535e-08 0)
(0.038306403 -1.0255442e-08 0)
(0.038306536 -9.8192604e-09 0)
(0.038306672 -9.4914372e-09 0)
(0.038306793 -9.0763302e-09 0)
(0.038306919 -8.7751565e-09 0)
(0.038307028 -8.364073e-09 0)
(0.038307144 -8.0954462e-09 0)
(0.038307242 -7.7005234e-09 0)
(0.03830735 -7.4619858e-09 0)
(0.038307437 -7.0739687e-09 0)
(0.038307537 -6.8541972e-09 0)
(0.038307614 -6.4688264e-09 0)
(0.038307706 -6.2777652e-09 0)
(0.038307773 -5.8936978e-09 0)
(0.038307858 -5.7367993e-09 0)
(0.038307916 -5.3542907e-09 0)
(0.038307994 -5.2189064e-09 0)
(0.038308043 -4.837808e-09 0)
(0.038308114 -4.723506e-09 0)
(0.038308154 -4.331986e-09 0)
(0.03830822 -4.2447701e-09 0)
(0.038308251 -3.8427166e-09 0)
(0.038308311 -3.786146e-09 0)
(0.038308334 -3.3791959e-09 0)
(0.038308389 -3.341162e-09 0)
(0.038308403 -2.9221126e-09 0)
(0.038308453 -2.9118542e-09 0)
(0.038308459 -2.4790435e-09 0)
(0.038308504 -2.4928779e-09 0)
(0.038308502 -2.0526338e-09 0)
(0.038308543 -2.0799994e-09 0)
(0.038308532 -1.6260481e-09 0)
(0.038308568 -1.6675903e-09 0)
(0.03830855 -1.1720831e-09 0)
(0.038308582 -1.2325895e-09 0)
(0.038308555 -7.4672169e-10 0)
(0.038308583 -8.4974878e-10 0)
(0.038308547 -3.4323565e-10 0)
(0.038308571 -4.7063061e-10 0)
(0.038308528 4.7686168e-11 0)
(0.038308548 -9.6608377e-11 0)
(0.038308497 4.3254102e-10 0)
(0.038308512 2.7984401e-10 0)
(0.038308453 8.1224458e-10 0)
(0.038308464 6.3802964e-10 0)
(0.038308398 1.1588115e-09 0)
(0.038308404 1.0124411e-09 0)
(0.03830833 1.828434e-09 0)
(0.48449248 0.022524889 0)
(0.45711068 0.024515952 0)
(0.41471359 0.01950572 0)
(0.37065665 0.012621469 0)
(0.33213527 0.0073135238 0)
(0.29942443 0.0043239038 0)
(0.2730139 0.002789071 0)
(0.25235159 0.0019880304 0)
(0.2361103 0.0015498872 0)
(0.22296118 0.0012880216 0)
(0.21194874 0.0011075572 0)
(0.20249145 0.00096614888 0)
(0.19423739 0.00084936907 0)
(0.18695399 0.00075245648 0)
(0.18047187 0.00067185682 0)
(0.17465959 0.0006042607 0)
(0.16941273 0.00054722689 0)
(0.16464864 0.00049841555 0)
(0.1603019 0.0004556914 0)
(0.1563193 0.00041810498 0)
(0.15265678 0.00038513373 0)
(0.1492788 0.00035560331 0)
(0.14615651 0.00032862483 0)
(0.14326494 0.0003042856 0)
(0.14058246 0.00028241472 0)
(0.13809186 0.00026209646 0)
(0.13577921 0.00024293364 0)
(0.13363161 0.00022530184 0)
(0.13163742 0.00020910393 0)
(0.12978781 0.00019362326 0)
(0.12807587 0.00017865224 0)
(0.12649455 0.00016459142 0)
(0.12503697 0.00015146005 0)
(0.12369795 0.00013875992 0)
(0.1224737 0.00012627832 0)
(0.12136015 0.00011429257 0)
(0.1203526 0.00010297862 0)
(0.11944687 9.2126132e-05 0)
(0.11863979 8.1486873e-05 0)
(0.11792817 7.1105761e-05 0)
(0.11730777 6.1233462e-05 0)
(0.11677332 5.2030473e-05 0)
(0.11631947 4.3417162e-05 0)
(0.11594123 3.5222049e-05 0)
(0.11563322 2.7461047e-05 0)
(0.1153885 2.0426378e-05 0)
(0.11519796 1.4497779e-05 0)
(0.11505108 9.9098359e-06 0)
(0.1149372 6.6719063e-06 0)
(0.11484698 4.5980624e-06 0)
(0.11477326 3.3679698e-06 0)
(0.11471137 2.625915e-06 0)
(0.11465869 2.0951539e-06 0)
(0.11461393 1.6249425e-06 0)
(0.11457655 1.1506384e-06 0)
(0.11454632 6.5118287e-07 0)
(0.11452303 1.1333275e-07 0)
(0.11450631 -4.326242e-07 0)
(0.11449557 -9.1794514e-07 0)
(0.11449008 -1.3534652e-06 0)
(0.11448913 -1.7195481e-06 0)
(0.11449206 -2.0119646e-06 0)
(0.11449825 -2.2500523e-06 0)
(0.11450709 -2.4101249e-06 0)
(0.11451807 -2.5261944e-06 0)
(0.11453074 -2.6032252e-06 0)
(0.11454476 -2.6499115e-06 0)
(0.11455977 -2.65927e-06 0)
(0.11457548 -2.6516435e-06 0)
(0.11459166 -2.6247432e-06 0)
(0.11460809 -2.5814625e-06 0)
(0.11462459 -2.5275948e-06 0)
(0.11464098 -2.4545897e-06 0)
(0.11465714 -2.3766017e-06 0)
(0.11467295 -2.2909559e-06 0)
(0.11468833 -2.2010293e-06 0)
(0.11470321 -2.1099239e-06 0)
(0.11471752 -2.0133444e-06 0)
(0.11473124 -1.9186321e-06 0)
(0.11474432 -1.8230988e-06 0)
(0.11475675 -1.7274424e-06 0)
(0.1147685 -1.6316486e-06 0)
(0.11477959 -1.5378527e-06 0)
(0.11479 -1.4467198e-06 0)
(0.11479977 -1.3590279e-06 0)
(0.1148089 -1.275761e-06 0)
(0.11481744 -1.1968857e-06 0)
(0.1148254 -1.1229381e-06 0)
(0.11483282 -1.0531382e-06 0)
(0.11483973 -9.8701878e-07 0)
(0.11484615 -9.2410666e-07 0)
(0.11485212 -8.6402237e-07 0)
(0.11485765 -8.0676873e-07 0)
(0.11486277 -7.5224376e-07 0)
(0.11486752 -7.005243e-07 0)
(0.11487191 -6.5186003e-07 0)
(0.11487597 -6.063373e-07 0)
(0.11487973 -5.6428071e-07 0)
(0.11488322 -5.2568684e-07 0)
(0.11488645 -4.9051476e-07 0)
(0.11488946 -4.5847829e-07 0)
(0.11489227 -4.2958744e-07 0)
(0.11489489 -4.0335746e-07 0)
(0.11489735 -3.796502e-07 0)
(0.11489966 -3.5804649e-07 0)
(0.11490183 -3.383812e-07 0)
(0.11490387 -3.2026587e-07 0)
(0.1149058 -3.037059e-07 0)
(0.11490762 -2.8822149e-07 0)
(0.11490934 -2.7398976e-07 0)
(0.11491097 -2.605307e-07 0)
(0.11491251 -2.4806614e-07 0)
(0.11491397 -2.362152e-07 0)
(0.11491536 -2.2522729e-07 0)
(0.11491668 -2.1468867e-07 0)
(0.11491793 -2.0489866e-07 0)
(0.11491911 -1.95487e-07 0)
(0.11492024 -1.867309e-07 0)
(0.11492131 -1.7831282e-07 0)
(0.11492233 -1.7044955e-07 0)
(0.1149233 -1.6284457e-07 0)
(0.11492423 -1.5579171e-07 0)
(0.1149251 -1.4898032e-07 0)
(0.11492594 -1.4264303e-07 0)
(0.11492674 -1.3646643e-07 0)
(0.1149275 -1.3071227e-07 0)
(0.11492822 -1.2511844e-07 0)
(0.11492891 -1.1990327e-07 0)
(0.11492957 -1.1485841e-07 0)
(0.1149302 -1.1012667e-07 0)
(0.1149308 -1.0552038e-07 0)
(0.11493137 -1.0120986e-07 0)
(0.11493191 -9.7000456e-08 0)
(0.11493243 -9.308234e-08 0)
(0.11493293 -8.9239557e-08 0)
(0.1149334 -8.5643582e-08 0)
(0.11493386 -8.2120788e-08 0)
(0.11493429 -7.8807704e-08 0)
(0.1149347 -7.5610167e-08 0)
(0.11493509 -7.2566724e-08 0)
(0.11493547 -6.9642748e-08 0)
(0.11493582 -6.6821944e-08 0)
(0.11493617 -6.4120735e-08 0)
(0.11493649 -6.1501453e-08 0)
(0.11493681 -5.8999987e-08 0)
(0.1149371 -5.6569313e-08 0)
(0.11493739 -5.4274185e-08 0)
(0.11493765 -5.2014814e-08 0)
(0.11493791 -4.9927137e-08 0)
(0.11493815 -4.7803836e-08 0)
(0.11493839 -4.587378e-08 0)
(0.1149386 -4.3844142e-08 0)
(0.11493882 -4.2042698e-08 0)
(0.11493901 -4.0137684e-08 0)
(0.11493921 -3.8500592e-08 0)
(0.11493937 -3.6696178e-08 0)
(0.11493956 -3.5181322e-08 0)
(0.1149397 -3.3429547e-08 0)
(0.11493987 -3.2051134e-08 0)
(0.11493999 -3.0376361e-08 0)
(0.11494015 -2.9117676e-08 0)
(0.11494025 -2.7488012e-08 0)
(0.1149404 -2.631586e-08 0)
(0.11494048 -2.4720184e-08 0)
(0.11494061 -2.3668203e-08 0)
(0.11494067 -2.210122e-08 0)
(0.11494079 -2.1175118e-08 0)
(0.11494084 -1.9625228e-08 0)
(0.11494095 -1.8782793e-08 0)
(0.11494098 -1.7244509e-08 0)
(0.11494108 -1.6485338e-08 0)
(0.11494109 -1.4929142e-08 0)
(0.11494118 -1.4273834e-08 0)
(0.11494117 -1.2693078e-08 0)
(0.11494126 -1.2142554e-08 0)
(0.11494124 -1.0543397e-08 0)
(0.11494132 -1.0071367e-08 0)
(0.11494127 -8.4382936e-09 0)
(0.11494135 -8.068609e-09 0)
(0.11494128 -6.3919108e-09 0)
(0.11494135 -6.1152767e-09 0)
(0.11494127 -4.4019322e-09 0)
(0.11494134 -4.1863692e-09 0)
(0.11494124 -2.3873649e-09 0)
(0.1149413 -2.2373195e-09 0)
(0.11494118 -3.6874131e-10 0)
(0.11494123 -2.9254091e-10 0)
(0.1149411 1.6184815e-09 0)
(0.11494115 1.5843175e-09 0)
(0.114941 3.5616458e-09 0)
(0.11494104 3.4440961e-09 0)
(0.11494087 5.4745714e-09 0)
(0.11494091 5.2974509e-09 0)
(0.11494072 7.3842752e-09 0)
(0.11494075 7.1659959e-09 0)
(0.11494055 9.289332e-09 0)
(0.11494057 9.0116877e-09 0)
(0.11494036 1.1180694e-08 0)
(0.11494037 1.082675e-08 0)
(0.11494014 1.3726787e-08 0)
(0.48518086 0.020535225 0)
(0.48899852 0.026116253 0)
(0.48455919 0.023589084 0)
(0.47069819 0.017969758 0)
(0.45183121 0.012977452 0)
(0.43069966 0.009736135 0)
(0.40974544 0.0076611119 0)
(0.39029621 0.0061806715 0)
(0.37272372 0.0050685792 0)
(0.35691822 0.0042356934 0)
(0.34265483 0.0036083014 0)
(0.32974542 0.0031229679 0)
(0.31804153 0.0027358109 0)
(0.30741558 0.0024202094 0)
(0.2977505 0.0021589896 0)
(0.28893583 0.001940221 0)
(0.28087069 0.0017553989 0)
(0.2734677 0.0015972815 0)
(0.26665157 0.0014598708 0)
(0.26035671 0.001339568 0)
(0.25452772 0.0012337504 0)
(0.24911882 0.0011392246 0)
(0.24409074 0.0010536695 0)
(0.23940907 0.00097640448 0)
(0.23504489 0.00090637629 0)
(0.23097448 0.00084159496 0)
(0.22717724 0.00078109911 0)
(0.22363471 0.00072511461 0)
(0.22033127 0.00067307759 0)
(0.21725432 0.00062359741 0)
(0.21439299 0.00057624003 0)
(0.21173706 0.0005314937 0)
(0.20927744 0.00048916912 0)
(0.20700675 0.00044833473 0)
(0.20491877 0.00040864009 0)
(0.20300731 0.00037052134 0)
(0.201266 0.00033418351 0)
(0.19968896 0.00029921932 0)
(0.19827103 0.0002652612 0)
(0.19700687 0.0002324968 0)
(0.1958899 0.00020143272 0)
(0.19491233 0.00017236617 0)
(0.19406603 0.00014519822 0)
(0.19334276 0.00011976699 0)
(0.19273332 9.6314519e-05 0)
(0.19222636 7.5542695e-05 0)
(0.19180814 5.8195928e-05 0)
(0.19146344 4.4622291e-05 0)
(0.19117708 3.4645911e-05 0)
(0.19093569 2.7667941e-05 0)
(0.19072879 2.2844491e-05 0)
(0.19054911 1.9321199e-05 0)
(0.19039202 1.6453748e-05 0)
(0.19025467 1.3874645e-05 0)
(0.1901353 1.1410554e-05 0)
(0.19003271 8.9977295e-06 0)
(0.18994588 6.6656841e-06 0)
(0.18987363 4.4970143e-06 0)
(0.18981461 2.564457e-06 0)
(0.18976739 8.5019083e-07 0)
(0.18973062 -6.1221998e-07 0)
(0.18970301 -1.8246954e-06 0)
(0.18968336 -2.8200482e-06 0)
(0.18967055 -3.7403895e-06 0)
(0.18966357 -4.4308328e-06 0)
(0.18966157 -4.9607512e-06 0)
(0.18966379 -5.3680962e-06 0)
(0.18966952 -5.6417897e-06 0)
(0.18967816 -5.8263716e-06 0)
(0.18968918 -5.9349329e-06 0)
(0.18970209 -5.9740792e-06 0)
(0.18971646 -5.9560463e-06 0)
(0.18973192 -5.8737127e-06 0)
(0.18974811 -5.7593537e-06 0)
(0.18976477 -5.6093677e-06 0)
(0.18978163 -5.4334389e-06 0)
(0.18979849 -5.24107e-06 0)
(0.18981517 -5.0266758e-06 0)
(0.1898315 -4.8052365e-06 0)
(0.18984737 -4.5742898e-06 0)
(0.18986267 -4.3372239e-06 0)
(0.1898773 -4.0959968e-06 0)
(0.18989122 -3.8562571e-06 0)
(0.18990438 -3.6205677e-06 0)
(0.18991676 -3.3916057e-06 0)
(0.18992835 -3.172082e-06 0)
(0.18993916 -2.9626313e-06 0)
(0.18994922 -2.7648458e-06 0)
(0.18995853 -2.5775274e-06 0)
(0.18996714 -2.4002703e-06 0)
(0.18997508 -2.2325864e-06 0)
(0.18998237 -2.0738392e-06 0)
(0.18998907 -1.9241725e-06 0)
(0.1899952 -1.7833845e-06 0)
(0.19000082 -1.6516261e-06 0)
(0.19000595 -1.5291775e-06 0)
(0.19001065 -1.4159264e-06 0)
(0.19001495 -1.3122277e-06 0)
(0.19001889 -1.21772e-06 0)
(0.1900225 -1.1320518e-06 0)
(0.19002583 -1.0544268e-06 0)
(0.1900289 -9.8453744e-07 0)
(0.19003173 -9.2121755e-07 0)
(0.19003436 -8.6395668e-07 0)
(0.19003679 -8.118244e-07 0)
(0.19003906 -7.6436304e-07 0)
(0.19004118 -7.2072473e-07 0)
(0.19004315 -6.807705e-07 0)
(0.19004499 -6.4353107e-07 0)
(0.19004672 -6.0925089e-07 0)
(0.19004833 -5.7701044e-07 0)
(0.19004984 -5.4713837e-07 0)
(0.19005126 -5.1889305e-07 0)
(0.19005259 -4.9266731e-07 0)
(0.19005383 -4.6769182e-07 0)
(0.190055 -4.4450761e-07 0)
(0.1900561 -4.2236801e-07 0)
(0.19005713 -4.0175592e-07 0)
(0.1900581 -3.8205653e-07 0)
(0.19005901 -3.6368388e-07 0)
(0.19005986 -3.4603968e-07 0)
(0.19006067 -3.2967162e-07 0)
(0.19006142 -3.1394579e-07 0)
(0.19006213 -2.9933586e-07 0)
(0.19006279 -2.8518054e-07 0)
(0.19006342 -2.7200571e-07 0)
(0.190064 -2.5925237e-07 0)
(0.19006456 -2.4741107e-07 0)
(0.19006507 -2.3596969e-07 0)
(0.19006556 -2.2531994e-07 0)
(0.19006602 -2.1494206e-07 0)
(0.19006645 -2.0529956e-07 0)
(0.19006685 -1.9585643e-07 0)
(0.19006723 -1.8714419e-07 0)
(0.19006758 -1.7856468e-07 0)
(0.19006792 -1.7065512e-07 0)
(0.19006823 -1.6283805e-07 0)
(0.19006852 -1.5561508e-07 0)
(0.19006879 -1.4852187e-07 0)
(0.19006905 -1.4194485e-07 0)
(0.19006929 -1.3547949e-07 0)
(0.1900695 -1.2944371e-07 0)
(0.19006972 -1.2349058e-07 0)
(0.1900699 -1.1793331e-07 0)
(0.19007009 -1.1243551e-07 0)
(0.19007024 -1.073251e-07 0)
(0.19007041 -1.0228225e-07 0)
(0.19007054 -9.7574529e-08 0)
(0.19007068 -9.29715e-08 0)
(0.19007078 -8.858763e-08 0)
(0.19007091 -8.432851e-08 0)
(0.19007099 -8.0191814e-08 0)
(0.1900711 -7.6228813e-08 0)
(0.19007115 -7.2376314e-08 0)
(0.19007125 -6.8740918e-08 0)
(0.19007128 -6.5114949e-08 0)
(0.19007137 -6.1738526e-08 0)
(0.19007138 -5.826205e-08 0)
(0.19007146 -5.5164601e-08 0)
(0.19007145 -5.1861333e-08 0)
(0.19007152 -4.8998683e-08 0)
(0.19007149 -4.5804076e-08 0)
(0.19007155 -4.3115378e-08 0)
(0.1900715 -4.0016012e-08 0)
(0.19007155 -3.7566702e-08 0)
(0.19007149 -3.4553545e-08 0)
(0.19007153 -3.2336991e-08 0)
(0.19007145 -2.9368572e-08 0)
(0.19007149 -2.7306911e-08 0)
(0.19007139 -2.4365665e-08 0)
(0.19007143 -2.2457374e-08 0)
(0.1900713 -1.9505816e-08 0)
(0.19007134 -1.7791644e-08 0)
(0.1900712 -1.4809815e-08 0)
(0.19007123 -1.3277671e-08 0)
(0.19007107 -1.024644e-08 0)
(0.1900711 -8.858874e-09 0)
(0.19007092 -5.7710712e-09 0)
(0.19007095 -4.5663357e-09 0)
(0.19007075 -1.3970266e-09 0)
(0.19007078 -3.6057593e-10 0)
(0.19007055 2.8949487e-09 0)
(0.19007059 3.8127767e-09 0)
(0.19007034 7.2093958e-09 0)
(0.19007037 7.9921463e-09 0)
(0.19007011 1.150554e-08 0)
(0.19007014 1.2137881e-08 0)
(0.19006985 1.5818851e-08 0)
(0.19006988 1.6280903e-08 0)
(0.19006957 2.0122612e-08 0)
(0.1900696 2.042305e-08 0)
(0.19006926 2.4414834e-08 0)
(0.19006929 2.4594024e-08 0)
(0.19006894 2.8752049e-08 0)
(0.19006896 2.8823775e-08 0)
(0.19006859 3.3133365e-08 0)
(0.19006861 3.3055915e-08 0)
(0.19006821 3.7642763e-08 0)
(0.19006822 3.7282322e-08 0)
(0.19006781 4.2608912e-08 0)
(0.48448638 0.017803284 0)
(0.49064218 0.024323516 0)
(0.49770019 0.023349052 0)
(0.49913363 0.019101068 0)
(0.49485453 0.01492573 0)
(0.48663025 0.012179309 0)
(0.47651531 0.010385573 0)
(0.46577077 0.0090138602 0)
(0.45492939 0.007874695 0)
(0.44416004 0.0069341598 0)
(0.43353131 0.0061631933 0)
(0.42311823 0.0055211318 0)
(0.4130008 0.0049738347 0)
(0.40324717 0.0044999355 0)
(0.39390527 0.0040862385 0)
(0.38500047 0.0037240621 0)
(0.37654032 0.0034067805 0)
(0.36852215 0.0031273711 0)
(0.36093543 0.0028793411 0)
(0.35376308 0.0026585565 0)
(0.34698599 0.0024614371 0)
(0.34058559 0.0022834422 0)
(0.33454234 0.0021212745 0)
(0.3288364 0.0019736643 0)
(0.32345021 0.0018386844 0)
(0.31836856 0.001713309 0)
(0.31357669 0.0015960291 0)
(0.30906081 0.0014868308 0)
(0.30480946 0.0013845997 0)
(0.30081297 0.0012872538 0)
(0.29706228 0.0011940874 0)
(0.29354898 0.0011055907 0)
(0.29026591 0.0010213273 0)
(0.28720688 0.00093993057 0)
(0.28436619 0.00086087896 0)
(0.2817384 0.00078472899 0)
(0.27931808 0.0007117254 0)
(0.27709979 0.0006412927 0)
(0.27507827 0.00057294825 0)
(0.273248 0.00050703339 0)
(0.27160242 0.0004443653 0)
(0.27013352 0.00038545292 0)
(0.26883246 0.00033024271 0)
(0.2676898 0.00027863897 0)
(0.26669489 0.0002311671 0)
(0.26583502 0.00018899535 0)
(0.26509525 0.00015329059 0)
(0.26445904 0.00012456881 0)
(0.26390957 0.00010248919 0)
(0.26343127 8.599398e-05 0)
(0.26301121 7.3614758e-05 0)
(0.26263958 6.3884137e-05 0)
(0.26230935 5.5689026e-05 0)
(0.26201552 4.8359757e-05 0)
(0.26175453 4.1542554e-05 0)
(0.26152374 3.5081109e-05 0)
(0.26132091 2.8981699e-05 0)
(0.26114387 2.3353611e-05 0)
(0.26099038 1.8294557e-05 0)
(0.2608582 1.3835311e-05 0)
(0.26074524 9.9329733e-06 0)
(0.26064951 6.5584634e-06 0)
(0.2605691 3.6796806e-06 0)
(0.26050233 1.1223679e-06 0)
(0.26044761 -9.851944e-07 0)
(0.26040351 -2.7212128e-06 0)
(0.26036877 -4.1441663e-06 0)
(0.26034222 -5.4118393e-06 0)
(0.26032282 -6.4150188e-06 0)
(0.26030963 -7.1845832e-06 0)
(0.26030178 -7.7657165e-06 0)
(0.26029851 -8.1821183e-06 0)
(0.26029909 -8.41985e-06 0)
(0.26030288 -8.5452271e-06 0)
(0.2603093 -8.5656758e-06 0)
(0.26031785 -8.4967422e-06 0)
(0.26032806 -8.3572346e-06 0)
(0.26033952 -8.1469572e-06 0)
(0.26035186 -7.894226e-06 0)
(0.26036476 -7.5977745e-06 0)
(0.26037795 -7.2673307e-06 0)
(0.26039117 -6.9102799e-06 0)
(0.26040422 -6.538437e-06 0)
(0.26041694 -6.15844e-06 0)
(0.26042919 -5.7779394e-06 0)
(0.26044086 -5.4037796e-06 0)
(0.26045189 -5.0389044e-06 0)
(0.2604622 -4.6883493e-06 0)
(0.26047179 -4.3523823e-06 0)
(0.26048063 -4.0318769e-06 0)
(0.26048872 -3.7275269e-06 0)
(0.26049608 -3.4394349e-06 0)
(0.26050274 -3.1686289e-06 0)
(0.26050874 -2.9151363e-06 0)
(0.26051412 -2.6794858e-06 0)
(0.26051893 -2.4622143e-06 0)
(0.26052321 -2.2628149e-06 0)
(0.26052703 -2.0815401e-06 0)
(0.26053043 -1.9175241e-06 0)
(0.26053346 -1.7698321e-06 0)
(0.26053616 -1.6368256e-06 0)
(0.26053857 -1.5177064e-06 0)
(0.26054073 -1.4104217e-06 0)
(0.26054267 -1.3138361e-06 0)
(0.26054441 -1.2263746e-06 0)
(0.26054597 -1.1470746e-06 0)
(0.26054738 -1.0745378e-06 0)
(0.26054865 -1.0083675e-06 0)
(0.26054979 -9.4702071e-07 0)
(0.26055082 -8.9071283e-07 0)
(0.26055174 -8.3811323e-07 0)
(0.26055257 -7.895093e-07 0)
(0.26055331 -7.4379889e-07 0)
(0.26055397 -7.0149853e-07 0)
(0.26055456 -6.6144734e-07 0)
(0.26055509 -6.2438741e-07 0)
(0.26055554 -5.892017e-07 0)
(0.26055595 -5.5657203e-07 0)
(0.2605563 -5.2556721e-07 0)
(0.26055661 -4.9678508e-07 0)
(0.26055687 -4.6928249e-07 0)
(0.26055709 -4.4389128e-07 0)
(0.26055727 -4.1958925e-07 0)
(0.26055742 -3.9716154e-07 0)
(0.26055754 -3.7549933e-07 0)
(0.26055763 -3.554977e-07 0)
(0.26055769 -3.3614666e-07 0)
(0.26055773 -3.183629e-07 0)
(0.26055774 -3.0114502e-07 0)
(0.26055774 -2.8534348e-07 0)
(0.26055771 -2.6987908e-07 0)
(0.26055767 -2.5574078e-07 0)
(0.26055761 -2.4178229e-07 0)
(0.26055754 -2.291454e-07 0)
(0.26055745 -2.1656414e-07 0)
(0.26055735 -2.0524439e-07 0)
(0.26055724 -1.9387342e-07 0)
(0.26055712 -1.8365327e-07 0)
(0.260557 -1.7339148e-07 0)
(0.26055685 -1.6420331e-07 0)
(0.26055671 -1.5490843e-07 0)
(0.26055655 -1.4658383e-07 0)
(0.2605564 -1.3807597e-07 0)
(0.26055622 -1.3051118e-07 0)
(0.26055607 -1.2269601e-07 0)
(0.26055587 -1.1582895e-07 0)
(0.26055571 -1.0868748e-07 0)
(0.2605555 -1.0243962e-07 0)
(0.26055534 -9.5937815e-08 0)
(0.26055512 -9.0189252e-08 0)
(0.26055496 -8.4187155e-08 0)
(0.26055472 -7.8825359e-08 0)
(0.26055456 -7.3253028e-08 0)
(0.26055432 -6.8318359e-08 0)
(0.26055416 -6.3202232e-08 0)
(0.2605539 -5.8604951e-08 0)
(0.26055375 -5.3848268e-08 0)
(0.26055348 -4.947619e-08 0)
(0.26055333 -4.509897e-08 0)
(0.26055305 -4.0980162e-08 0)
(0.26055291 -3.6928549e-08 0)
(0.26055262 -3.3013875e-08 0)
(0.26055248 -2.9207147e-08 0)
(0.26055218 -2.5403016e-08 0)
(0.26055204 -2.1891572e-08 0)
(0.26055173 -1.8204579e-08 0)
(0.26055161 -1.4987517e-08 0)
(0.26055128 -1.1355533e-08 0)
(0.26055116 -8.3231591e-09 0)
(0.26055083 -4.7130536e-09 0)
(0.26055072 -1.8580188e-09 0)
(0.26055036 1.7779721e-09 0)
(0.26055027 4.3901162e-09 0)
(0.2605499 8.0786524e-09 0)
(0.26054981 1.0469305e-08 0)
(0.26054943 1.4251085e-08 0)
(0.26054935 1.6468099e-08 0)
(0.26054895 2.0359038e-08 0)
(0.26054888 2.2353833e-08 0)
(0.26054846 2.6387468e-08 0)
(0.2605484 2.8179395e-08 0)
(0.26054796 3.237282e-08 0)
(0.26054791 3.4011849e-08 0)
(0.26054746 3.8389093e-08 0)
(0.26054742 3.9842585e-08 0)
(0.26054694 4.4475556e-08 0)
(0.26054691 4.5736232e-08 0)
(0.26054641 5.0680958e-08 0)
(0.26054639 5.169761e-08 0)
(0.26054587 5.6955333e-08 0)
(0.26054586 5.7732935e-08 0)
(0.26054532 6.3300008e-08 0)
(0.26054531 6.3887635e-08 0)
(0.26054475 6.9800345e-08 0)
(0.26054475 7.0192398e-08 0)
(0.26054416 7.6466591e-08 0)
(0.26054417 7.658073e-08 0)
(0.26054356 8.3442125e-08 0)
(0.26054356 8.330851e-08 0)
(0.26054294 9.0502268e-08 0)
(0.4858877 0.016013869 0)
(0.49026054 0.022564386 0)
(0.49805022 0.022341917 0)
(0.50360599 0.018869486 0)
(0.50512055 0.015204365 0)
(0.50336824 0.012794785 0)
(0.49988076 0.011297642 0)
(0.49563148 0.010178784 0)
(0.49095978 0.0092198296 0)
(0.48591474 0.0083947505 0)
(0.48049706 0.0076983407 0)
(0.47474569 0.0071027304 0)
(0.46873148 0.0065782754 0)
(0.46253475 0.0061060138 0)
(0.45623074 0.0056756528 0)
(0.44988385 0.005282451 0)
(0.44354832 0.0049238434 0)
(0.43726981 0.0045958464 0)
(0.43108492 0.0042943316 0)
(0.42502183 0.0040174306 0)
(0.4191029 0.0037631469 0)
(0.41334558 0.0035276534 0)
(0.40776195 0.003308352 0)
(0.40236031 0.0031047791 0)
(0.39714731 0.0029152172 0)
(0.39212786 0.002736426 0)
(0.3873045 0.0025670031 0)
(0.38267877 0.0024071988 0)
(0.37825247 0.0022557365 0)
(0.37402672 0.0021101718 0)
(0.37000156 0.0019697631 0)
(0.36617697 0.0018351444 0)
(0.36255338 0.001705786 0)
(0.35913069 0.0015800636 0)
(0.35590809 0.0014573701 0)
(0.3528848 0.0013383899 0)
(0.35006005 0.0012234803 0)
(0.34743232 0.0011120358 0)
(0.34499919 0.0010035278 0)
(0.34275773 0.00089842985 0)
(0.34070423 0.00079788112 0)
(0.33883355 0.00070269998 0)
(0.33713915 0.00061299504 0)
(0.33561328 0.00052879959 0)
(0.33424677 0.00045092219 0)
(0.33302871 0.00038097032 0)
(0.33194648 0.00032053666 0)
(0.33098604 0.0002703857 0)
(0.33013264 0.00023016075 0)
(0.32937187 0.00019850025 0)
(0.32869082 0.00017341293 0)
(0.32807883 0.00015285171 0)
(0.32752742 0.00013521474 0)
(0.32702995 0.00011947404 0)
(0.32658121 0.00010501948 0)
(0.32617714 9.152809e-05 0)
(0.32581434 7.8932038e-05 0)
(0.32548965 6.7331906e-05 0)
(0.32520006 5.6823586e-05 0)
(0.32494263 4.7406495e-05 0)
(0.32471465 3.9008394e-05 0)
(0.32451352 3.1562557e-05 0)
(0.32433678 2.5018556e-05 0)
(0.32418216 1.9341922e-05 0)
(0.32404755 1.4400735e-05 0)
(0.32393099 1.0124404e-05 0)
(0.32383071 6.4429339e-06 0)
(0.32374509 3.1674313e-06 0)
(0.32367266 3.8995686e-07 0)
(0.32361201 -1.9259921e-06 0)
(0.32356187 -3.83554e-06 0)
(0.32352109 -5.397497e-06 0)
(0.32348856 -6.7641887e-06 0)
(0.32346329 -7.8013564e-06 0)
(0.32344438 -8.5761115e-06 0)
(0.32343097 -9.1351927e-06 0)
(0.32342229 -9.5035663e-06 0)
(0.32341762 -9.6806947e-06 0)
(0.32341629 -9.725826e-06 0)
(0.32341772 -9.6463021e-06 0)
(0.32342135 -9.4586461e-06 0)
(0.32342671 -9.1792479e-06 0)
(0.32343336 -8.8334512e-06 0)
(0.32344093 -8.4341203e-06 0)
(0.32344907 -7.9963435e-06 0)
(0.3234575 -7.5357749e-06 0)
(0.32346598 -7.0611154e-06 0)
(0.32347429 -6.5836755e-06 0)
(0.32348227 -6.1091303e-06 0)
(0.32348978 -5.6436269e-06 0)
(0.32349672 -5.1921415e-06 0)
(0.32350302 -4.7584415e-06 0)
(0.32350866 -4.3470433e-06 0)
(0.32351361 -3.9603096e-06 0)
(0.3235179 -3.6003318e-06 0)
(0.32352157 -3.269073e-06 0)
(0.32352464 -2.9666532e-06 0)
(0.32352719 -2.693504e-06 0)
(0.32352927 -2.4482361e-06 0)
(0.32353094 -2.2293085e-06 0)
(0.32353225 -2.0340282e-06 0)
(0.32353325 -1.8607901e-06 0)
(0.32353399 -1.7064025e-06 0)
(0.3235345 -1.5686853e-06 0)
(0.32353483 -1.4451984e-06 0)
(0.32353499 -1.3342968e-06 0)
(0.32353501 -1.2339052e-06 0)
(0.32353492 -1.143146e-06 0)
(0.32353471 -1.0597919e-06 0)
(0.32353443 -9.8381621e-07 0)
(0.32353406 -9.1347757e-07 0)
(0.32353363 -8.4908387e-07 0)
(0.32353314 -7.8894669e-07 0)
(0.3235326 -7.3371413e-07 0)
(0.32353201 -6.8184184e-07 0)
(0.32353139 -6.34229e-07 0)
(0.32353072 -5.8929258e-07 0)
(0.32353004 -5.4791168e-07 0)
(0.32352932 -5.0885483e-07 0)
(0.32352858 -4.7298771e-07 0)
(0.32352783 -4.3886967e-07 0)
(0.32352706 -4.0776312e-07 0)
(0.32352627 -3.7806112e-07 0)
(0.32352549 -3.510771e-07 0)
(0.32352469 -3.2500546e-07 0)
(0.32352388 -3.0138798e-07 0)
(0.32352307 -2.784477e-07 0)
(0.32352226 -2.5784972e-07 0)
(0.32352145 -2.3774951e-07 0)
(0.32352064 -2.1982703e-07 0)
(0.32351984 -2.0206766e-07 0)
(0.32351903 -1.8637194e-07 0)
(0.32351823 -1.705856e-07 0)
(0.32351743 -1.5685354e-07 0)
(0.32351664 -1.4283218e-07 0)
(0.32351585 -1.3086799e-07 0)
(0.32351508 -1.1847021e-07 0)
(0.3235143 -1.0818673e-07 0)
(0.32351355 -9.7246793e-08 0)
(0.32351278 -8.8085231e-08 0)
(0.32351205 -7.8262461e-08 0)
(0.32351129 -7.0159456e-08 0)
(0.32351058 -6.1265932e-08 0)
(0.32350983 -5.4095873e-08 0)
(0.32350916 -4.601561e-08 0)
(0.32350842 -3.9694705e-08 0)
(0.32350776 -3.2391786e-08 0)
(0.32350704 -2.6807579e-08 0)
(0.32350641 -2.0231109e-08 0)
(0.32350569 -1.5232684e-08 0)
(0.32350509 -9.2098955e-09 0)
(0.32350439 -4.6550836e-09 0)
(0.32350381 9.0765958e-10 0)
(0.32350312 4.9791993e-09 0)
(0.32350257 1.0058254e-08 0)
(0.32350189 1.3755069e-08 0)
(0.32350136 1.8466911e-08 0)
(0.32350069 2.1933052e-08 0)
(0.32350019 2.6263615e-08 0)
(0.32349952 2.9472614e-08 0)
(0.32349905 3.3490754e-08 0)
(0.32349839 3.6502203e-08 0)
(0.32349795 4.0309117e-08 0)
(0.32349728 4.3232642e-08 0)
(0.32349687 4.6762519e-08 0)
(0.32349621 4.9594526e-08 0)
(0.32349582 5.2847094e-08 0)
(0.32349516 5.5664635e-08 0)
(0.3234948 5.877255e-08 0)
(0.32349414 6.1622677e-08 0)
(0.32349381 6.4602551e-08 0)
(0.32349314 6.754807e-08 0)
(0.32349283 7.0312915e-08 0)
(0.32349216 7.3384921e-08 0)
(0.32349188 7.5953168e-08 0)
(0.3234912 7.9197925e-08 0)
(0.32349095 8.1617423e-08 0)
(0.32349026 8.5077461e-08 0)
(0.32349004 8.7300442e-08 0)
(0.32348933 9.1011484e-08 0)
(0.32348914 9.3049121e-08 0)
(0.32348842 9.7037414e-08 0)
(0.32348825 9.8934532e-08 0)
(0.32348752 1.0323921e-07 0)
(0.32348737 1.0496508e-07 0)
(0.32348663 1.0969026e-07 0)
(0.3234865 1.1121858e-07 0)
(0.32348574 1.1643747e-07 0)
(0.32348564 1.1768701e-07 0)
(0.32348486 1.2341735e-07 0)
(0.32348478 1.2438396e-07 0)