# vtk DataFile Version 2.0
inlet
ASCII
DATASET POLYDATA
POINTS 772 float
-0.333333 0 0 -0.333333 0 0.1 -0.333333 4.9308e-05 0.1 -0.333333 4.9308e-05
0 -0.333333 9.93539e-05 0.1 -0.333333 9.93539e-05 0 -0.333333 0.000150149 0.1
-0.333333 0.000150149 0 -0.333333 0.000201704 0.1 -0.333333 0.000201704 0 -0.333333
0.00025403 0.1 -0.333333 0.00025403 0 -0.333333 0.00030714 0.1 -0.333333 0.00030714
0 -0.333333 0.000361044 0.1 -0.333333 0.000361044 0 -0.333333 0.000415755 0.1
-0.333333 0.000415755 0 -0.333333 0.000471284 0.1 -0.333333 0.000471284 0 -0.333333
0.000527645 0.1 -0.333333 0.000527645 0 -0.333333 0.000584849 0.1 -0.333333 0.000584849
0 -0.333333 0.000642909 0.1 -0.333333 0.000642909 0 -0.333333 0.000701838 0.1
-0.333333 0.000701838 0 -0.333333 0.000761648 0.1 -0.333333 0.000761648 0 -0.333333
0.000822354 0.1 -0.333333 0.000822354 0 -0.333333 0.000883968 0.1 -0.333333 0.000883968
0 -0.333333 0.000946504 0.1 -0.333333 0.000946504 0 -0.333333 0.00100998 0.1
-0.333333 0.00100998 0 -0.333333 0.0010744 0.1 -0.333333 0.0010744 0 -0.333333
0.00113978 0.1 -0.333333 0.00113978 0 -0.333333 0.00120615 0.1 -0.333333 0.00120615
0 -0.333333 0.00127351 0.1 -0.333333 0.00127351 0 -0.333333 0.00134187 0.1
-0.333333 0.00134187 0 -0.333333 0.00141126 0.1 -0.333333 0.00141126 0 -0.333333
0.00148169 0.1 -0.333333 0.00148169 0 -0.333333 0.00155317 0.1 -0.333333 0.00155317
0 -0.333333 0.00162572 0.1 -0.333333 0.00162572 0 -0.333333 0.00169935 0.1
-0.333333 0.00169935 0 -0.333333 0.00177409 0.1 -0.333333 0.00177409 0 -0.333333
0.00184995 0.1 -0.333333 0.00184995 0 -0.333333 0.00192694 0.1 -0.333333 0.00192694
0 -0.333333 0.00200508 0.1 -0.333333 0.00200508 0 -0.333333 0.0020844 0.1
-0.333333 0.0020844 0 -0.333333 0.0021649 0.1 -0.333333 0.0021649 0 -0.333333
0.0022466 0.1 -0.333333 0.0022466 0 -0.333333 0.00232953 0.1 -0.333333 0.00232953
0 -0.333333 0.0024137 0.1 -0.333333 0.0024137 0 -0.333333 0.00249912 0.1
-0.333333 0.00249912 0 -0.333333 0.00258583 0.1 -0.333333 0.00258583 0 -0.333333
0.00267383 0.1 -0.333333 0.00267383 0 -0.333333 0.00276315 0.1 -0.333333 0.00276315
0 -0.333333 0.00285381 0.1 -0.333333 0.00285381 0 -0.333333 0.00294582 0.1
-0.333333 0.00294582 0 -0.333333 0.00303921 0.1 -0.333333 0.00303921 0 -0.333333
0.003134 0.1 -0.333333 0.003134 0 -0.333333 0.00323021 0.1 -0.333333 0.00323021
0 -0.333333 0.00332786 0.1 -0.333333 0.00332786 0 -0.333333 0.00342696 0.1
-0.333333 0.00342696 0 -0.333333 0.00352755 0.1 -0.333333 0.00352755 0 -0.333333
0.00362965 0.1 -0.333333 0.00362965 0 -0.333333 0.00373327 0.1 -0.333333 0.00373327
0 -0.333333 0.00383845 0.1 -0.333333 0.00383845 0 -0.333333 0.0039452 0.1
-0.333333 0.0039452 0 -0.333333 0.00405354 0.1 -0.333333 0.00405354 0 -0.333333
0.00416351 0.1 -0.333333 0.00416351 0 -0.333333 0.00427512 0.1 -0.333333 0.00427512
0 -0.333333 0.00438841 0.1 -0.333333 0.00438841 0 -0.333333 0.00450338 0.1
-0.333333 0.00450338 0 -0.333333 0.00462008 0.1 -0.333333 0.00462008 0 -0.333333
0.00473853 0.1 -0.333333 0.00473853 0 -0.333333 0.00485875 0.1 -0.333333 0.00485875
0 -0.333333 0.00498076 0.1 -0.333333 0.00498076 0 -0.333333 0.0051046 0.1
-0.333333 0.0051046 0 -0.333333 0.0052303 0.1 -0.333333 0.0052303 0 -0.333333
0.00535788 0.1 -0.333333 0.00535788 0 -0.333333 0.00548736 0.1 -0.333333 0.00548736
0 -0.333333 0.00561879 0.1 -0.333333 0.00561879 0 -0.333333 0.00575218 0.1
-0.333333 0.00575218 0 -0.333333 0.00588756 0.1 -0.333333 0.00588756 0 -0.333333
0.00602497 0.1 -0.333333 0.00602497 0 -0.333333 0.00616444 0.1 -0.333333 0.00616444
0 -0.333333 0.006306 0.1 -0.333333 0.006306 0 -0.333333 0.00644967 0.1
-0.333333 0.00644967 0 -0.333333 0.0065955 0.1 -0.333333 0.0065955 0 -0.333333
0.0067435 0.1 -0.333333 0.0067435 0 -0.333333 0.00689372 0.1 -0.333333 0.00689372
0 -0.333333 0.00704619 0.1 -0.333333 0.00704619 0 -0.333333 0.00720094 0.1
-0.333333 0.00720094 0 -0.333333 0.00735801 0.1 -0.333333 0.00735801 0 -0.333333
0.00751743 0.1 -0.333333 0.00751743 0 -0.333333 0.00767923 0.1 -0.333333 0.00767923
0 -0.333333 0.00784345 0.1 -0.333333 0.00784345 0 -0.333333 0.00801013 0.1
-0.333333 0.00801013 0 -0.333333 0.00817931 0.1 -0.333333 0.00817931 0 -0.333333
0.00835101 0.1 -0.333333 0.00835101 0 -0.333333 0.00852529 0.1 -0.333333 0.00852529
0 -0.333333 0.00870218 0.1 -0.333333 0.00870218 0 -0.333333 0.00888171 0.1
-0.333333 0.00888171 0 -0.333333 0.00906393 0.1 -0.333333 0.00906393 0 -0.333333
0.00924887 0.1 -0.333333 0.00924887 0 -0.333333 0.00943658 0.1 -0.333333 0.00943658
0 -0.333333 0.0096271 0.1 -0.333333 0.0096271 0 -0.333333 0.00982048 0.1
-0.333333 0.00982048 0 -0.333333 0.0100167 0.1 -0.333333 0.0100167 0 -0.333333
0.0102159 0.1 -0.333333 0.0102159 0 -0.333333 0.0104181 0.1 -0.333333 0.0104181
0 -0.333333 0.0106233 0.1 -0.333333 0.0106233 0 -0.333333 0.0108316 0.1
-0.333333 0.0108316 0 -0.333333 0.011043 0.1 -0.333333 0.011043 0 -0.333333
0.0112576 0.1 -0.333333 0.0112576 0 -0.333333 0.0114754 0.1 -0.333333 0.0114754
0 -0.333333 0.0116964 0.1 -0.333333 0.0116964 0 -0.333333 0.0119207 0.1
-0.333333 0.0119207 0 -0.333333 0.0121484 0.1 -0.333333 0.0121484 0 -0.333333
0.0123795 0.1 -0.333333 0.0123795 0 -0.333333 0.0126141 0.1 -0.333333 0.0126141
0 -0.333333 0.0128521 0.1 -0.333333 0.0128521 0 -0.333333 0.0130938 0.1
-0.333333 0.0130938 0 -0.333333 0.013339 0.1 -0.333333 0.013339 0 -0.333333
0.013588 0.1 -0.333333 0.013588 0 -0.333333 0.0138406 0.1 -0.333333 0.0138406
0 -0.333333 0.014097 0.1 -0.333333 0.014097 0 -0.333333 0.0143573 0.1
-0.333333 0.0143573 0 -0.333333 0.0146214 0.1 -0.333333 0.0146214 0 -0.333333
0.0148896 0.1 -0.333333 0.0148896 0 -0.333333 0.0151617 0.1 -0.333333 0.0151617
0 -0.333333 0.0154379 0.1 -0.333333 0.0154379 0 -0.333333 0.0157182 0.1
-0.333333 0.0157182 0 -0.333333 0.0160027 0.1 -0.333333 0.0160027 0 -0.333333
0.0162915 0.1 -0.333333 0.0162915 0 -0.333333 0.0165846 0.1 -0.333333 0.0165846
0 -0.333333 0.0168821 0.1 -0.333333 0.0168821 0 -0.333333 0.017184 0.1
-0.333333 0.017184 0 -0.333333 0.0174905 0.1 -0.333333 0.0174905 0 -0.333333
0.0178015 0.1 -0.333333 0.0178015 0 -0.333333 0.0181172 0.1 -0.333333 0.0181172
0 -0.333333 0.0184376 0.1 -0.333333 0.0184376 0 -0.333333 0.0187629 0.1
-0.333333 0.0187629 0 -0.333333 0.0190929 0.1 -0.333333 0.0190929 0 -0.333333
0.019428 0.1 -0.333333 0.019428 0 -0.333333 0.019768 0.1 -0.333333 0.019768
0 -0.333333 0.0201131 0.1 -0.333333 0.0201131 0 -0.333333 0.0204634 0.1
-0.333333 0.0204634 0 -0.333333 0.020819 0.1 -0.333333 0.020819 0 -0.333333
0.0211798 0.1 -0.333333 0.0211798 0 -0.333333 0.0215461 0.1 -0.333333 0.0215461
0 -0.333333 0.0219178 0.1 -0.333333 0.0219178 0 -0.333333 0.0222951 0.1
-0.333333 0.0222951 0 -0.333333 0.022678 0.1 -0.333333 0.022678 0 -0.333333
0.0230667 0.1 -0.333333 0.0230667 0 -0.333333 0.0234612 0.1 -0.333333 0.0234612
0 -0.333333 0.0238616 0.1 -0.333333 0.0238616 0 -0.333333 0.024268 0.1
-0.333333 0.024268 0 -0.333333 0.0246804 0.1 -0.333333 0.0246804 0 -0.333333
0.0250991 0.1 -0.333333 0.0250991 0 -0.333333 0.025524 0.1 -0.333333 0.025524
0 -0.333333 0.0259552 0.1 -0.333333 0.0259552 0 -0.333333 0.026393 0.1
-0.333333 0.026393 0 -0.333333 0.0268372 0.1 -0.333333 0.0268372 0 -0.333333
0.0272881 0.1 -0.333333 0.0272881 0 -0.333333 0.0277458 0.1 -0.333333 0.0277458
0 -0.333333 0.0282103 0.1 -0.333333 0.0282103 0 -0.333333 0.0286818 0.1
-0.333333 0.0286818 0 -0.333333 0.0291603 0.1 -0.333333 0.0291603 0 -0.333333
0.0296459 0.1 -0.333333 0.0296459 0 -0.333333 0.0301389 0.1 -0.333333 0.0301389
0 -0.333333 0.0306392 0.1 -0.333333 0.0306392 0 -0.333333 0.031147 0.1
-0.333333 0.031147 0 -0.333333 0.0316624 0.1 -0.333333 0.0316624 0 -0.333333
0.0321855 0.1 -0.333333 0.0321855 0 -0.333333 0.0327165 0.1 -0.333333 0.0327165
0 -0.333333 0.0332554 0.1 -0.333333 0.0332554 0 -0.333333 0.0338023 0.1
-0.333333 0.0338023 0 -0.333333 0.0343575 0.1 -0.333333 0.0343575 0 -0.333333
0.0349209 0.1 -0.333333 0.0349209 0 -0.333333 0.0354928 0.1 -0.333333 0.0354928
0 -0.333333 0.0360733 0.1 -0.333333 0.0360733 0 -0.333333 0.0366624 0.1
-0.333333 0.0366624 0 -0.333333 0.0372603 0.1 -0.333333 0.0372603 0 -0.333333
0.0378672 0.1 -0.333333 0.0378672 0 -0.333333 0.0384832 0.1 -0.333333 0.0384832
0 -0.333333 0.0391084 0.1 -0.333333 0.0391084 0 -0.333333 0.0397429 0.1
-0.333333 0.0397429 0 -0.333333 0.040387 0.1 -0.333333 0.040387 0 -0.333333
0.0410406 0.1 -0.333333 0.0410406 0 -0.333333 0.0417041 0.1 -0.333333 0.0417041
0 -0.333333 0.0423775 0.1 -0.333333 0.0423775 0 -0.333333 0.0430609 0.1
-0.333333 0.0430609 0 -0.333333 0.0437546 0.1 -0.333333 0.0437546 0 -0.333333
0.0444587 0.1 -0.333333 0.0444587 0 -0.333333 0.0451733 0.1 -0.333333 0.0451733
0 -0.333333 0.0458986 0.1 -0.333333 0.0458986 0 -0.333333 0.0466348 0.1
-0.333333 0.0466348 0 -0.333333 0.0473819 0.1 -0.333333 0.0473819 0 -0.333333
0.0481403 0.1 -0.333333 0.0481403 0 -0.333333 0.04891 0.1 -0.333333 0.04891
0 -0.333333 0.0496912 0.1 -0.333333 0.0496912 0 -0.333333 0.0504841 0.1
-0.333333 0.0504841 0 -0.333333 0.0512889 0.1 -0.333333 0.0512889 0 -0.333333
0.0521057 0.1 -0.333333 0.0521057 0 -0.333333 0.0529348 0.1 -0.333333 0.0529348
0 -0.333333 0.0537762 0.1 -0.333333 0.0537762 0 -0.333333 0.0546303 0.1
-0.333333 0.0546303 0 -0.333333 0.0554971 0.1 -0.333333 0.0554971 0 -0.333333
0.0563769 0.1 -0.333333 0.0563769 0 -0.333333 0.0572698 0.1 -0.333333 0.0572698
0 -0.333333 0.0581761 0.1 -0.333333 0.0581761 0 -0.333333 0.059096 0.1
-0.333333 0.059096 0 -0.333333 0.0600297 0.1 -0.333333 0.0600297 0 -0.333333
0.0609773 0.1 -0.333333 0.0609773 0 -0.333333 0.0619391 0.1 -0.333333 0.0619391
0 -0.333333 0.0629153 0.1 -0.333333 0.0629153 0 -0.333333 0.0639061 0.1
-0.333333 0.0639061 0 -0.333333 0.0649117 0.1 -0.333333 0.0649117 0 -0.333333
0.0659324 0.1 -0.333333 0.0659324 0 -0.333333 0.0669684 0.1 -0.333333 0.0669684
0 -0.333333 0.0680198 0.1 -0.333333 0.0680198 0 -0.333333 0.069087 0.1
-0.333333 0.069087 0 -0.333333 0.0701701 0.1 -0.333333 0.0701701 0 -0.333333
0.0712695 0.1 -0.333333 0.0712695 0 -0.333333 0.0723853 0.1 -0.333333 0.0723853
[...]
CELL_DATA 385
FIELD attributes 12
patchID 1 385 float
0 0 0 0 0 0 0 0 0 0 0
0 0 0 0 0 0 0 0 0 0
0 0 0 0 0 0 0 0 0 0
0 0 0 0 0 0 0 0 0 0
0 0 0 0 0 0 0 0 0 0
0 0 0 0 0 0 0 0 0 0
0 0 0 0 0 0 0 0 0 0
0 0 0 0 0 0 0 0 0 0
0 0 0 0 0 0 0 0 0 0
0 0 0 0 0 0 0 0 0 0
0 0 0 0 0 0 0 0 0 0
0 0 0 0 0 0 0 0 0 0
0 0 0 0 0 0 0 0 0 0
0 0 0 0 0 0 0 0 0 0
0 0 0 0 0 0 0 0 0 0
0 0 0 0 0 0 0 0 0 0
0 0 0 0 0 0 0 0 0 0
0 0 0 0 0 0 0 0 0 0
0 0 0 0 0 0 0 0 0 0
0 0 0 0 0 0 0 0 0 0
0 0 0 0 0 0 0 0 0 0
0 0 0 0 0 0 0 0 0 0
0 0 0 0 0 0 0 0 0 0
0 0 0 0 0 0 0 0 0 0
0 0 0 0 0 0 0 0 0 0
0 0 0 0 0 0 0 0 0 0
0 0 0 0 0 0 0 0 0 0
0 0 0 0 0 0 0 0 0 0
0 0 0 0 0 0 0 0 0 0
0 0 0 0 0 0 0 0 0 0
0 0 0 0 0 0 0 0 0 0
0 0 0 0 0 0 0 0 0 0
0 0 0 0 0 0 0 0 0 0
0 0 0 0 0 0 0 0 0 0
0 0 0 0 0 0 0 0 0 0
0 0 0 0 0 0 0 0 0 0
0 0 0 0 0 0 0 0 0 0
0 0 0 0 0 0 0 0 0 0
0 0 0 0 
Cy 1 385 float
2.4654e-05 7.4331e-05 0.000124751 0.000175926 0.000227867 0.000280585 0.000334092 0.000388399 0.000443519 0.000499465 0.000556247
0.000613879 0.000672373 0.000731743 0.000792001 0.000853161 0.000915236 0.00097824 0.00104219 0.00110709 0.00117297
0.00123983 0.00130769 0.00137656 0.00144647 0.00151743 0.00158944 0.00166254 0.00173672 0.00181202 0.00188844
0.00196601 0.00204474 0.00212465 0.00220575 0.00228806 0.00237161 0.00245641 0.00254248 0.00262983 0.00271849
0.00280848 0.00289982 0.00299252 0.00308661 0.00318211 0.00327903 0.00337741 0.00347726 0.0035786 0.00368146
0.00378586 0.00389182 0.00399937 0.00410853 0.00421932 0.00433176 0.00444589 0.00456173 0.00467931 0.00479864
0.00491975 0.00504268 0.00516745 0.00529409 0.00542262 0.00555307 0.00568548 0.00581987 0.00595627 0.00609471
0.00623522 0.00637784 0.00652258 0.0066695 0.00681861 0.00696996 0.00712357 0.00727948 0.00743772 0.00759833
0.00776134 0.00792679 0.00809472 0.00826516 0.00843815 0.00861373 0.00879194 0.00897282 0.0091564 0.00934273
0.00953184 0.00972379 0.00991861 0.0101163 0.010317 0.0105207 0.0107275 0.0109373 0.0111503 0.0113665
0.0115859 0.0118085 0.0120346 0.012264 0.0124968 0.0127331 0.012973 0.0132164 0.0134635 0.0137143
0.0139688 0.0142272 0.0144894 0.0147555 0.0150256 0.0152998 0.015578 0.0158605 0.0161471 0.016438
0.0167333 0.0170331 0.0173373 0.017646 0.0179594 0.0182774 0.0186003 0.0189279 0.0192605 0.019598
0.0199406 0.0202883 0.0206412 0.0209994 0.0213629 0.0217319 0.0221064 0.0224866 0.0228724 0.023264
0.0236614 0.0240648 0.0244742 0.0248898 0.0253115 0.0257396 0.0261741 0.0266151 0.0270627 0.027517
0.027978 0.028446 0.028921 0.0294031 0.0298924 0.0303891 0.0308931 0.0314047 0.031924 0.032451
0.0329859 0.0335289 0.0340799 0.0346392 0.0352069 0.035783 0.0363678 0.0369614 0.0375638 0.0381752
0.0387958 0.0394256 0.0400649 0.0407138 0.0413724 0.0420408 0.0427192 0.0434078 0.0441067 0.044816
0.045536 0.0462667 0.0470084 0.0477611 0.0485251 0.0493006 0.0500877 0.0508865 0.0516973 0.0525202
0.0533555 0.0542032 0.0550637 0.055937 0.0568233 0.057723 0.0586361 0.0595629 0.0605035 0.0614582
0.0624272 0.0634107 0.0644089 0.0654221 0.0664504 0.0674941 0.0685534 0.0696286 0.0707198 0.0718274
0.0729516 0.0740926 0.0752506 0.076426 0.077619 0.0788299 0.0800588 0.0813062 0.0825722 0.0838571
0.0851613 0.086485 0.0878285 0.0891921 0.0905761 0.0919809 0.0934066 0.0948537 0.0963225 0.0978132
0.0993262 0.100862 0.102421 0.104003 0.105608 0.107238 0.108892 0.110571 0.112275 0.114004
0.115759 0.117541 0.119349 0.121185 0.123047 0.124938 0.126857 0.128805 0.130781 0.132788
0.134824 0.136891 0.138989 0.141118 0.143279 0.145473 0.147699 0.149958 0.152252 0.154579
0.156942 0.15934 0.161773 0.164244 0.166751 0.169295 0.171878 0.174499 0.17716 0.17986
0.182601 0.185383 0.188207 0.191072 0.193981 0.196933 0.199929 0.20297 0.206057 0.20919
0.21237 0.215597 0.218873 0.222197 0.225572 0.228996 0.232473 0.236001 0.239582 0.243216
0.246905 0.250649 0.254449 0.258306 0.262221 0.266194 0.270227 0.27432 0.278475 0.282691
0.286971 0.291314 0.295723 0.300198 0.304739 0.309349 0.314027 0.318776 0.323596 0.328487
0.333452 0.338492 0.343606 0.348797 0.354066 0.359414 0.364842 0.370351 0.375942 0.381617
0.387377 0.393223 0.399157 0.40518 0.411292 0.417496 0.423793 0.430184 0.436671 0.443255
0.449937 0.45672 0.463604 0.47059 0.477682 0.484879 0.492185 0.499599 0.507125 0.514763
0.522515 0.530384 0.53837 0.546476 0.554703 0.563053 0.571528 0.58013 0.588861 0.597722
0.606716 0.615844 0.625109 0.634513 0.644058 0.653745 0.663577 0.673557 0.683685 0.693966
0.7044 0.71499 0.725739 0.736648 0.747721 0.75896 0.770366 0.781944 0.793695 0.805621
0.817726 0.830012 0.842482 0.855139 0.867985 0.881023 0.894256 0.907688 0.92132 0.935157
0.9492 0.963454 0.97792 0.992604 
nut 1 385 float
1.24496e-07 1.24496e-07 1.24496e-07 1.24496e-07 1.24496e-07 1.24496e-07 1.24496e-07 1.24496e-07 1.24496e-07 1.24496e-07 1.24496e-07
1.24496e-07 1.24496e-07 1.24496e-07 1.24496e-07 1.24496e-07 1.24496e-07 1.24496e-07 1.24496e-07 1.24496e-07 1.24496e-07
1.24496e-07 1.24496e-07 1.24496e-07 1.24496e-07 1.24496e-07 1.24496e-07 1.24496e-07 1.24496e-07 1.24496e-07 1.24496e-07
1.24496e-07 1.24496e-07 1.24496e-07 1.24496e-07 1.24496e-07 1.24496e-07 1.24496e-07 1.24496e-07 1.24496e-07 1.24496e-07
1.24496e-07 1.24496e-07 1.24496e-07 1.24496e-07 1.24496e-07 1.24496e-07 1.24496e-07 1.24496e-07 1.24496e-07 1.24496e-07
1.24496e-07 1.24496e-07 1.24496e-07 1.24496e-07 1.24496e-07 1.24496e-07 1.24496e-07 1.24496e-07 1.24496e-07 1.24496e-07
1.24496e-07 1.24496e-07 1.24496e-07 1.24496e-07 1.24496e-07 1.24496e-07 1.24496e-07 1.24496e-07 1.24496e-07 1.24496e-07
1.24496e-07 1.24496e-07 1.24496e-07 1.24496e-07 1.24496e-07 1.24496e-07 1.24496e-07 1.24496e-07 1.24496e-07 1.24496e-07
1.24496e-07 1.24496e-07 1.24496e-07 1.24496e-07 1.24496e-07 1.24496e-07 1.24496e-07 1.24496e-07 1.24496e-07 1.24496e-07
1.24496e-07 1.24496e-07 1.24496e-07 1.24496e-07 1.24496e-07 1.24496e-07 1.24496e-07 1.24496e-07 1.24496e-07 1.24496e-07
1.24496e-07 1.24496e-07 1.24496e-07 1.24496e-07 1.24496e-07 1.24496e-07 1.24496e-07 1.24496e-07 1.24496e-07 1.24496e-07
1.24496e-07 1.24496e-07 1.24496e-07 1.24496e-07 1.24496e-07 1.24496e-07 1.24496e-07 1.24496e-07 1.24496e-07 1.24496e-07
1.24496e-07 1.24496e-07 1.24496e-07 1.24496e-07 1.24496e-07 1.24496e-07 1.24496e-07 1.24496e-07 1.24496e-07 1.24496e-07
1.24496e-07 1.24496e-07 1.24496e-07 1.24496e-07 1.24496e-07 1.24496e-07 1.24496e-07 1.24496e-07 1.24496e-07 1.24496e-07
1.24496e-07 1.24496e-07 1.24496e-07 1.24496e-07 1.24496e-07 1.24496e-07 1.24496e-07 1.24496e-07 1.24496e-07 1.24496e-07
1.24496e-07 1.24496e-07 1.24496e-07 1.24496e-07 1.24496e-07 1.24496e-07 1.24496e-07 1.24496e-07 1.24496e-07 1.24496e-07
1.24496e-07 1.24496e-07 1.24496e-07 1.24496e-07 1.24496e-07 1.24496e-07 1.24496e-07 1.24496e-07 1.24496e-07 1.24496e-07
1.24496e-07 1.24496e-07 1.24496e-07 1.24496e-07 1.24496e-07 1.24496e-07 1.24496e-07 1.24496e-07 1.24496e-07 1.24496e-07
1.24496e-07 1.24496e-07 1.24496e-07 1.24496e-07 1.24496e-07 1.24496e-07 1.24496e-07 1.24496e-07 1.24496e-07 1.24496e-07
1.24496e-07 1.24496e-07 1.24496e-07 1.24496e-07 1.24496e-07 1.24496e-07 1.24496e-07 1.24496e-07 1.24496e-07 1.24496e-07
1.24496e-07 1.24496e-07 1.24496e-07 1.24496e-07 1.24496e-07 1.24496e-07 1.24496e-07 1.24496e-07 1.24496e-07 1.24496e-07
1.24496e-07 1.24496e-07 1.24496e-07 1.24496e-07 1.24496e-07 1.24496e-07 1.24496e-07 1.24496e-07 1.24496e-07 1.24496e-07
1.24496e-07 1.24496e-07 1.24496e-07 1.24496e-07 1.24496e-07 1.24496e-07 1.24496e-07 1.24496e-07 1.24496e-07 1.24496e-07
1.24496e-07 1.24496e-07 1.24496e-07 1.24496e-07 1.24496e-07 1.24496e-07 1.24496e-07 1.24496e-07 1.24496e-07 1.24496e-07
1.24496e-07 1.24496e-07 1.24496e-07 1.24496e-07 1.24496e-07 1.24496e-07 1.24496e-07 1.24496e-07 1.24496e-07 1.24496e-07
1.24496e-07 1.24496e-07 1.24496e-07 1.24496e-07 1.24496e-07 1.24496e-07 1.24496e-07 1.24496e-07 1.24496e-07 1.24496e-07
1.24496e-07 1.24496e-07 1.24496e-07 1.24496e-07 1.24496e-07 1.24496e-07 1.24496e-07 1.24496e-07 1.24496e-07 1.24496e-07
1.24496e-07 1.24496e-07 1.24496e-07 1.24496e-07 1.24496e-07 1.24496e-07 1.24496e-07 1.24496e-07 1.24496e-07 1.24496e-07
1.24496e-07 1.24496e-07 1.24496e-07 1.24496e-07 1.24496e-07 1.24496e-07 1.24496e-07 1.24496e-07 1.24496e-07 1.24496e-07
1.24496e-07 1.24496e-07 1.24496e-07 1.24496e-07 1.24496e-07 1.24496e-07 1.24496e-07 1.24496e-07 1.24496e-07 1.24496e-07
1.24496e-07 1.24496e-07 1.24496e-07 1.24496e-07 1.24496e-07 1.24496e-07 1.24496e-07 1.24496e-07 1.24496e-07 1.24496e-07
1.24496e-07 1.24496e-07 1.24496e-07 1.24496e-07 1.24496e-07 1.24496e-07 1.24496e-07 1.24496e-07 1.24496e-07 1.24496e-07
1.24496e-07 1.24496e-07 1.24496e-07 1.24496e-07 1.24496e-07 1.24496e-07 1.24496e-07 1.24496e-07 1.24496e-07 1.24496e-07
1.24496e-07 1.24496e-07 1.24496e-07 1.24496e-07 1.24496e-07 1.24496e-07 1.24496e-07 1.24496e-07 1.24496e-07 1.24496e-07
1.24496e-07 1.24496e-07 1.24496e-07 1.24496e-07 1.24496e-07 1.24496e-07 1.24496e-07 1.24496e-07 1.24496e-07 1.24496e-07
1.24496e-07 1.24496e-07 1.24496e-07 1.24496e-07 1.24496e-07 1.24496e-07 1.24496e-07 1.24496e-07 1.24496e-07 1.24496e-07
1.24496e-07 1.24496e-07 1.24496e-07 1.24496e-07 1.24496e-07 1.24496e-07 1.24496e-07 1.24496e-07 1.24496e-07 1.24496e-07
1.24496e-07 1.24496e-07 1.24496e-07 1.24496e-07 1.24496e-07 1.24496e-07 1.24496e-07 1.24496e-07 1.24496e-07 1.24496e-07
1.24496e-07 1.24496e-07 1.24496e-07 1.24496e-07 
Cz 1 385 float
0.05 0.05 0.05 0.05 0.05 0.05 0.05 0.05 0.05 0.05 0.05
0.05 0.05 0.05 0.05 0.05 0.05 0.05 0.05 0.05 0.05
0.05 0.05 0.05 0.05 0.05 0.05 0.05 0.05 0.05 0.05
0.05 0.05 0.05 0.05 0.05 0.05 0.05 0.05 0.05 0.05
0.05 0.05 0.05 0.05 0.05 0.05 0.05 0.05 0.05 0.05
0.05 0.05 0.05 0.05 0.05 0.05 0.05 0.05 0.05 0.05
0.05 0.05 0.05 0.05 0.05 0.05 0.05 0.05 0.05 0.05
0.05 0.05 0.05 0.05 0.05 0.05 0.05 0.05 0.05 0.05
0.05 0.05 0.05 0.05 0.05 0.05 0.05 0.05 0.05 0.05
0.05 0.05 0.05 0.05 0.05 0.05 0.05 0.05 0.05 0.05
0.05 0.05 0.05 0.05 0.05 0.05 0.05 0.05 0.05 0.05
0.05 0.05 0.05 0.05 0.05 0.05 0.05 0.05 0.05 0.05
0.05 0.05 0.05 0.05 0.05 0.05 0.05 0.05 0.05 0.05
0.05 0.05 0.05 0.05 0.05 0.05 0.05 0.05 0.05 0.05
0.05 0.05 0.05 0.05 0.05 0.05 0.05 0.05 0.05 0.05
0.05 0.05 0.05 0.05 0.05 0.05 0.05 0.05 0.05 0.05
0.05 0.05 0.05 0.05 0.05 0.05 0.05 0.05 0.05 0.05
0.05 0.05 0.05 0.05 0.05 0.05 0.05 0.05 0.05 0.05
0.05 0.05 0.05 0.05 0.05 0.05 0.05 0.05 0.05 0.05
0.05 0.05 0.05 0.05 0.05 0.05 0.05 0.05 0.05 0.05
0.05 0.05 0.05 0.05 0.05 0.05 0.05 0.05 0.05 0.05
0.05 0.05 0.05 0.05 0.05 0.05 0.05 0.05 0.05 0.05
0.05 0.05 0.05 0.05 0.05 0.05 0.05 0.05 0.05 0.05
0.05 0.05 0.05 0.05 0.05 0.05 0.05 0.05 0.05 0.05
0.05 0.05 0.05 0.05 0.05 0.05 0.05 0.05 0.05 0.05
0.05 0.05 0.05 0.05 0.05 0.05 0.05 0.05 0.05 0.05
0.05 0.05 0.05 0.05 0.05 0.05 0.05 0.05 0.05 0.05
0.05 0.05 0.05 0.05 0.05 0.05 0.05 0.05 0.05 0.05
0.05 0.05 0.05 0.05 0.05 0.05 0.05 0.05 0.05 0.05
0.05 0.05 0.05 0.05 0.05 0.05 0.05 0.05 0.05 0.05
0.05 0.05 0.05 0.05 0.05 0.05 0.05 0.05 0.05 0.05
0.05 0.05 0.05 0.05 0.05 0.05 0.05 0.05 0.05 0.05
0.05 0.05 0.05 0.05 0.05 0.05 0.05 0.05 0.05 0.05
0.05 0.05 0.05 0.05 0.05 0.05 0.05 0.05 0.05 0.05
0.05 0.05 0.05 0.05 0.05 0.05 0.05 0.05 0.05 0.05
0.05 0.05 0.05 0.05 0.05 0.05 0.05 0.05 0.05 0.05
0.05 0.05 0.05 0.05 0.05 0.05 0.05 0.05 0.05 0.05
0.05 0.05 0.05 0.05 0.05 0.05 0.05 0.05 0.05 0.05
0.05 0.05 0.05 0.05 
p 1 385 float
21.2727 21.2727 21.2727 21.2727 21.2727 21.2727 21.2727 21.2727 21.2727 21.2727 21.2727
21.2727 21.2727 21.2727 21.2727 21.2727 21.2727 21.2727 21.2727 21.2727 21.2727
21.2727 21.2727 21.2727 21.2727 21.2727 21.2726 21.2726 21.2726 21.2726 21.2726
21.2726 21.2726 21.2726 21.2726 21.2725 21.2725 21.2725 21.2725 21.2725 21.2725
21.2725 21.2724 21.2724 21.2724 21.2724 21.2723 21.2723 21.2723 21.2723 21.2722
21.2722 21.2722 21.2722 21.2721 21.2721 21.2721 21.272 21.272 21.2719 21.2719
21.2719 21.2718 21.2718 21.2717 21.2717 21.2716 21.2716 21.2715 21.2715 21.2714
21.2713 21.2713 21.2712 21.2711 21.2711 21.271 21.2709 21.2708 21.2707 21.2706
21.2706 21.2705 21.2704 21.2703 21.2702 21.2701 21.2699 21.2698 21.2697 21.2696
21.2695 21.2693 21.2692 21.269 21.2689 21.2687 21.2686 21.2684 21.2682 21.2681
21.2679 21.2677 21.2675 21.2673 21.2671 21.2669 21.2667 21.2664 21.2662 21.266
21.2657 21.2654 21.2652 21.2649 21.2646 21.2643 21.264 21.2637 21.2633 21.263
21.2627 21.2623 21.2619 21.2615 21.2611 21.2607 21.2603 21.2598 21.2594 21.2589
21.2584 21.2579 21.2574 21.2569 21.2563 21.2558 21.2552 21.2546 21.2539 21.2533
21.2526 21.2519 21.2512 21.2505 21.2497 21.249 21.2482 21.2473 21.2465 21.2456
21.2447 21.2437 21.2428 21.2418 21.2407 21.2397 21.2386 21.2374 21.2363 21.235
21.2338 21.2325 21.2312 21.2298 21.2284 21.227 21.2255 21.2239 21.2223 21.2207
21.219 21.2173 21.2155 21.2136 21.2117 21.2098 21.2077 21.2056 21.2035 21.2013
21.199 21.1966 21.1942 21.1917 21.1891 21.1865 21.1837 21.1809 21.178 21.175
21.1719 21.1687 21.1655 21.1621 21.1586 21.1551 21.1514 21.1476 21.1437 21.1397
21.1355 21.1313 21.1269 21.1224 21.1177 21.1129 21.108 21.103 21.0977 21.0924
21.0869 21.0812 21.0753 21.0693 21.0631 21.0568 21.0502 21.0435 21.0365 21.0294
21.0221 21.0146 21.0068 20.9988 20.9907 20.9822 20.9736 20.9647 20.9556 20.9462
20.9365 20.9266 20.9164 20.906 20.8952 20.8842 20.8729 20.8612 20.8493 20.837
20.8245 20.8116 20.7983 20.7847 20.7708 20.7565 20.7418 20.7268 20.7113 20.6955
20.6793 20.6627 20.6457 20.6282 20.6103 20.592 20.5733 20.5541 20.5345 20.5143
20.4938 20.4727 20.4511 20.4291 20.4066 20.3835 20.36 20.3359 20.3113 20.2861
20.2605 20.2342 20.2075 20.1801 20.1523 20.1238 20.0948 20.0652 20.035 20.0042
19.9729 19.941 19.9084 19.8753 19.8416 19.8073 19.7723 19.7368 19.7007 19.664
19.6266 19.5887 19.5502 19.511 19.4713 19.431 19.3901 19.3486 19.3066 19.2639
19.2207 19.177 19.1327 19.0878 19.0424 18.9965 18.95 18.9031 18.8556 18.8077
18.7593 18.7104 18.6611 18.6113 18.5611 18.5105 18.4595 18.4081 18.3564 18.3044
18.252 18.1993 18.1463 18.0931 18.0396 17.9859 17.932 17.878 17.8237 17.7694
17.7149 17.6604 17.6057 17.5511 17.4965 17.4419 17.3873 17.3328 17.2785 17.2242
17.1702 17.1163 17.0627 17.0093 16.9563 16.9035 16.8512 16.7992 16.7477 16.6967
16.6462 16.5962 16.5468 16.4981 16.45 16.4027 16.3561 16.3103 16.2654 16.2214
16.1783 16.1363 16.0953 16.0554 16.0167 15.9792 15.9429 15.9081 15.8746 15.8426
15.8121 15.7832 15.7561 15.7307 15.7071 15.6854 15.6658 15.6482 15.6329 15.6198
15.6091 15.6009 15.5953 15.5925 
k 1 385 float
0.00108 0.00108 0.00108 0.00108 0.00108 0.00108 0.00108 0.00108 0.00108 0.00108 0.00108
0.00108 0.00108 0.00108 0.00108 0.00108 0.00108 0.00108 0.00108 0.00108 0.00108
0.00108 0.00108 0.00108 0.00108 0.00108 0.00108 0.00108 0.00108 0.00108 0.00108
0.00108 0.00108 0.00108 0.00108 0.00108 0.00108 0.00108 0.00108 0.00108 0.00108
0.00108 0.00108 0.00108 0.00108 0.00108 0.00108 0.00108 0.00108 0.00108 0.00108
0.00108 0.00108 0.00108 0.00108 0.00108 0.00108 0.00108 0.00108 0.00108 0.00108
0.00108 0.00108 0.00108 0.00108 0.00108 0.00108 0.00108 0.00108 0.00108 0.00108
0.00108 0.00108 0.00108 0.00108 0.00108 0.00108 0.00108 0.00108 0.00108 0.00108
0.00108 0.00108 0.00108 0.00108 0.00108 0.00108 0.00108 0.00108 0.00108 0.00108
0.00108 0.00108 0.00108 0.00108 0.00108 0.00108 0.00108 0.00108 0.00108 0.00108
0.00108 0.00108 0.00108 0.00108 0.00108 0.00108 0.00108 0.00108 0.00108 0.00108
0.00108 0.00108 0.00108 0.00108 0.00108 0.00108 0.00108 0.00108 0.00108 0.00108
0.00108 0.00108 0.00108 0.00108 0.00108 0.00108 0.00108 0.00108 0.00108 0.00108
0.00108 0.00108 0.00108 0.00108 0.00108 0.00108 0.00108 0.00108 0.00108 0.00108
0.00108 0.00108 0.00108 0.00108 0.00108 0.00108 0.00108 0.00108 0.00108 0.00108
0.00108 0.00108 0.00108 0.00108 0.00108 0.00108 0.00108 0.00108 0.00108 0.00108
0.00108 0.00108 0.00108 0.00108 0.00108 0.00108 0.00108 0.00108 0.00108 0.00108
0.00108 0.00108 0.00108 0.00108 0.00108 0.00108 0.00108 0.00108 0.00108 0.00108
0.00108 0.00108 0.00108 0.00108 0.00108 0.00108 0.00108 0.00108 0.00108 0.00108
0.00108 0.00108 0.00108 0.00108 0.00108 0.00108 0.00108 0.00108 0.00108 0.00108
0.00108 0.00108 0.00108 0.00108 0.00108 0.00108 0.00108 0.00108 0.00108 0.00108
0.00108 0.00108 0.00108 0.00108 0.00108 0.00108 0.00108 0.00108 0.00108 0.00108
0.00108 0.00108 0.00108 0.00108 0.00108 0.00108 0.00108 0.00108 0.00108 0.00108
0.00108 0.00108 0.00108 0.00108 0.00108 0.00108 0.00108 0.00108 0.00108 0.00108
0.00108 0.00108 0.00108 0.00108 0.00108 0.00108 0.00108 0.00108 0.00108 0.00108
0.00108 0.00108 0.00108 0.00108 0.00108 0.00108 0.00108 0.00108 0.00108 0.00108
0.00108 0.00108 0.00108 0.00108 0.00108 0.00108 0.00108 0.00108 0.00108 0.00108
0.00108 0.00108 0.00108 0.00108 0.00108 0.00108 0.00108 0.00108 0.00108 0.00108
0.00108 0.00108 0.00108 0.00108 0.00108 0.00108 0.00108 0.00108 0.00108 0.00108
0.00108 0.00108 0.00108 0.00108 0.00108 0.00108 0.00108 0.00108 0.00108 0.00108
0.00108 0.00108 0.00108 0.00108 0.00108 0.00108 0.00108 0.00108 0.00108 0.00108
0.00108 0.00108 0.00108 0.00108 0.00108 0.00108 0.00108 0.00108 0.00108 0.00108
0.00108 0.00108 0.00108 0.00108 0.00108 0.00108 0.00108 0.00108 0.00108 0.00108
0.00108 0.00108 0.00108 0.00108 0.00108 0.00108 0.00108 0.00108 0.00108 0.00108
0.00108 0.00108 0.00108 0.00108 0.00108 0.00108 0.00108 0.00108 0.00108 0.00108
0.00108 0.00108 0.00108 0.00108 0.00108 0.00108 0.00108 0.00108 0.00108 0.00108
0.00108 0.00108 0.00108 0.00108 0.00108 0.00108 0.00108 0.00108 0.00108 0.00108
0.00108 0.00108 0.00108 0.00108 0.00108 0.00108 0.00108 0.00108 0.00108 0.00108
0.00108 0.00108 0.00108 0.00108 
omega 1 385 float
8675 8675 8675 8675 8675 8675 8675 8675 8675 8675 8675
8675 8675 8675 8675 8675 8675 8675 8675 8675 8675
8675 8675 8675 8675 8675 8675 8675 8675 8675 8675
8675 8675 8675 8675 8675 8675 8675 8675 8675 8675
8675 8675 8675 8675 8675 8675 8675 8675 8675 8675
8675 8675 8675 8675 8675 8675 8675 8675 8675 8675
8675 8675 8675 8675 8675 8675 8675 8675 8675 8675
8675 8675 8675 8675 8675 8675 8675 8675 8675 8675
8675 8675 8675 8675 8675 8675 8675 8675 8675 8675
8675 8675 8675 8675 8675 8675 8675 8675 8675 8675
8675 8675 8675 8675 8675 8675 8675 8675 8675 8675
8675 8675 8675 8675 8675 8675 8675 8675 8675 8675
8675 8675 8675 8675 8675 8675 8675 8675 8675 8675
8675 8675 8675 8675 8675 8675 8675 8675 8675 8675
8675 8675 8675 8675 8675 8675 8675 8675 8675 8675
8675 8675 8675 8675 8675 8675 8675 8675 8675 8675
8675 8675 8675 8675 8675 8675 8675 8675 8675 8675
8675 8675 8675 8675 8675 8675 8675 8675 8675 8675
8675 8675 8675 8675 8675 8675 8675 8675 8675 8675
8675 8675 8675 8675 8675 8675 8675 8675 8675 8675
8675 8675 8675 8675 8675 8675 8675 8675 8675 8675
8675 8675 8675 8675 8675 8675 8675 8675 8675 8675
8675 8675 8675 8675 8675 8675 8675 8675 8675 8675
8675 8675 8675 8675 8675 8675 8675 8675 8675 8675
8675 8675 8675 8675 8675 8675 8675 8675 8675 8675
8675 8675 8675 8675 8675 8675 8675 8675 8675 8675
8675 8675 8675 8675 8675 8675 8675 8675 8675 8675
8675 8675 8675 8675 8675 8675 8675 8675 8675 8675
8675 8675 8675 8675 8675 8675 8675 8675 8675 8675
8675 8675 8675 8675 8675 8675 8675 8675 8675 8675
8675 8675 8675 8675 8675 8675 8675 8675 8675 8675
8675 8675 8675 8675 8675 8675 8675 8675 8675 8675
8675 8675 8675 8675 8675 8675 8675 8675 8675 8675
8675 8675 8675 8675 8675 8675 8675 8675 8675 8675
8675 8675 8675 8675 8675 8675 8675 8675 8675 8675
8675 8675 8675 8675 8675 8675 8675 8675 8675 8675
8675 8675 8675 8675 8675 8675 8675 8675 8675 8675
8675 8675 8675 8675 8675 8675 8675 8675 8675 8675
8675 8675 8675 8675 
Cx 1 385 float
-0.333333 -0.333333 -0.333333 -0.333333 -0.333333 -0.333333 -0.333333 -0.333333 -0.333333 -0.333333 -0.333333
-0.333333 -0.333333 -0.333333 -0.333333 -0.333333 -0.333333 -0.333333 -0.333333 -0.333333 -0.333333
-0.333333 -0.333333 -0.333333 -0.333333 -0.333333 -0.333333 -0.333333 -0.333333 -0.333333 -0.333333
-0.333333 -0.333333 -0.333333 -0.333333 -0.333333 -0.333333 -0.333333 -0.333333 -0.333333 -0.333333
-0.333333 -0.333333 -0.333333 -0.333333 -0.333333 -0.333333 -0.333333 -0.333333 -0.333333 -0.333333
-0.333333 -0.333333 -0.333333 -0.333333 -0.333333 -0.333333 -0.333333 -0.333333 -0.333333 -0.333333