# vtk DataFile Version 2.0
inlet
ASCII
DATASET POLYDATA
POINTS 772 float
-0.333333 0 0 -0.333333 0 0.1 -0.333333 4.9308e-05 0.1 -0.333333 4.9308e-05
0 -0.333333 9.93539e-05 0.1 -0.333333 9.93539e-05 0 -0.333333 0.000150149 0.1
-0.333333 0.000150149 0 -0.333333 0.000201704 0.1 -0.333333 0.000201704 0 -0.333333
0.00025403 0.1 -0.333333 0.00025403 0 -0.333333 0.00030714 0.1 -0.333333 0.00030714
0 -0.333333 0.000361044 0.1 -0.333333 0.000361044 0 -0.333333 0.000415755 0.1
-0.333333 0.000415755 0 -0.333333 0.000471284 0.1 -0.333333 0.000471284 0 -0.333333
0.000527645 0.1 -0.333333 0.000527645 0 -0.333333 0.000584849 0.1 -0.333333 0.000584849
0 -0.333333 0.000642909 0.1 -0.333333 0.000642909 0 -0.333333 0.000701838 0.1
-0.333333 0.000701838 0 -0.333333 0.000761648 0.1 -0.333333 0.000761648 0 -0.333333
0.000822354 0.1 -0.333333 0.000822354 0 -0.333333 0.000883968 0.1 -0.333333 0.000883968
0 -0.333333 0.000946504 0.1 -0.333333 0.000946504 0 -0.333333 0.00100998 0.1
-0.333333 0.00100998 0 -0.333333 0.0010744 0.1 -0.333333 0.0010744 0 -0.333333
0.00113978 0.1 -0.333333 0.00113978 0 -0.333333 0.00120615 0.1 -0.333333 0.00120615
0 -0.333333 0.00127351 0.1 -0.333333 0.00127351 0 -0.333333 0.00134187 0.1
-0.333333 0.00134187 0 -0.333333 0.00141126 0.1 -0.333333 0.00141126 0 -0.333333
0.00148169 0.1 -0.333333 0.00148169 0 -0.333333 0.00155317 0.1 -0.333333 0.00155317
0 -0.333333 0.00162572 0.1 -0.333333 0.00162572 0 -0.333333 0.00169935 0.1
-0.333333 0.00169935 0 -0.333333 0.00177409 0.1 -0.333333 0.00177409 0 -0.333333
0.00184995 0.1 -0.333333 0.00184995 0 -0.333333 0.00192694 0.1 -0.333333 0.00192694
0 -0.333333 0.00200508 0.1 -0.333333 0.00200508 0 -0.333333 0.0020844 0.1
-0.333333 0.0020844 0 -0.333333 0.0021649 0.1 -0.333333 0.0021649 0 -0.333333
0.0022466 0.1 -0.333333 0.0022466 0 -0.333333 0.00232953 0.1 -0.333333 0.00232953
0 -0.333333 0.0024137 0.1 -0.333333 0.0024137 0 -0.333333 0.00249912 0.1
-0.333333 0.00249912 0 -0.333333 0.00258583 0.1 -0.333333 0.00258583 0 -0.333333
0.00267383 0.1 -0.333333 0.00267383 0 -0.333333 0.00276315 0.1 -0.333333 0.00276315
0 -0.333333 0.00285381 0.1 -0.333333 0.00285381 0 -0.333333 0.00294582 0.1
-0.333333 0.00294582 0 -0.333333 0.00303921 0.1 -0.333333 0.00303921 0 -0.333333
0.003134 0.1 -0.333333 0.003134 0 -0.333333 0.00323021 0.1 -0.333333 0.00323021
0 -0.333333 0.00332786 0.1 -0.333333 0.00332786 0 -0.333333 0.00342696 0.1
-0.333333 0.00342696 0 -0.333333 0.00352755 0.1 -0.333333 0.00352755 0 -0.333333
0.00362965 0.1 -0.333333 0.00362965 0 -0.333333 0.00373327 0.1 -0.333333 0.00373327
0 -0.333333 0.00383845 0.1 -0.333333 0.00383845 0 -0.333333 0.0039452 0.1
-0.333333 0.0039452 0 -0.333333 0.00405354 0.1 -0.333333 0.00405354 0 -0.333333
0.00416351 0.1 -0.333333 0.00416351 0 -0.333333 0.00427512 0.1 -0.333333 0.00427512
0 -0.333333 0.00438841 0.1 -0.333333 0.00438841 0 -0.333333 0.00450338 0.1
-0.333333 0.00450338 0 -0.333333 0.00462008 0.1 -0.333333 0.00462008 0 -0.333333
0.00473853 0.1 -0.333333 0.00473853 0 -0.333333 0.00485875 0.1 -0.333333 0.00485875
0 -0.333333 0.00498076 0.1 -0.333333 0.00498076 0 -0.333333 0.0051046 0.1
-0.333333 0.0051046 0 -0.333333 0.0052303 0.1 -0.333333 0.0052303 0 -0.333333
0.00535788 0.1 -0.333333 0.00535788 0 -0.333333 0.00548736 0.1 -0.333333 0.00548736
0 -0.333333 0.00561879 0.1 -0.333333 0.00561879 0 -0.333333 0.00575218 0.1
-0.333333 0.00575218 0 -0.333333 0.00588756 0.1 -0.333333 0.00588756 0 -0.333333
0.00602497 0.1 -0.333333 0.00602497 0 -0.333333 0.00616444 0.1 -0.333333 0.00616444
0 -0.333333 0.006306 0.1 -0.333333 0.006306 0 -0.333333 0.00644967 0.1
-0.333333 0.00644967 0 -0.333333 0.0065955 0.1 -0.333333 0.0065955 0 -0.333333
0.0067435 0.1 -0.333333 0.0067435 0 -0.333333 0.00689372 0.1 -0.333333 0.00689372
0 -0.333333 0.00704619 0.1 -0.333333 0.00704619 0 -0.333333 0.00720094 0.1
-0.333333 0.00720094 0 -0.333333 0.00735801 0.1 -0.333333 0.00735801 0 -0.333333
0.00751743 0.1 -0.333333 0.00751743 0 -0.333333 0.00767923 0.1 -0.333333 0.00767923
0 -0.333333 0.00784345 0.1 -0.333333 0.00784345 0 -0.333333 0.00801013 0.1
-0.333333 0.00801013 0 -0.333333 0.00817931 0.1 -0.333333 0.00817931 0 -0.333333
0.00835101 0.1 -0.333333 0.00835101 0 -0.333333 0.00852529 0.1 -0.333333 0.00852529
0 -0.333333 0.00870218 0.1 -0.333333 0.00870218 0 -0.333333 0.00888171 0.1
-0.333333 0.00888171 0 -0.333333 0.00906393 0.1 -0.333333 0.00906393 0 -0.333333
0.00924887 0.1 -0.333333 0.00924887 0 -0.333333 0.00943658 0.1 -0.333333 0.00943658
0 -0.333333 0.0096271 0.1 -0.333333 0.0096271 0 -0.333333 0.00982048 0.1
-0.333333 0.00982048 0 -0.333333 0.0100167 0.1 -0.333333 0.0100167 0 -0.333333
0.0102159 0.1 -0.333333 0.0102159 0 -0.333333 0.0104181 0.1 -0.333333 0.0104181
0 -0.333333 0.0106233 0.1 -0.333333 0.0106233 0 -0.333333 0.0108316 0.1
-0.333333 0.0108316 0 -0.333333 0.011043 0.1 -0.333333 0.011043 0 -0.333333
0.0112576 0.1 -0.333333 0.0112576 0 -0.333333 0.0114754 0.1 -0.333333 0.0114754
0 -0.333333 0.0116964 0.1 -0.333333 0.0116964 0 -0.333333 0.0119207 0.1
-0.333333 0.0119207 0 -0.333333 0.0121484 0.1 -0.333333 0.0121484 0 -0.333333
0.0123795 0.1 -0.333333 0.0123795 0 -0.333333 0.0126141 0.1 -0.333333 0.0126141
0 -0.333333 0.0128521 0.1 -0.333333 0.0128521 0 -0.333333 0.0130938 0.1
-0.333333 0.0130938 0 -0.333333 0.013339 0.1 -0.333333 0.013339 0 -0.333333
0.013588 0.1 -0.333333 0.013588 0 -0.333333 0.0138406 0.1 -0.333333 0.0138406
0 -0.333333 0.014097 0.1 -0.333333 0.014097 0 -0.333333 0.0143573 0.1
-0.333333 0.0143573 0 -0.333333 0.0146214 0.1 -0.333333 0.0146214 0 -0.333333
0.0148896 0.1 -0.333333 0.0148896 0 -0.333333 0.0151617 0.1 -0.333333 0.0151617
0 -0.333333 0.0154379 0.1 -0.333333 0.0154379 0 -0.333333 0.0157182 0.1
-0.333333 0.0157182 0 -0.333333 0.0160027 0.1 -0.333333 0.0160027 0 -0.333333
0.0162915 0.1 -0.333333 0.0162915 0 -0.333333 0.0165846 0.1 -0.333333 0.0165846
0 -0.333333 0.0168821 0.1 -0.333333 0.0168821 0 -0.333333 0.017184 0.1
-0.333333 0.017184 0 -0.333333 0.0174905 0.1 -0.333333 0.0174905 0 -0.333333
0.0178015 0.1 -0.333333 0.0178015 0 -0.333333 0.0181172 0.1 -0.333333 0.0181172
0 -0.333333 0.0184376 0.1 -0.333333 0.0184376 0 -0.333333 0.0187629 0.1
-0.333333 0.0187629 0 -0.333333 0.0190929 0.1 -0.333333 0.0190929 0 -0.333333
0.019428 0.1 -0.333333 0.019428 0 -0.333333 0.019768 0.1 -0.333333 0.019768
0 -0.333333 0.0201131 0.1 -0.333333 0.0201131 0 -0.333333 0.0204634 0.1
-0.333333 0.0204634 0 -0.333333 0.020819 0.1 -0.333333 0.020819 0 -0.333333
0.0211798 0.1 -0.333333 0.0211798 0 -0.333333 0.0215461 0.1 -0.333333 0.0215461
0 -0.333333 0.0219178 0.1 -0.333333 0.0219178 0 -0.333333 0.0222951 0.1
-0.333333 0.0222951 0 -0.333333 0.022678 0.1 -0.333333 0.022678 0 -0.333333
0.0230667 0.1 -0.333333 0.0230667 0 -0.333333 0.0234612 0.1 -0.333333 0.0234612
0 -0.333333 0.0238616 0.1 -0.333333 0.0238616 0 -0.333333 0.024268 0.1
-0.333333 0.024268 0 -0.333333 0.0246804 0.1 -0.333333 0.0246804 0 -0.333333
0.0250991 0.1 -0.333333 0.0250991 0 -0.333333 0.025524 0.1 -0.333333 0.025524
0 -0.333333 0.0259552 0.1 -0.333333 0.0259552 0 -0.333333 0.026393 0.1
-0.333333 0.026393 0 -0.333333 0.0268372 0.1 -0.333333 0.0268372 0 -0.333333
0.0272881 0.1 -0.333333 0.0272881 0 -0.333333 0.0277458 0.1 -0.333333 0.0277458
0 -0.333333 0.0282103 0.1 -0.333333 0.0282103 0 -0.333333 0.0286818 0.1
-0.333333 0.0286818 0 -0.333333 0.0291603 0.1 -0.333333 0.0291603 0 -0.333333
0.0296459 0.1 -0.333333 0.0296459 0 -0.333333 0.0301389 0.1 -0.333333 0.0301389
0 -0.333333 0.0306392 0.1 -0.333333 0.0306392 0 -0.333333 0.031147 0.1
-0.333333 0.031147 0 -0.333333 0.0316624 0.1 -0.333333 0.0316624 0 -0.333333
0.0321855 0.1 -0.333333 0.0321855 0 -0.333333 0.0327165 0.1 -0.333333 0.0327165
0 -0.333333 0.0332554 0.1 -0.333333 0.0332554 0 -0.333333 0.0338023 0.1
-0.333333 0.0338023 0 -0.333333 0.0343575 0.1 -0.333333 0.0343575 0 -0.333333
0.0349209 0.1 -0.333333 0.0349209 0 -0.333333 0.0354928 0.1 -0.333333 0.0354928
0 -0.333333 0.0360733 0.1 -0.333333 0.0360733 0 -0.333333 0.0366624 0.1
-0.333333 0.0366624 0 -0.333333 0.0372603 0.1 -0.333333 0.0372603 0 -0.333333
0.0378672 0.1 -0.333333 0.0378672 0 -0.333333 0.0384832 0.1 -0.333333 0.0384832
0 -0.333333 0.0391084 0.1 -0.333333 0.0391084 0 -0.333333 0.0397429 0.1
-0.333333 0.0397429 0 -0.333333 0.040387 0.1 -0.333333 0.040387 0 -0.333333
0.0410406 0.1 -0.333333 0.0410406 0 -0.333333 0.0417041 0.1 -0.333333 0.0417041
0 -0.333333 0.0423775 0.1 -0.333333 0.0423775 0 -0.333333 0.0430609 0.1
-0.333333 0.0430609 0 -0.333333 0.0437546 0.1 -0.333333 0.0437546 0 -0.333333
0.0444587 0.1 -0.333333 0.0444587 0 -0.333333 0.0451733 0.1 -0.333333 0.0451733
0 -0.333333 0.0458986 0.1 -0.333333 0.0458986 0 -0.333333 0.0466348 0.1
-0.333333 0.0466348 0 -0.333333 0.0473819 0.1 -0.333333 0.0473819 0 -0.333333
0.0481403 0.1 -0.333333 0.0481403 0 -0.333333 0.04891 0.1 -0.333333 0.04891
0 -0.333333 0.0496912 0.1 -0.333333 0.0496912 0 -0.333333 0.0504841 0.1
-0.333333 0.0504841 0 -0.333333 0.0512889 0.1 -0.333333 0.0512889 0 -0.333333
0.0521057 0.1 -0.333333 0.0521057 0 -0.333333 0.0529348 0.1 -0.333333 0.0529348
0 -0.333333 0.0537762 0.1 -0.333333 0.0537762 0 -0.333333 0.0546303 0.1
-0.333333 0.0546303 0 -0.333333 0.0554971 0.1 -0.333333 0.0554971 0 -0.333333
0.0563769 0.1 -0.333333 0.0563769 0 -0.333333 0.0572698 0.1 -0.333333 0.0572698
0 -0.333333 0.0581761 0.1 -0.333333 0.0581761 0 -0.333333 0.059096 0.1
-0.333333 0.059096 0 -0.333333 0.0600297 0.1 -0.333333 0.0600297 0 -0.333333
0.0609773 0.1 -0.333333 0.0609773 0 -0.333333 0.0619391 0.1 -0.333333 0.0619391
0 -0.333333 0.0629153 0.1 -0.333333 0.0629153 0 -0.333333 0.0639061 0.1
-0.333333 0.0639061 0 -0.333333 0.0649117 0.1 -0.333333 0.0649117 0 -0.333333
0.0659324 0.1 -0.333333 0.0659324 0 -0.333333 0.0669684 0.1 -0.333333 0.0669684
0 -0.333333 0.0680198 0.1 -0.333333 0.0680198 0 -0.333333 0.069087 0.1
-0.333333 0.069087 0 -0.333333 0.0701701 0.1 -0.333333 0.0701701 0 -0.333333
0.0712695 0.1 -0.333333 0.0712695 0 -0.333333 0.0723853 0.1 -0.333333 0.0723853
[...]
CELL_DATA 385
FIELD attributes 6
patchID 1 385 float
0 0 0 0 0 0 0 0 0 0 0
0 0 0 0 0 0 0 0 0 0
0 0 0 0 0 0 0 0 0 0
0 0 0 0 0 0 0 0 0 0
0 0 0 0 0 0 0 0 0 0
0 0 0 0 0 0 0 0 0 0
0 0 0 0 0 0 0 0 0 0
0 0 0 0 0 0 0 0 0 0
0 0 0 0 0 0 0 0 0 0
0 0 0 0 0 0 0 0 0 0
0 0 0 0 0 0 0 0 0 0
0 0 0 0 0 0 0 0 0 0
0 0 0 0 0 0 0 0 0 0
0 0 0 0 0 0 0 0 0 0
0 0 0 0 0 0 0 0 0 0
0 0 0 0 0 0 0 0 0 0
0 0 0 0 0 0 0 0 0 0
0 0 0 0 0 0 0 0 0 0
0 0 0 0 0 0 0 0 0 0
0 0 0 0 0 0 0 0 0 0
0 0 0 0 0 0 0 0 0 0
0 0 0 0 0 0 0 0 0 0
0 0 0 0 0 0 0 0 0 0
0 0 0 0 0 0 0 0 0 0
0 0 0 0 0 0 0 0 0 0
0 0 0 0 0 0 0 0 0 0
0 0 0 0 0 0 0 0 0 0
0 0 0 0 0 0 0 0 0 0
0 0 0 0 0 0 0 0 0 0
0 0 0 0 0 0 0 0 0 0
0 0 0 0 0 0 0 0 0 0
0 0 0 0 0 0 0 0 0 0
0 0 0 0 0 0 0 0 0 0
0 0 0 0 0 0 0 0 0 0
0 0 0 0 0 0 0 0 0 0
0 0 0 0 0 0 0 0 0 0
0 0 0 0 0 0 0 0 0 0
0 0 0 0 0 0 0 0 0 0
0 0 0 0 
p 1 385 float
0 0 0 0 0 0 0 0 0 0 0
0 0 0 0 0 0 0 0 0 0
0 0 0 0 0 0 0 0 0 0
0 0 0 0 0 0 0 0 0 0
0 0 0 0 0 0 0 0 0 0
0 0 0 0 0 0 0 0 0 0
0 0 0 0 0 0 0 0 0 0
0 0 0 0 0 0 0 0 0 0
0 0 0 0 0 0 0 0 0 0
0 0 0 0 0 0 0 0 0 0
0 0 0 0 0 0 0 0 0 0
0 0 0 0 0 0 0 0 0 0
0 0 0 0 0 0 0 0 0 0
0 0 0 0 0 0 0 0 0 0
0 0 0 0 0 0 0 0 0 0
0 0 0 0 0 0 0 0 0 0
0 0 0 0 0 0 0 0 0 0
0 0 0 0 0 0 0 0 0 0
0 0 0 0 0 0 0 0 0 0
0 0 0 0 0 0 0 0 0 0
0 0 0 0 0 0 0 0 0 0
0 0 0 0 0 0 0 0 0 0
0 0 0 0 0 0 0 0 0 0
0 0 0 0 0 0 0 0 0 0
0 0 0 0 0 0 0 0 0 0
0 0 0 0 0 0 0 0 0 0
0 0 0 0 0 0 0 0 0 0
0 0 0 0 0 0 0 0 0 0
0 0 0 0 0 0 0 0 0 0
0 0 0 0 0 0 0 0 0 0
0 0 0 0 0 0 0 0 0 0
0 0 0 0 0 0 0 0 0 0
0 0 0 0 0 0 0 0 0 0
0 0 0 0 0 0 0 0 0 0
0 0 0 0 0 0 0 0 0 0
0 0 0 0 0 0 0 0 0 0
0 0 0 0 0 0 0 0 0 0
0 0 0 0 0 0 0 0 0 0
0 0 0 0 
nut 1 385 float
1.25e-07 1.25e-07 1.25e-07 1.25e-07 1.25e-07 1.25e-07 1.25e-07 1.25e-07 1.25e-07 1.25e-07 1.25e-07
1.25e-07 1.25e-07 1.25e-07 1.25e-07 1.25e-07 1.25e-07 1.25e-07 1.25e-07 1.25e-07 1.25e-07
1.25e-07 1.25e-07 1.25e-07 1.25e-07 1.25e-07 1.25e-07 1.25e-07 1.25e-07 1.25e-07 1.25e-07
1.25e-07 1.25e-07 1.25e-07 1.25e-07 1.25e-07 1.25e-07 1.25e-07 1.25e-07 1.25e-07 1.25e-07
1.25e-07 1.25e-07 1.25e-07 1.25e-07 1.25e-07 1.25e-07 1.25e-07 1.25e-07 1.25e-07 1.25e-07
1.25e-07 1.25e-07 1.25e-07 1.25e-07 1.25e-07 1.25e-07 1.25e-07 1.25e-07 1.25e-07 1.25e-07
1.25e-07 1.25e-07 1.25e-07 1.25e-07 1.25e-07 1.25e-07 1.25e-07 1.25e-07 1.25e-07 1.25e-07
1.25e-07 1.25e-07 1.25e-07 1.25e-07 1.25e-07 1.25e-07 1.25e-07 1.25e-07 1.25e-07 1.25e-07
1.25e-07 1.25e-07 1.25e-07 1.25e-07 1.25e-07 1.25e-07 1.25e-07 1.25e-07 1.25e-07 1.25e-07
1.25e-07 1.25e-07 1.25e-07 1.25e-07 1.25e-07 1.25e-07 1.25e-07 1.25e-07 1.25e-07 1.25e-07
1.25e-07 1.25e-07 1.25e-07 1.25e-07 1.25e-07 1.25e-07 1.25e-07 1.25e-07 1.25e-07 1.25e-07
1.25e-07 1.25e-07 1.25e-07 1.25e-07 1.25e-07 1.25e-07 1.25e-07 1.25e-07 1.25e-07 1.25e-07
1.25e-07 1.25e-07 1.25e-07 1.25e-07 1.25e-07 1.25e-07 1.25e-07 1.25e-07 1.25e-07 1.25e-07
1.25e-07 1.25e-07 1.25e-07 1.25e-07 1.25e-07 1.25e-07 1.25e-07 1.25e-07 1.25e-07 1.25e-07
1.25e-07 1.25e-07 1.25e-07 1.25e-07 1.25e-07 1.25e-07 1.25e-07 1.25e-07 1.25e-07 1.25e-07
1.25e-07 1.25e-07 1.25e-07 1.25e-07 1.25e-07 1.25e-07 1.25e-07 1.25e-07 1.25e-07 1.25e-07
1.25e-07 1.25e-07 1.25e-07 1.25e-07 1.25e-07 1.25e-07 1.25e-07 1.25e-07 1.25e-07 1.25e-07
1.25e-07 1.25e-07 1.25e-07 1.25e-07 1.25e-07 1.25e-07 1.25e-07 1.25e-07 1.25e-07 1.25e-07
1.25e-07 1.25e-07 1.25e-07 1.25e-07 1.25e-07 1.25e-07 1.25e-07 1.25e-07 1.25e-07 1.25e-07
1.25e-07 1.25e-07 1.25e-07 1.25e-07 1.25e-07 1.25e-07 1.25e-07 1.25e-07 1.25e-07 1.25e-07
1.25e-07 1.25e-07 1.25e-07 1.25e-07 1.25e-07 1.25e-07 1.25e-07 1.25e-07 1.25e-07 1.25e-07
1.25e-07 1.25e-07 1.25e-07 1.25e-07 1.25e-07 1.25e-07 1.25e-07 1.25e-07 1.25e-07 1.25e-07
1.25e-07 1.25e-07 1.25e-07 1.25e-07 1.25e-07 1.25e-07 1.25e-07 1.25e-07 1.25e-07 1.25e-07
1.25e-07 1.25e-07 1.25e-07 1.25e-07 1.25e-07 1.25e-07 1.25e-07 1.25e-07 1.25e-07 1.25e-07
1.25e-07 1.25e-07 1.25e-07 1.25e-07 1.25e-07 1.25e-07 1.25e-07 1.25e-07 1.25e-07 1.25e-07
1.25e-07 1.25e-07 1.25e-07 1.25e-07 1.25e-07 1.25e-07 1.25e-07 1.25e-07 1.25e-07 1.25e-07
1.25e-07 1.25e-07 1.25e-07 1.25e-07 1.25e-07 1.25e-07 1.25e-07 1.25e-07 1.25e-07 1.25e-07
1.25e-07 1.25e-07 1.25e-07 1.25e-07 1.25e-07 1.25e-07 1.25e-07 1.25e-07 1.25e-07 1.25e-07
1.25e-07 1.25e-07 1.25e-07 1.25e-07 1.25e-07 1.25e-07 1.25e-07 1.25e-07 1.25e-07 1.25e-07
1.25e-07 1.25e-07 1.25e-07 1.25e-07 1.25e-07 1.25e-07 1.25e-07 1.25e-07 1.25e-07 1.25e-07
1.25e-07 1.25e-07 1.25e-07 1.25e-07 1.25e-07 1.25e-07 1.25e-07 1.25e-07 1.25e-07 1.25e-07
1.25e-07 1.25e-07 1.25e-07 1.25e-07 1.25e-07 1.25e-07 1.25e-07 1.25e-07 1.25e-07 1.25e-07
1.25e-07 1.25e-07 1.25e-07 1.25e-07 1.25e-07 1.25e-07 1.25e-07 1.25e-07 1.25e-07 1.25e-07
1.25e-07 1.25e-07 1.25e-07 1.25e-07 1.25e-07 1.25e-07 1.25e-07 1.25e-07 1.25e-07 1.25e-07
1.25e-07 1.25e-07 1.25e-07 1.25e-07 1.25e-07 1.25e-07 1.25e-07 1.25e-07 1.25e-07 1.25e-07
1.25e-07 1.25e-07 1.25e-07 1.25e-07 1.25e-07 1.25e-07 1.25e-07 1.25e-07 1.25e-07 1.25e-07
1.25e-07 1.25e-07 1.25e-07 1.25e-07 1.25e-07 1.25e-07 1.25e-07 1.25e-07 1.25e-07 1.25e-07
1.25e-07 1.25e-07 1.25e-07 1.25e-07 1.25e-07 1.25e-07 1.25e-07 1.25e-07 1.25e-07 1.25e-07
1.25e-07 1.25e-07 1.25e-07 1.25e-07 
k 1 385 float
0.00108 0.00108 0.00108 0.00108 0.00108 0.00108 0.00108 0.00108 0.00108 0.00108 0.00108
0.00108 0.00108 0.00108 0.00108 0.00108 0.00108 0.00108 0.00108 0.00108 0.00108
0.00108 0.00108 0.00108 0.00108 0.00108 0.00108 0.00108 0.00108 0.00108 0.00108
0.00108 0.00108 0.00108 0.00108 0.00108 0.00108 0.00108 0.00108 0.00108 0.00108
0.00108 0.00108 0.00108 0.00108 0.00108 0.00108 0.00108 0.00108 0.00108 0.00108
0.00108 0.00108 0.00108 0.00108 0.00108 0.00108 0.00108 0.00108 0.00108 0.00108
0.00108 0.00108 0.00108 0.00108 0.00108 0.00108 0.00108 0.00108 0.00108 0.00108
0.00108 0.00108 0.00108 0.00108 0.00108 0.00108 0.00108 0.00108 0.00108 0.00108
0.00108 0.00108 0.00108 0.00108 0.00108 0.00108 0.00108 0.00108 0.00108 0.00108
0.00108 0.00108 0.00108 0.00108 0.00108 0.00108 0.00108 0.00108 0.00108 0.00108
0.00108 0.00108 0.00108 0.00108 0.00108 0.00108 0.00108 0.00108 0.00108 0.00108
0.00108 0.00108 0.00108 0.00108 0.00108 0.00108 0.00108 0.00108 0.00108 0.00108
0.00108 0.00108 0.00108 0.00108 0.00108 0.00108 0.00108 0.00108 0.00108 0.00108
0.00108 0.00108 0.00108 0.00108 0.00108 0.00108 0.00108 0.00108 0.00108 0.00108
0.00108 0.00108 0.00108 0.00108 0.00108 0.00108 0.00108 0.00108 0.00108 0.00108
0.00108 0.00108 0.00108 0.00108 0.00108 0.00108 0.00108 0.00108 0.00108 0.00108
0.00108 0.00108 0.00108 0.00108 0.00108 0.00108 0.00108 0.00108 0.00108 0.00108
0.00108 0.00108 0.00108 0.00108 0.00108 0.00108 0.00108 0.00108 0.00108 0.00108
0.00108 0.00108 0.00108 0.00108 0.00108 0.00108 0.00108 0.00108 0.00108 0.00108
0.00108 0.00108 0.00108 0.00108 0.00108 0.00108 0.00108 0.00108 0.00108 0.00108
0.00108 0.00108 0.00108 0.00108 0.00108 0.00108 0.00108 0.00108 0.00108 0.00108
0.00108 0.00108 0.00108 0.00108 0.00108 0.00108 0.00108 0.00108 0.00108 0.00108
0.00108 0.00108 0.00108 0.00108 0.00108 0.00108 0.00108 0.00108 0.00108 0.00108
0.00108 0.00108 0.00108 0.00108 0.00108 0.00108 0.00108 0.00108 0.00108 0.00108
0.00108 0.00108 0.00108 0.00108 0.00108 0.00108 0.00108 0.00108 0.00108 0.00108
0.00108 0.00108 0.00108 0.00108 0.00108 0.00108 0.00108 0.00108 0.00108 0.00108
0.00108 0.00108 0.00108 0.00108 0.00108 0.00108 0.00108 0.00108 0.00108 0.00108
0.00108 0.00108 0.00108 0.00108 0.00108 0.00108 0.00108 0.00108 0.00108 0.00108
0.00108 0.00108 0.00108 0.00108 0.00108 0.00108 0.00108 0.00108 0.00108 0.00108
0.00108 0.00108 0.00108 0.00108 0.00108 0.00108 0.00108 0.00108 0.00108 0.00108
0.00108 0.00108 0.00108 0.00108 0.00108 0.00108 0.00108 0.00108 0.00108 0.00108
0.00108 0.00108 0.00108 0.00108 0.00108 0.00108 0.00108 0.00108 0.00108 0.00108
0.00108 0.00108 0.00108 0.00108 0.00108 0.00108 0.00108 0.00108 0.00108 0.00108
0.00108 0.00108 0.00108 0.00108 0.00108 0.00108 0.00108 0.00108 0.00108 0.00108
0.00108 0.00108 0.00108 0.00108 0.00108 0.00108 0.00108 0.00108 0.00108 0.00108
0.00108 0.00108 0.00108 0.00108 0.00108 0.00108 0.00108 0.00108 0.00108 0.00108
0.00108 0.00108 0.00108 0.00108 0.00108 0.00108 0.00108 0.00108 0.00108 0.00108
0.00108 0.00108 0.00108 0.00108 0.00108 0.00108 0.00108 0.00108 0.00108 0.00108
0.00108 0.00108 0.00108 0.00108 
omega 1 385 float
8675 8675 8675 8675 8675 8675 8675 8675 8675 8675 8675
8675 8675 8675 8675 8675 8675 8675 8675 8675 8675
8675 8675 8675 8675 8675 8675 8675 8675 8675 8675
8675 8675 8675 8675 8675 8675 8675 8675 8675 8675
8675 8675 8675 8675 8675 8675 8675 8675 8675 8675
8675 8675 8675 8675 8675 8675 8675 8675 8675 8675
8675 8675 8675 8675 8675 8675 8675 8675 8675 8675
8675 8675 8675 8675 8675 8675 8675 8675 8675 8675
8675 8675 8675 8675 8675 8675 8675 8675 8675 8675
8675 8675 8675 8675 8675 8675 8675 8675 8675 8675
8675 8675 8675 8675 8675 8675 8675 8675 8675 8675
8675 8675 8675 8675 8675 8675 8675 8675 8675 8675
8675 8675 8675 8675 8675 8675 8675 8675 8675 8675
8675 8675 8675 8675 8675 8675 8675 8675 8675 8675
8675 8675 8675 8675 8675 8675 8675 8675 8675 8675
8675 8675 8675 8675 8675 8675 8675 8675 8675 8675
8675 8675 8675 8675 8675 8675 8675 8675 8675 8675
8675 8675 8675 8675 8675 8675 8675 8675 8675 8675
8675 8675 8675 8675 8675 8675 8675 8675 8675 8675
8675 8675 8675 8675 8675 8675 8675 8675 8675 8675
8675 8675 8675 8675 8675 8675 8675 8675 8675 8675
8675 8675 8675 8675 8675 8675 8675 8675 8675 8675
8675 8675 8675 8675 8675 8675 8675 8675 8675 8675
8675 8675 8675 8675 8675 8675 8675 8675 8675 8675
8675 8675 8675 8675 8675 8675 8675 8675 8675 8675
8675 8675 8675 8675 8675 8675 8675 8675 8675 8675
8675 8675 8675 8675 8675 8675 8675 8675 8675 8675
8675 8675 8675 8675 8675 8675 8675 8675 8675 8675
8675 8675 8675 8675 8675 8675 8675 8675 8675 8675
8675 8675 8675 8675 8675 8675 8675 8675 8675 8675
8675 8675 8675 8675 8675 8675 8675 8675 8675 8675
8675 8675 8675 8675 8675 8675 8675 8675 8675 8675
8675 8675 8675 8675 8675 8675 8675 8675 8675 8675
8675 8675 8675 8675 8675 8675 8675 8675 8675 8675
8675 8675 8675 8675 8675 8675 8675 8675 8675 8675
8675 8675 8675 8675 8675 8675 8675 8675 8675 8675
8675 8675 8675 8675 8675 8675 8675 8675 8675 8675
8675 8675 8675 8675 8675 8675 8675 8675 8675 8675
8675 8675 8675 8675 
U 3 385 float
69.4 0 0 69.4 0 0 69.4 0 0 69.4 0
0 69.4 0 0 69.4 0 0 69.4 0 0
69.4 0 0 69.4 0 0 69.4 0 0 69.4
0 0 69.4 0 0 69.4 0 0 69.4 0
0 69.4 0 0 69.4 0 0 69.4 0 0
69.4 0 0 69.4 0 0 69.4 0 0 69.4
0 0 69.4 0 0 69.4 0 0 69.4 0
0 69.4 0 0 69.4 0 0 69.4 0 0
69.4 0 0 69.4 0 0 69.4 0 0 69.4
0 0 69.4 0 0 69.4 0 0 69.4 0
0 69.4 0 0 69.4 0 0 69.4 0 0
69.4 0 0 69.4 0 0 69.4 0 0 69.4
0 0 69.4 0 0 69.4 0 0 69.4 0
0 69.4 0 0 69.4 0 0 69.4 0 0
69.4 0 0 69.4 0 0 69.4 0 0 69.4
0 0 69.4 0 0 69.4 0 0 69.4 0
0 69.4 0 0 69.4 0 0 69.4 0 0
69.4 0 0 69.4 0 0 69.4 0 0 69.4
0 0 69.4 0 0 69.4 0 0 69.4 0
0 69.4 0 0 69.4 0 0 69.4 0 0
69.4 0 0 69.4 0 0 69.4 0 0 69.4
0 0 69.4 0 0 69.4 0 0 69.4 0
0 69.4 0 0 69.4 0 0 69.4 0 0
69.4 0 0 69.4 0 0 69.4 0 0 69.4
0 0 69.4 0 0 69.4 0 0 69.4 0
0 69.4 0 0 69.4 0 0 69.4 0 0
69.4 0 0 69.4 0 0 69.4 0 0 69.4
0 0 69.4 0 0 69.4 0 0 69.4 0
0 69.4 0 0 69.4 0 0 69.4 0 0
69.4 0 0 69.4 0 0 69.4 0 0 69.4
0 0 69.4 0 0 69.4 0 0 69.4 0
0 69.4 0 0 69.4 0 0 69.4 0 0
69.4 0 0 69.4 0 0 69.4 0 0 69.4
0 0 69.4 0 0 69.4 0 0 69.4 0
0 69.4 0 0 69.4 0 0 69.4 0 0
69.4 0 0 69.4 0 0 69.4 0 0 69.4
0 0 69.4 0 0 69.4 0 0 69.4 0
0 69.4 0 0 69.4 0 0 69.4 0 0
69.4 0 0 69.4 0 0 69.4 0 0 69.4
0 0 69.4 0 0 69.4 0 0 69.4 0
0 69.4 0 0 69.4 0 0 69.4 0 0
69.4 0 0 69.4 0 0 69.4 0 0 69.4
0 0 69.4 0 0 69.4 0 0 69.4 0
0 69.4 0 0 69.4 0 0 69.4 0 0
69.4 0 0 69.4 0 0 69.4 0 0 69.4
0 0 69.4 0 0 69.4 0 0 69.4 0
0 69.4 0 0 69.4 0 0 69.4 0 0
69.4 0 0 69.4 0 0 69.4 0 0 69.4
0 0 69.4 0 0 69.4 0 0 69.4 0
0 69.4 0 0 69.4 0 0 69.4 0 0
69.4 0 0 69.4 0 0 69.4 0 0 69.4
0 0 69.4 0 0 69.4 0 0 69.4 0
0 69.4 0 0 69.4 0 0 69.4 0 0
69.4 0 0 69.4 0 0 69.4 0 0 69.4
0 0 69.4 0 0 69.4 0 0 69.4 0
0 69.4 0 0 69.4 0 0 69.4 0 0
69.4 0 0 69.4 0 0 69.4 0 0 69.4
0 0 69.4 0 0 69.4 0 0 69.4 0
0 69.4 0 0 69.4 0 0 69.4 0 0
69.4 0 0 69.4 0 0 69.4 0 0 69.4
0 0 69.4 0 0 69.4 0 0 69.4 0
0 69.4 0 0 69.4 0 0 69.4 0 0
69.4 0 0 69.4 0 0 69.4 0 0 69.4
0 0 69.4 0 0 69.4 0 0 69.4 0
0 69.4 0 0 69.4 0 0 69.4 0 0
69.4 0 0 69.4 0 0 69.4 0 0 69.4
0 0 69.4 0 0 69.4 0 0 69.4 0
0 69.4 0 0 69.4 0 0 69.4 0 0
69.4 0 0 69.4 0 0 69.4 0 0 69.4
0 0 69.4 0 0 69.4 0 0 69.4 0
0 69.4 0 0 69.4 0 0 69.4 0 0
69.4 0 0 69.4 0 0 69.4 0 0 69.4
0 0 69.4 0 0 69.4 0 0 69.4 0
0 69.4 0 0 69.4 0 0 69.4 0 0
69.4 0 0 69.4 0 0 69.4 0 0 69.4
0 0 69.4 0 0 69.4 0 0 69.4 0
0 69.4 0 0 69.4 0 0 69.4 0 0
69.4 0 0 69.4 0 0 69.4 0 0 69.4
0 0 69.4 0 0 69.4 0 0 69.4 0
0 69.4 0 0 69.4 0 0 69.4 0 0
69.4 0 0 69.4 0 0 69.4 0 0 69.4
0 0 69.4 0 0 69.4 0 0 69.4 0
0 69.4 0 0 69.4 0 0 69.4 0 0
69.4 0 0 69.4 0 0 69.4 0 0 69.4
0 0 69.4 0 0 69.4 0 0 69.4 0
0 69.4 0 0 69.4 0 0 69.4 0 0
69.4 0 0 69.4 0 0 69.4 0 0 69.4
0 0 69.4 0 0 69.4 0 0 69.4 0
0 69.4 0 0 69.4 0 0 69.4 0 0
69.4 0 0 69.4 0 0 69.4 0 0 69.4
0 0 69.4 0 0 69.4 0 0 69.4 0
0 69.4 0 0 69.4 0 0 69.4 0 0
69.4 0 0 69.4 0 0 69.4 0 0 69.4
0 0 69.4 0 0 69.4 0 0 69.4 0
0 69.4 0 0 69.4 0 0 69.4 0 0
69.4 0 0 69.4 0 0 69.4 0 0 69.4
0 0 69.4 0 0 69.4 0 0 69.4 0
0 69.4 0 0 69.4 0 0 69.4 0 0
69.4 0 0 69.4 0 0 69.4 0 0 69.4
0 0 69.4 0 0 69.4 0 0 69.4 0
0 69.4 0 0 69.4 0 0 69.4 0 0
69.4 0 0 69.4 0 0 69.4 0 0 69.4
0 0 69.4 0 0 69.4 0 0 69.4 0
0 69.4 0 0 69.4 0 0 69.4 0 0
69.4 0 0 69.4 0 0 69.4 0 0 69.4
0 0 69.4 0 0 69.4 0 0 69.4 0
0 69.4 0 0 69.4 0 0 69.4 0 0
69.4 0 0 69.4 0 0 69.4 0 0 69.4
0 0 69.4 0 0 69.4 0 0 69.4 0
0 69.4 0 0 69.4 0 0 69.4 0 0
69.4 0 0 69.4 0 0 69.4 0 0 69.4
0 0 69.4 0 0 69.4 0 0 69.4 0
0 69.4 0 0 69.4 0 0 69.4 0 0
69.4 0 0 69.4 0 0 69.4 0 0 69.4
0 0 69.4 0 0 69.4 0 0 69.4 0
0 69.4 0 0 
POINT_DATA  772
FIELD attributes 5
p 1 772 float
0 0 0 0 0 0 0 0 0 0 0
0 0 0 0 0 0 0 0 0 0
0 0 0 0 0 0 0 0 0 0
0 0 0 0 0 0 0 0 0 0
0 0 0 0 0 0 0 0 0 0
0 0 0 0 0 0 0 0 0 0
0 0 0 0 0 0 0 0 0 0
0 0 0 0 0 0 0 0 0 0
0 0 0 0 0 0 0 0 0 0
0 0 0 0 0 0 0 0 0 0
0 0 0 0 0 0 0 0 0 0
0 0 0 0 0 0 0 0 0 0
0 0 0 0 0 0 0 0 0 0
0 0 0 0 0 0 0 0 0 0
0 0 0 0 0 0 0 0 0 0
0 0 0 0 0 0 0 0 0 0
0 0 0 0 0 0 0 0 0 0
0 0 0 0 0 0 0 0 0 0
0 0 0 0 0 0 0 0 0 0
0 0 0 0 0 0 0 0 0 0
0 0 0 0 0 0 0 0 0 0
0 0 0 0 0 0 0 0 0 0
0 0 0 0 0 0 0 0 0 0
0 0 0 0 0 0 0 0 0 0
0 0 0 0 0 0 0 0 0 0
0 0 0 0 0 0 0 0 0 0
0 0 0 0 0 0 0 0 0 0
0 0 0 0 0 0 0 0 0 0
0 0 0 0 0 0 0 0 0 0
0 0 0 0 0 0 0 0 0 0
0 0 0 0 0 0 0 0 0 0
0 0 0 0 0 0 0 0 0 0
0 0 0 0 0 0 0 0 0 0
0 0 0 0 0 0 0 0 0 0
0 0 0 0 0 0 0 0 0 0
0 0 0 0 0 0 0 0 0 0
0 0 0 0 0 0 0 0 0 0
0 0 0 0 0 0 0 0 0 0
0 0 0 0 0 0 0 0 0 0
0 0 0 0 0 0 0 0 0 0
0 0 0 0 0 0 0 0 0 0
0 0 0 0 0 0 0 0 0 0
0 0 0 0 0 0 0 0 0 0
0 0 0 0 0 0 0 0 0 0
0 0 0 0 0 0 0 0 0 0
0 0 0 0 0 0 0 0 0 0
0 0 0 0 0 0 0 0 0 0
0 0 0 0 0 0 0 0 0 0
0 0 0 0 0 0 0 0 0 0
0 0 0 0 0 0 0 0 0 0
0 0 0 0 0 0 0 0 0 0
0 0 0 0 0 0 0 0 0 0
0 0 0 0 0 0 0 0 0 0
0 0 0 0 0 0 0 0 0 0
0 0 0 0 0 0 0 0 0 0
0 0 0 0 0 0 0 0 0 0
0 0 0 0 0 0 0 0 0 0
0 0 0 0 0 0 0 0 0 0
0 0 0 0 0 0 0 0 0 0
0 0 0 0 0 0 0 0 0 0
0 0 0 0 0 0 0 0 0 0
0 0 0 0 0 0 0 0 0 0
0 0 0 0 0 0 0 0 0 0
0 0 0 0 0 0 0 0 0 0
0 0 0 0 0 0 0 0 0 0
0 0 0 0 0 0 0 0 0 0
0 0 0 0 0 0 0 0 0 0
0 0 0 0 0 0 0 0 0 0
0 0 0 0 0 0 0 0 0 0
0 0 0 0 0 0 0 0 0 0
0 0 0 0 0 0 0 0 0 0
0 0 0 0 0 0 0 0 0 0
0 0 0 0 0 0 0 0 0 0
0 0 0 0 0 0 0 0 0 0
0 0 0 0 0 0 0 0 0 0
0 0 0 0 0 0 0 0 0 0
0 0 0 0 0 0 0 0 0 0
0 
nut 1 772 float
1.25e-07 1.25e-07 1.25e-07 1.25e-07 1.25e-07 1.25e-07 1.25e-07 1.25e-07 1.25e-07 1.25e-07 1.25e-07
1.25e-07 1.25e-07 1.25e-07 1.25e-07 1.25e-07 1.25e-07 1.25e-07 1.25e-07 1.25e-07 1.25e-07
1.25e-07 1.25e-07 1.25e-07 1.25e-07 1.25e-07 1.25e-07 1.25e-07 1.25e-07 1.25e-07 1.25e-07
1.25e-07 1.25e-07 1.25e-07 1.25e-07 1.25e-07 1.25e-07 1.25e-07 1.25e-07 1.25e-07 1.25e-07
1.25e-07 1.25e-07 1.25e-07 1.25e-07 1.25e-07 1.25e-07 1.25e-07 1.25e-07 1.25e-07 1.25e-07
1.25e-07 1.25e-07 1.25e-07 1.25e-07 1.25e-07 1.25e-07 1.25e-07 1.25e-07 1.25e-07 1.25e-07
1.25e-07 1.25e-07 1.25e-07 1.25e-07 1.25e-07 1.25e-07 1.25e-07 1.25e-07 1.25e-07 1.25e-07
1.25e-07 1.25e-07 1.25e-07 1.25e-07 1.25e-07 1.25e-07 1.25e-07 1.25e-07 1.25e-07 1.25e-07
1.25e-07 1.25e-07 1.25e-07 1.25e-07 1.25e-07 1.25e-07 1.25e-07 1.25e-07 1.25e-07 1.25e-07
1.25e-07 1.25e-07 1.25e-07 1.25e-07 1.25e-07 1.25e-07 1.25e-07 1.25e-07 1.25e-07 1.25e-07
1.25e-07 1.25e-07 1.25e-07 1.25e-07 1.25e-07 1.25e-07 1.25e-07 1.25e-07 1.25e-07 1.25e-07
1.25e-07 1.25e-07 1.25e-07 1.25e-07 1.25e-07 1.25e-07 1.25e-07 1.25e-07 1.25e-07 1.25e-07
1.25e-07 1.25e-07 1.25e-07 1.25e-07 1.25e-07 1.25e-07 1.25e-07 1.25e-07 1.25e-07 1.25e-07
1.25e-07 1.25e-07 1.25e-07 1.25e-07 1.25e-07 1.25e-07 1.25e-07 1.25e-07 1.25e-07 1.25e-07
1.25e-07 1.25e-07 1.25e-07 1.25e-07 1.25e-07 1.25e-07 1.25e-07 1.25e-07 1.25e-07 1.25e-07
1.25e-07 1.25e-07 1.25e-07 1.25e-07 1.25e-07 1.25e-07 1.25e-07 1.25e-07 1.25e-07 1.25e-07
1.25e-07 1.25e-07 1.25e-07 1.25e-07 1.25e-07 1.25e-07 1.25e-07 1.25e-07 1.25e-07 1.25e-07
1.25e-07 1.25e-07 1.25e-07 1.25e-07 1.25e-07 1.25e-07 1.25e-07 1.25e-07 1.25e-07 1.25e-07
1.25e-07 1.25e-07 1.25e-07 1.25e-07 1.25e-07 1.25e-07 1.25e-07 1.25e-07 1.25e-07 1.25e-07
1.25e-07 1.25e-07 1.25e-07 1.25e-07 1.25e-07 1.25e-07 1.25e-07 1.25e-07 1.25e-07 1.25e-07
1.25e-07 1.25e-07 1.25e-07 1.25e-07 1.25e-07 1.25e-07 1.25e-07 1.25e-07 1.25e-07 1.25e-07
1.25e-07 1.25e-07 1.25e-07 1.25e-07 1.25e-07 1.25e-07 1.25e-07 1.25e-07 1.25e-07 1.25e-07
1.25e-07 1.25e-07 1.25e-07 1.25e-07 1.25e-07 1.25e-07 1.25e-07 1.25e-07 1.25e-07 1.25e-07
1.25e-07 1.25e-07 1.25e-07 1.25e-07 1.25e-07 1.25e-07 1.25e-07 1.25e-07 1.25e-07 1.25e-07
1.25e-07 1.25e-07 1.25e-07 1.25e-07 1.25e-07 1.25e-07 1.25e-07 1.25e-07 1.25e-07 1.25e-07
1.25e-07 1.25e-07 1.25e-07 1.25e-07 1.25e-07 1.25e-07 1.25e-07 1.25e-07 1.25e-07 1.25e-07
1.25e-07 1.25e-07 1.25e-07 1.25e-07 1.25e-07 1.25e-07 1.25e-07 1.25e-07 1.25e-07 1.25e-07
1.25e-07 1.25e-07 1.25e-07 1.25e-07 1.25e-07 1.25e-07 1.25e-07 1.25e-07 1.25e-07 1.25e-07
1.25e-07 1.25e-07 1.25e-07 1.25e-07 1.25e-07 1.25e-07 1.25e-07 1.25e-07 1.25e-07 1.25e-07
1.25e-07 1.25e-07 1.25e-07 1.25e-07 1.25e-07 1.25e-07 1.25e-07 1.25e-07 1.25e-07 1.25e-07
1.25e-07 1.25e-07 1.25e-07 1.25e-07 1.25e-07 1.25e-07 1.25e-07 1.25e-07 1.25e-07 1.25e-07
1.25e-07 1.25e-07 1.25e-07 1.25e-07 1.25e-07 1.25e-07 1.25e-07 1.25e-07 1.25e-07 1.25e-07
1.25e-07 1.25e-07 1.25e-07 1.25e-07 1.25e-07 1.25e-07 1.25e-07 1.25e-07 1.25e-07 1.25e-07
1.25e-07 1.25e-07 1.25e-07 1.25e-07 1.25e-07 1.25e-07 1.25e-07 1.25e-07 1.25e-07 1.25e-07
1.25e-07 1.25e-07 1.25e-07 1.25e-07 1.25e-07 1.25e-07 1.25e-07 1.25e-07 1.25e-07 1.25e-07
1.25e-07 1.25e-07 1.25e-07 1.25e-07 1.25e-07 1.25e-07 1.25e-07 1.25e-07 1.25e-07 1.25e-07
1.25e-07 1.25e-07 1.25e-07 1.25e-07 1.25e-07 1.25e-07 1.25e-07 1.25e-07 1.25e-07 1.25e-07
1.25e-07 1.25e-07 1.25e-07 1.25e-07 1.25e-07 1.25e-07 1.25e-07 1.25e-07 1.25e-07 1.25e-07
1.25e-07 1.25e-07 1.25e-07 1.25e-07 1.25e-07 1.25e-07 1.25e-07 1.25e-07 1.25e-07 1.25e-07
1.25e-07 1.25e-07 1.25e-07 1.25e-07 1.25e-07 1.25e-07 1.25e-07 1.25e-07 1.25e-07 1.25e-07
1.25e-07 1.25e-07 1.25e-07 1.25e-07 1.25e-07 1.25e-07 1.25e-07 1.25e-07 1.25e-07 1.25e-07
1.25e-07 1.25e-07 1.25e-07 1.25e-07 1.25e-07 1.25e-07 1.25e-07 1.25e-07 1.25e-07 1.25e-07
1.25e-07 1.25e-07 1.25e-07 1.25e-07 1.25e-07 1.25e-07 1.25e-07 1.25e-07 1.25e-07 1.25e-07
1.25e-07 1.25e-07 1.25e-07 1.25e-07 1.25e-07 1.25e-07 1.25e-07 1.25e-07 1.25e-07 1.25e-07
1.25e-07 1.25e-07 1.25e-07 1.25e-07 1.25e-07 1.25e-07 1.25e-07 1.25e-07 1.25e-07 1.25e-07
1.25e-07 1.25e-07 1.25e-07 1.25e-07 1.25e-07 1.25e-07 1.25e-07 1.25e-07 1.25e-07 1.25e-07
1.25e-07 1.25e-07 1.25e-07 1.25e-07 1.25e-07 1.25e-07 1.25e-07 1.25e-07 1.25e-07 1.25e-07
1.25e-07 1.25e-07 1.25e-07 1.25e-07 1.25e-07 1.25e-07 1.25e-07 1.25e-07 1.25e-07 1.25e-07
1.25e-07 1.25e-07 1.25e-07 1.25e-07 1.25e-07 1.25e-07 1.25e-07 1.25e-07 1.25e-07 1.25e-07
1.25e-07 1.25e-07 1.25e-07 1.25e-07 1.25e-07 1.25e-07 1.25e-07 1.25e-07 1.25e-07 1.25e-07
1.25e-07 1.25e-07 1.25e-07 1.25e-07 1.25e-07 1.25e-07 1.25e-07 1.25e-07 1.25e-07 1.25e-07
1.25e-07 1.25e-07 1.25e-07 1.25e-07 1.25e-07 1.25e-07 1.25e-07 1.25e-07 1.25e-07 1.25e-07
1.25e-07 1.25e-07 1.25e-07 1.25e-07 1.25e-07 1.25e-07 1.25e-07 1.25e-07 1.25e-07 1.25e-07