0 	0 	0 	0
2.5125628e-05 	0.017610965 	1.3229194e-05 	0
5.0251256e-05 	0.03522193 	2.6458387e-05 	0
7.5376884e-05 	0.052832895 	3.9687581e-05 	0
0.00010050251 	0.070276448 	6.6709687e-05 	0
0.00012562814 	0.087621306 	0.00010186326 	0
0.00015075377 	0.10496616 	0.00013701682 	0
0.0001758794 	0.12227272 	0.00017544774 	0
0.00020100503 	0.13930883 	0.00023701652 	0
0.00022613065 	0.15634495 	0.0002985853 	0
0.00025125628 	0.17338107 	0.00036015409 	0
0.00027638191 	0.1900918 	0.00043271824 	0
0.00030150754 	0.20644936 	0.00051721638 	0
0.00032663317 	0.22280693 	0.00060171452 	0
0.00035175879 	0.23916449 	0.00068621265 	0
0.00037688442 	0.25469596 	0.00078341243 	0
0.00040201005 	0.26985619 	0.00088632014 	0
0.00042713568 	0.28501642 	0.00098922784 	0
0.00045226131 	0.30017665 	0.0010921355 	0
0.00047738693 	0.31399182 	0.0012028572 	0
0.00050251256 	0.32735755 	0.0013161899 	0
0.00052763819 	0.34072327 	0.0014295226 	0
0.00055276382 	0.354089 	0.0015428553 	0
0.00057788945 	0.36593511 	0.0016556985 	0
0.00060301508 	0.37697128 	0.0017682809 	0
0.0006281407 	0.38800745 	0.0018808632 	0
0.00065326633 	0.39904362 	0.0019934456 	0
0.00067839196 	0.40904932 	0.002101119 	0
0.00070351759 	0.41745692 	0.0022011793 	0
0.00072864322 	0.42586452 	0.0023012397 	0
0.00075376884 	0.43427212 	0.0024013001 	0
0.00077889447 	0.44267972 	0.0025013604 	0
0.0008040201 	0.44861111 	0.0025810325 	0
0.00082914573 	0.45444518 	0.0026599034 	0
0.00085427136 	0.46027925 	0.0027387742 	0
0.00087939698 	0.46611333 	0.0028176451 	0
0.00090452261 	0.47117009 	0.0028879194 	0
0.00092964824 	0.47482097 	0.0029426456 	0
0.00095477387 	0.47847185 	0.0029973718 	0
0.0009798995 	0.48212274 	0.003052098 	0
0.0010050251 	0.48577362 	0.0031068242 	0
0.0010301508 	0.48851483 	0.0031493517 	0
0.0010552764 	0.49056018 	0.0031825477 	0
0.001080402 	0.49260554 	0.0032157437 	0
0.0011055276 	0.49465089 	0.0032489397 	0
0.0011306533 	0.49669624 	0.0032821357 	0
0.0011557789 	0.49814029 	0.0033060798 	0
0.0011809045 	0.49916041 	0.0033235012 	0
0.0012060302 	0.50018054 	0.0033409227 	0
0.0012311558 	0.50120067 	0.0033583442 	0
0.0012562814 	0.5022208 	0.0033757656 	0
0.001281407 	0.50300852 	0.0033892235 	0
0.0013065327 	0.50345934 	0.003396936 	0
0.0013316583 	0.50391017 	0.0034046485 	0
0.0013567839 	0.50436099 	0.0034123609 	0
0.0013819095 	0.50481182 	0.0034200734 	0
0.0014070352 	0.50525608 	0.0034276646 	0
0.0014321608 	0.50543178 	0.0034302985 	0
0.0014572864 	0.50560749 	0.0034329325 	0
0.0014824121 	0.5057832 	0.0034355664 	0
0.0015075377 	0.50595891 	0.0034382004 	0
0.0015326633 	0.50613462 	0.0034408343 	0
0.0015577889 	0.50626112 	0.0034425016 	0
0.0015829146 	0.50632112 	0.0034428623 	0
0.0016080402 	0.50638112 	0.0034432229 	0
0.0016331658 	0.50644112 	0.0034435836 	0
0.0016582915 	0.50650111 	0.0034439442 	0
0.0016834171 	0.50656111 	0.0034443049 	0
0.0017085427 	0.50659553 	0.0034441363 	0
0.0017336683 	0.50661316 	0.0034436203 	0
0.001758794 	0.5066308 	0.0034431043 	0
0.0017839196 	0.50664843 	0.0034425883 	0
0.0018090452 	0.50666606 	0.0034420723 	0
0.0018341709 	0.5066837 	0.0034415563 	0
0.0018592965 	0.50669387 	0.0034408775 	0
0.0018844221 	0.50669795 	0.0034400657 	0
0.0019095477 	0.50670203 	0.0034392539 	0
0.0019346734 	0.50670611 	0.0034384422 	0
0.001959799 	0.50671019 	0.0034376304 	0
0.0019849246 	0.50671428 	0.0034368186 	0
0.0020100503 	0.50671736 	0.0034359831 	0
0.0020351759 	0.50671756 	0.0034350787 	0
0.0020603015 	0.50671777 	0.0034341744 	0
0.0020854271 	0.50671797 	0.00343327 	0
0.0021105528 	0.50671817 	0.0034323656 	0
0.0021356784 	0.50671837 	0.0034314612 	0
0.002160804 	0.50671857 	0.0034305569 	0
0.0021859296 	0.50671798 	0.003429629 	0
0.0022110553 	0.50671707 	0.0034286917 	0
0.0022361809 	0.50671616 	0.0034277543 	0
0.0022613065 	0.50671525 	0.003426817 	0
0.0022864322 	0.50671434 	0.0034258796 	0
0.0023115578 	0.50671343 	0.0034249423 	0
0.0023366834 	0.50671252 	0.0034240049 	0
0.002361809 	0.50671121 	0.0034230507 	0
0.0023869347 	0.50670986 	0.0034220947 	0
0.0024120603 	0.50670851 	0.0034211387 	0
0.0024371859 	0.50670715 	0.0034201827 	0
0.0024623116 	0.5067058 	0.0034192268 	0
0.0024874372 	0.50670445 	0.0034182708 	0
0.0025125628 	0.5067031 	0.0034173148 	0
0.0025376884 	0.5067015 	0.0034163455 	0
0.0025628141 	0.50669985 	0.0034153734 	0
0.0025879397 	0.5066982 	0.0034144013 	0
0.0026130653 	0.50669656 	0.0034134293 	0
0.002638191 	0.50669491 	0.0034124572 	0
0.0026633166 	0.50669326 	0.0034114852 	0
0.0026884422 	0.50669161 	0.0034105131 	0
0.0027135678 	0.50668984 	0.0034095334 	0
0.0027386935 	0.50668794 	0.0034085454 	0
0.0027638191 	0.50668604 	0.0034075573 	0
0.0027889447 	0.50668414 	0.0034065692 	0
0.0028140704 	0.50668224 	0.0034055811 	0
0.002839196 	0.50668034 	0.003404593 	0
0.0028643216 	0.50667844 	0.0034036049 	0
0.0028894472 	0.50667654 	0.0034026168 	0
0.0029145729 	0.50667446 	0.0034016153 	0
0.0029396985 	0.50667234 	0.003400611 	0
0.0029648241 	0.50667022 	0.0033996066 	0
0.0029899497 	0.5066681 	0.0033986022 	0
0.0030150754 	0.50666598 	0.0033975979 	0
0.003040201 	0.50666386 	0.0033965935 	0
0.0030653266 	0.50666174 	0.0033955892 	0
0.0030904523 	0.50665962 	0.0033945848 	0
0.0031155779 	0.50665734 	0.0033935662 	0
0.0031407035 	0.50665503 	0.0033925453 	0
0.0031658291 	0.50665273 	0.0033915245 	0
0.0031909548 	0.50665042 	0.0033905037 	0
0.0032160804 	0.50664812 	0.0033894828 	0
0.003241206 	0.50664581 	0.003388462 	0
0.0032663317 	0.50664351 	0.0033874412 	0
0.0032914573 	0.5066412 	0.0033864203 	0
0.0033165829 	0.5066388 	0.0033853895 	0
0.0033417085 	0.50663634 	0.003384352 	0
0.0033668342 	0.50663388 	0.0033833144 	0
0.0033919598 	0.50663142 	0.0033822769 	0
0.0034170854 	0.50662896 	0.0033812393 	0
0.0034422111 	0.5066265 	0.0033802018 	0
0.0034673367 	0.50662404 	0.0033791642 	0
0.0034924623 	0.50662157 	0.0033781267 	0
0.0035175879 	0.50661911 	0.0033770891 	0
0.0035427136 	0.50661652 	0.0033760347 	0
0.0035678392 	0.50661393 	0.0033749801 	0
0.0035929648 	0.50661134 	0.0033739256 	0
0.0036180905 	0.50660875 	0.0033728711 	0
0.0036432161 	0.50660616 	0.0033718166 	0
0.0036683417 	0.50660357 	0.0033707621 	0
0.0036934673 	0.50660097 	0.0033697076 	0
0.003718593 	0.50659838 	0.0033686531 	0
0.0037437186 	0.50659579 	0.0033675976 	0
0.0037688442 	0.50659308 	0.0033665258 	0
0.0037939698 	0.50659038 	0.003365454 	0
0.0038190955 	0.50658767 	0.0033643822 	0
0.0038442211 	0.50658497 	0.0033633104 	0
0.0038693467 	0.50658226 	0.0033622386 	0
0.0038944724 	0.50657956 	0.0033611668 	0
0.003919598 	0.50657686 	0.0033600949 	0
0.0039447236 	0.50657415 	0.0033590231 	0
0.0039698492 	0.50657145 	0.0033579513 	0
0.0039949749 	0.50656867 	0.0033568662 	0
0.0040201005 	0.50656586 	0.0033557767 	0
0.0040452261 	0.50656306 	0.0033546872 	0
0.0040703518 	0.50656025 	0.0033535977 	0
0.0040954774 	0.50655744 	0.0033525082 	0
0.004120603 	0.50655464 	0.0033514187 	0
0.0041457286 	0.50655183 	0.0033503292 	0
0.0041708543 	0.50654903 	0.0033492397 	0
0.0041959799 	0.50654622 	0.0033481502 	0
0.0042211055 	0.50654341 	0.0033470592 	0
0.0042462312 	0.50654051 	0.0033459516 	0
0.0042713568 	0.50653761 	0.0033448439 	0
0.0042964824 	0.50653471 	0.0033437363 	0
0.004321608 	0.50653181 	0.0033426287 	0
0.0043467337 	0.50652891 	0.0033415211 	0
0.0043718593 	0.50652601 	0.0033404135 	0
0.0043969849 	0.50652311 	0.0033393059 	0
0.0044221106 	0.50652021 	0.0033381983 	0
0.0044472362 	0.50651731 	0.0033370907 	0
0.0044723618 	0.5065144 	0.0033359825 	0
0.0044974874 	0.50651141 	0.0033348562 	0
0.0045226131 	0.50650842 	0.00333373 	0
0.0045477387 	0.50650543 	0.0033326038 	0
0.0045728643 	0.50650244 	0.0033314776 	0
0.0045979899 	0.50649945 	0.0033303514 	0
0.0046231156 	0.50649646 	0.0033292252 	0
0.0046482412 	0.50649347 	0.003328099 	0
0.0046733668 	0.50649048 	0.0033269727 	0
0.0046984925 	0.50648749 	0.0033258465 	0
0.0047236181 	0.50648449 	0.0033247203 	0
0.0047487437 	0.50648145 	0.003323583 	0
0.0047738693 	0.50647837 	0.0033224377 	0
0.004798995 	0.50647529 	0.0033212924 	0
0.0048241206 	0.50647222 	0.0033201471 	0
0.0048492462 	0.50646914 	0.0033190018 	0
0.0048743719 	0.50646606 	0.0033178565 	0
0.0048994975 	0.50646298 	0.0033167112 	0
0.0049246231 	0.5064599 	0.0033155659 	0
0.0049497487 	0.50645682 	0.0033144206 	0
0.0049748744 	0.50645374 	0.0033132753 	0
0.005 	0.50645066 	0.00331213 	0
