/*--------------------------------*- C++ -*----------------------------------*\
| =========                 |                                                 |
| \\      /  F ield         | OpenFOAM: The Open Source CFD Toolbox           |
|  \\    /   O peration     | Version:  5.x                                   |
|   \\  /    A nd           | Web:      www.OpenFOAM.org                      |
|    \\/     M anipulation  |                                                 |
\*---------------------------------------------------------------------------*/
FoamFile
{
    version     2.0;
    format      ascii;
    class       volScalarField;
    location    "0.5";
    object      p;
}
// * * * * * * * * * * * * * * * * * * * * * * * * * * * * * * * * * * * * * //

dimensions      [0 2 -2 0 0 0 0];

internalField   nonuniform List<scalar> 
21600
(
0.015247278
0.010004096
0.0045792218
0.0011913424
5.2177398e-05
0.00018660776
0.00059717961
0.00089438112
0.0010414611
0.0010997282
0.0011223703
0.0011347562
0.0011445976
0.0011528098
0.0011589298
0.0011627628
0.0011645014
0.0011645069
0.0011631398
0.0011606943
0.0011573896
0.0011533878
0.0011488082
0.0011437441
0.0011382682
0.0011324415
0.0011263132
0.0011199262
0.0011133149
0.0011065104
0.0010995369
0.0010924173
0.0010851688
0.0010778083
0.0010703482
0.0010628013
0.0010551764
0.0010474836
0.0010397293
0.0010319212
0.0010240642
0.0010161645
0.0010082254
0.0010002523
0.00099224723
0.00098421473
0.00097615618
0.0009680754
0.00095997321
0.00095185294
0.00094371493
0.0009355621
0.00092739441
0.00091921454
0.0009110221
0.00090281958
0.00089460633
0.00088638464
0.0008781537
0.00086991566
0.00086166957
0.00085341746
0.00084515826
0.00083689388
0.00082862316
0.00082034796
0.00081206706
0.00080378224
0.00079549224
0.00078719875
0.00077890051
0.00077059916
0.00076229345
0.00075398492
0.00074567235
0.00073735721
0.00072903834
0.00072071715
0.00071239252
0.00070406575
0.00069573584
0.00068740401
0.00067906935
0.00067073298
0.00066239411
0.00065405374
0.00064571125
0.00063736753
0.00062902211
0.00062067574
0.00061232814
0.00060397993
0.00059563105
0.00058728194
0.00057893278
0.00057058384
0.0005622356
0.00055388809
0.00054554214
0.00053719752
0.00052885537
0.00052051529
0.00051217878
0.00050384508
0.00049551627
0.00048719113
0.0004788723
0.00047055818
0.00046225196
0.00045395159
0.00044566092
0.0004373774
0.0004291056
0.00042084236
0.00041259311
0.00040435398
0.00039613138
0.00038792061
0.00037972919
0.00037155146
0.00036339621
0.00035525667
0.00034714307
0.00033904737
0.0003309814
0.0003229357
0.00031492388
0.00030693487
0.00029898426
0.00029105919
0.00028317741
0.00027532408
0.00026751936
0.00025974613
0.00025202728
0.00024434314
0.00023671955
0.00022913406
0.00022161573
0.00021413905
0.00020673657
0.00019937941
0.00019210398
0.00018487763
0.00017774099
0.00017065728
0.00016367175
0.00015674305
0.00014992143
0.00014316058
0.0001365162
0.00012993649
0.00012348309
0.00011709822
0.00011084997
0.00010467397
9.8645378e-05
9.2692585e-05
8.6898442e-05
8.1183414e-05
7.5638751e-05
7.0176205e-05
6.4896226e-05
5.9700979e-05
5.4700995e-05
4.9787894e-05
4.5083279e-05
4.0467144e-05
3.6073292e-05
3.1768868e-05
2.7701166e-05
2.3723088e-05
1.9996893e-05
1.6359679e-05
1.2990348e-05
9.7084102e-06
6.7113566e-06
3.7990559e-06
1.1898728e-06
-1.3383745e-06
-3.5437293e-06
-5.6732439e-06
-7.4581563e-06
-9.1737275e-06
-1.0520465e-05
-1.1805939e-05
-1.2695039e-05
-1.3532747e-05
-1.3942085e-05
-1.4312118e-05
-1.4215586e-05
-1.4094808e-05
-1.3460326e-05
-1.2821259e-05
-1.1607509e-05
-1.0417543e-05
-8.5678485e-06
-6.7924742e-06
-4.2175587e-06
-1.8702239e-06
0.014000059
0.0098098534
0.0047149283
0.0013948861
0.00020832198
0.00028349953
0.00065862086
0.00093456044
0.0010693008
0.0011209374
0.0011399366
0.0011499764
0.0011580139
0.001164731
0.0011695976
0.0011723794
0.0011732311
0.0011724812
0.0011704638
0.0011674529
0.0011636526
0.0011592132
0.0011542449
0.0011488337
0.0011430462
0.0011369387
0.001130556
0.0011239378
0.0011171156
0.0011101181
0.0011029675
0.0010956847
0.0010882857
0.0010807858
0.0010731964
0.0010655292
0.0010577924
0.0010499951
0.001042143
0.0010342433
0.0010263003
0.0010183198
0.0010103047
0.0010022599
0.00099418715
0.00098609065
0.00097797155
0.00096983337
0.00096167676
0.00095350477
0.0009453176
0.00093711798
0.00092890573
0.00092068334
0.00091245035
0.00090420907
0.00089595878
0.00088770164
0.00087943676
0.00087116617
0.00086288889
0.00085460682
0.00084631887
0.00083802684
0.00082972956
0.00082142876
0.00081312325
0.00080481469
0.00079650182
0.00078818625
0.00077986672
0.0007715448
0.00076321923
0.00075489148
0.00074656034
0.00073822721
0.00072989096
0.00072155289
0.00071321194
0.00070486932
0.00069652407
0.00068817731
0.00067982821
0.00067147777
0.00066312526
0.0006547716
0.00064641622
0.00063805993
0.00062970231
0.00062134402
0.00061298485
0.00060462532
0.00059626546
0.0005879056
0.00057954599
0.0005711868
0.00056282862
0.00055447133
0.00054611589
0.00053776193
0.00052941071
0.00052106171
0.00051271651
0.00050437427
0.00049603713
0.00048770379
0.00047937698
0.00047105497
0.00046274108
0.00045443312
0.00044613507
0.00043784424
0.00042956531
0.00042129502
0.0004130389
0.00040479295
0.0003965637
0.00038834633
0.00038014849
0.00037196436
0.00036380288
0.00035565713
0.00034753748
0.00033943574
0.00033136389
0.00032331232
0.00031529478
0.00030730005
0.00029934387
0.00029141321
0.000283526
0.00027566721
0.00026785719
0.00026007864
0.00025235459
0.00024466524
0.00023703657
0.00022944598
0.00022192267
0.00021444099
0.00020703364
0.00019967157
0.00019239135
0.00018516019
0.00017801886
0.00017093044
0.00016394028
0.00015700696
0.00015018081
0.00014341542
0.00013676657
0.00013018241
0.00012372463
0.00011733539
0.00011108284
0.00010490256
9.8869734e-05
9.2912761e-05
8.7114455e-05
8.1395341e-05
7.5846594e-05
7.0380058e-05
6.5096076e-05
5.989694e-05
5.4893036e-05
4.9976153e-05
4.5267709e-05
4.0647903e-05
3.6250318e-05
3.194234e-05
2.7871009e-05
2.3889501e-05
2.015979e-05
1.651928e-05
1.3146556e-05
9.8614638e-06
6.8611515e-06
3.9458481e-06
1.3335556e-06
-1.1975328e-06
-3.4058308e-06
-5.5380134e-06
-7.3256827e-06
-9.0437378e-06
-1.0393021e-05
-1.1680783e-05
-1.2572183e-05
-1.3411975e-05
-1.3823324e-05
-1.4195233e-05
-1.4100352e-05
-1.3981256e-05
-1.3347949e-05
-1.2710428e-05
-1.1497159e-05
-1.0308794e-05
-8.4583469e-06
-6.6852455e-06
-4.1068301e-06
-1.765806e-06
0.01300404
0.0096478646
0.0049801966
0.0017315554
0.00043778924
0.0004070354
0.00072750166
0.00098042974
0.0011032591
0.0011471187
0.0011608767
0.0011673459
0.0011727727
0.0011774427
0.0011806564
0.0011820987
0.0011818626
0.0011802217
0.0011774643
0.0011738301
0.0011694978
0.0011645993
0.0011592309
0.0011534683
0.00114737
0.0011409857
0.0011343553
0.0011275143
0.0011204908
0.0011133105
0.0011059933
0.0010985583
0.0010910194
0.0010833909
0.0010756828
0.0010679058
0.0010600671
0.001052175
0.0010442346
0.0010362525
0.0010282324
0.0010201796
0.0010120966
0.001003988
0.00099585515
0.00098770197
0.00097952934
0.00097134053
0.00096313598
0.00095491854
0.00094668824
0.00093844763
0.00093019639
0.00092193687
0.0009136685
0.00090539346
0.00089711093
0.00088882298
0.00088052863
0.00087222984
0.00086392553
0.00085561756
0.00084730475
0.00083898884
0.00083066862
0.00082234578
0.00081401905
0.00080569006
0.00079735752
0.00078902298
0.00078068517
0.0007723456
0.00076400299
0.00075565878
0.00074731173
0.00073896321
0.00073061207
0.00072225959
0.00071390469
0.00070554854
0.00069719018
0.0006888307
0.00068046926
0.00067210684
0.0006637427
0.00065537773
0.00064701138
0.00063864439
0.00063027639
0.00062190797
0.00061353897
0.00060516984
0.00059680064
0.00058843165
0.00058006317
0.00057169529
0.00056332866
0.00055496309
0.0005465996
0.00053823774
0.00052987883
0.00052152227
0.00051316972
0.00050482023
0.00049647605
0.00048813576
0.0004798022
0.00047147351
0.00046315313
0.00045483874
0.00044653445
0.00043823742
0.00042995249
0.00042167619
0.00041341428
0.00040516253
0.0003969277
0.0003887047
0.00038050145
0.00037231185
0.00036414515
0.00035599408
0.00034786936
0.00033976244
0.00033168567
0.00032362904
0.00031560673
0.00030760705
0.00029964623
0.00029171072
0.000283819
0.00027595545
0.00026814103
0.00026035781
0.00025262947
0.00024493553
0.00023730267
0.00022970756
0.00022218017
0.00021469402
0.00020728268
0.00019991621
0.0001926321
0.00018539658
0.00017825145
0.00017115872
0.00016416486
0.00015722726
0.00015039749
0.00014362787
0.0001369755
0.00013038715
0.00012392593
0.00011753253
0.00011127663
0.00010509223
9.9056159e-05
9.3095082e-05
8.7293639e-05
8.1570448e-05
7.6018673e-05
7.0548085e-05
6.5261192e-05
6.0058027e-05
5.505134e-05
5.0130448e-05
4.5419358e-05
4.0795563e-05
3.639548e-05
3.208353e-05
2.8009863e-05
2.4024398e-05
2.0292529e-05
1.6648071e-05
1.3273386e-05
9.9843497e-06
6.9822919e-06
4.0630428e-06
1.4492439e-06
-1.0858024e-06
-3.295341e-06
-5.431506e-06
-7.2201202e-06
-8.9421994e-06
-1.0292095e-05
-1.1583947e-05
-1.2475584e-05
-1.3319567e-05
-1.3730716e-05
-1.4106971e-05
-1.4011375e-05
-1.3896866e-05
-1.32622e-05
-1.2629659e-05
-1.1414163e-05
-1.0231453e-05
-8.3775388e-06
-6.6109601e-06
-4.0320501e-06
-1.7041291e-06
0.012156133
0.0094602123
0.0052557294
0.0021126246
0.00072265287
0.00057085418
0.00082601209
0.0010496439
0.0011552235
0.0011863127
0.0011910022
0.0011914284
0.0011928073
0.0011945436
0.0011954554
0.0011950242
0.0011932478
0.0011903329
0.0011865125
0.0011819824
0.0011768874
0.0011713343
0.0011654
0.0011591448
0.0011526153
0.0011458513
0.0011388848
0.0011317446
0.0011244535
0.0011170328
0.0011094988
0.0011018673
0.0010941498
0.0010863583
0.001078501
0.001070587
0.0010626222
0.0010546136
0.0010465654
0.0010384833
0.0010303702
0.0010222308
0.0010140669
0.0010058826
0.0009976789
0.00098945919
0.00098122398
0.00097297628
0.00096471617
0.00095644628
0.00094816638
0.00093987882
0.00093158307
0.00092328132
0.00091497282
0.00090665962
0.00089834076
0.00089001819
0.00088169081
0.00087336049
0.00086502604
0.00085668926
0.00084834886
0.00084000653
0.00083166098
0.00082331383
0.00081496377
0.00080661237
0.00079825827
0.000789903
0.00078154524
0.00077318643
0.0007648253
0.00075646322
0.00074809893
0.00073973376
0.00073136654
0.00072299851
0.00071462859
0.00070625789
0.00069788545
0.00068951234
0.0006811377
0.00067276246
0.00066438591
0.00065600888
0.00064763084
0.00063925248
0.00063087345
0.00062249429
0.00061411486
0.00060573556
0.0005973565
0.00058897787
0.00058060003
0.00057222301
0.00056384749
0.00055547322
0.00054710127
0.00053873111
0.00053036414
0.00052199967
0.00051363943
0.00050528237
0.00049693084
0.0004885833
0.0004802427
0.00047190706
0.00046357993
0.00045525886
0.00044694809
0.00043864462
0.00043035346
0.00042207096
0.00041380305
0.0004055453
0.00039730468
0.00038907587
0.00038086704
0.0003726718
0.00036449969
0.00035634314
0.00034821319
0.00034010093
0.0003320191
0.00032395726
0.00031593003
0.00030792525
0.00029995965
0.00029201915
0.00028412278
0.00027625433
0.00026843539
0.00026064734
0.0002529146
0.00024521592
0.00023757876
0.00022997896
0.00022244738
0.0002149566
0.00020754118
0.00020017012
0.00019288202
0.00018564197
0.00017849293
0.0001713957
0.00016439802
0.00015745596
0.00015062246
0.0001438484
0.00013719239
0.00013059963
0.00012413486
0.00011773707
0.00011147771
0.00010528893
9.9249492e-05
9.3284059e-05
8.7479345e-05
8.1751811e-05
7.6196869e-05
7.0721948e-05
6.5431999e-05
6.0224508e-05
5.5214885e-05
5.0289671e-05
4.5575774e-05
4.0947657e-05
3.6544909e-05
3.2228633e-05
2.8152455e-05
2.4162654e-05
2.0428444e-05
1.6779632e-05
1.3402791e-05
1.0109376e-05
7.1053664e-06
4.1816999e-06
1.5661746e-06
-9.7334317e-07
-3.1843611e-06
-5.3250713e-06
-7.1148938e-06
-8.8416195e-06
-1.0192424e-05
-1.1489062e-05
-1.2381276e-05
-1.3230236e-05
-1.3641592e-05
-1.4023096e-05
-1.3927278e-05
-1.3818413e-05
-1.3183009e-05
-1.2556699e-05
-1.1339821e-05
-1.0164142e-05
-8.3083821e-06
-6.5491393e-06
-3.9777106e-06
-1.6645387e-06
0.011384557
0.0092161195
0.0054874037
0.0024833303
0.0010198653
0.00075153115
0.00093917626
0.0011331074
0.0012215023
0.0012383451
0.0012316373
0.0012240455
0.0012199906
0.0012178013
0.0012156188
0.0012126353
0.0012087336
0.0012040487
0.0011987483
0.0011929704
0.0011868134
0.0011803482
0.0011736244
0.0011666813
0.0011595489
0.0011522536
0.0011448165
0.0011372576
0.0011295924
0.0011218361
0.0011139998
0.0011060952
0.0010981301
0.0010901134
0.0010820507
0.0010739488
0.0010658116
0.0010576446
0.0010494504
0.0010412334
0.0010329954
0.0010247402
0.0010164686
0.001008184
0.00099988671
0.00099157952
0.0009832624
0.00097493789
0.00096660564
0.00095826791
0.0009499241
0.00094157627
0.00093322358
0.00092486803
0.00091650856
0.00090814709
0.0008997824
0.00089141632
0.00088304755
0.00087467786
0.0008663059
0.00085793335
0.00084955881
0.00084118389
0.00083280716
0.0008244302
0.00081605158
0.00080767283
0.00079929249
0.00079091206
0.00078253011
0.00077414809
0.00076576463
0.00075738106
0.00074899609
0.000740611
0.00073222459
0.00072383804
0.00071545025
0.0007070623
0.00069867321
0.000690284
0.00068189379
0.00067350349
0.00066511236
0.00065672122
0.0006483295
0.00063993789
0.000631546
0.00062315437
0.00061476285
0.00060637179
0.00059798132
0.00058959159
0.00058120296
0.00057281545
0.00056442972
0.00055604551
0.00054766388
0.00053928429
0.00053090813
0.00052253469
0.00051416571
0.0005058001
0.00049744025
0.00048908455
0.00048073602
0.00047239258
0.00046405787
0.00045572933
0.0004474113
0.00043910066
0.00043080255
0.00042251315
0.00041423857
0.00040597417
0.00039772714
0.00038949192
0.00038127691
0.00037307547
0.00036489741
0.00035673484
0.00034859914
0.00034048104
0.00033239365
0.00032432611
0.0003162935
0.00030828317
0.00030031235
0.00029236642
0.00028446498
0.00027659121
0.00026876733
0.00026097406
0.00025323652
0.00024553269
0.00023789085
0.00023028599
0.00022274983
0.00021525405
0.00020783416
0.00020045816
0.00019316567
0.00018592072
0.0001787674
0.0001716653
0.00016466342
0.00015771654
0.00015087892
0.00014410006
0.00013744001
0.00013084246
0.00012437372
0.00011797116
0.00011170792
0.00010551438
9.9471136e-05
9.3500947e-05
8.7692505e-05
8.1960216e-05
7.640163e-05
7.0921949e-05
6.5628445e-05
6.0416186e-05
5.5403101e-05
5.0473106e-05
4.5755848e-05
4.1122932e-05
3.6716934e-05
3.2395833e-05
2.8316525e-05
2.4321866e-05
2.0584658e-05
1.6930945e-05
1.3551249e-05
1.0252877e-05
7.2461699e-06
4.3174755e-06
1.6994221e-06
-8.4521615e-07
-3.0585793e-06
-5.2045292e-06
-6.9965011e-06
-8.7286237e-06
-1.0081369e-05
-1.1383613e-05
-1.2277547e-05
-1.3132399e-05
-1.3545236e-05
-1.3933035e-05
-1.3838437e-05
-1.3736441e-05
-1.3101973e-05
-1.2483332e-05
-1.1267162e-05
-1.0099983e-05
-8.245816e-06
-6.4947847e-06
-3.9401066e-06
-1.6432775e-06
0.010686602
0.0089247636
0.0056671389
0.0028311347
0.0013162991
0.00093663125
0.0010545857
0.0012192198
0.001293052
0.0012972912
0.0012791412
0.0012628177
0.0012526859
0.0012461224
0.0012404805
0.0012345853
0.0012281978
0.0012213987
0.0012143028
0.0012069927
0.0011995179
0.0011919107
0.0011841906
0.0011763738
0.0011684709
0.0011604933
0.0011524492
0.0011443481
0.0011361965
0.0011280026
0.0011197711
0.0011115085
0.0011032181
0.0010949049
0.0010865714
0.0010782214
0.0010698564
0.0010614799
0.0010530924
0.0010446969
0.0010362936
0.0010278851
0.0010194711
0.0010110539
0.001002633
0.00099421045
0.00098578544
0.00097735991
0.00096893291
0.00096050622
0.00095207874
0.00094365217
0.00093522524
0.00092679965
0.000918374
0.00090994994
0.00090152598
0.00089310374
0.00088468167
0.00087626139
0.00086784133
0.00085942303
0.0008510049
0.00084258846
0.00083417212
0.00082575736
0.00081734262
0.00080892935
0.00080051598
0.00079210392
0.00078369168
0.00077528062
0.00076686929
0.00075845899
0.00075004832
0.00074163855
0.00073322839
0.00072481901
0.00071640922
0.0007080001
0.00069959059
0.0006911817
0.00068277249
0.00067436387
0.00066595504
0.0006575468
0.00064913855
0.00064073096
0.00063232361
0.00062391701
0.00061551099
0.00060710591
0.00059870182
0.0005902989
0.00058189748
0.00057349755
0.00056509977
0.00055670384
0.00054831084
0.0005399202
0.00053153329
0.00052314939
0.00051477024
0.00050639472
0.00049802523
0.00048966013
0.00048130243
0.00047295005
0.00046460664
0.00045626958
0.00044794326
0.00043962449
0.00043131847
0.0004230213
0.00041473916
0.00040646731
0.00039821305
0.00038997067
0.00038174874
0.00037354041
0.0003653557
0.00035718649
0.0003490444
0.00034091987
0.00033282632
0.00032475256
0.000316714
0.00030869763
0.00030072106
0.00029276924
0.00028486224
0.00027698272
0.00026915345
0.00026135454
0.00025361176
0.0002459024
0.00023825546
0.00023064515
0.00022310402
0.00021560288
0.00020817811
0.00020079681
0.00019349956
0.00018624936
0.00017909135
0.00017198405
0.00016497757
0.0001580255
0.00015118335
0.00014439933
0.00013773481
0.00013113211
0.00012465897
0.00011825126
0.00011198366
0.00010578497
9.9737415e-05
9.3762051e-05
8.7949351e-05
8.2211862e-05
7.6649063e-05
7.1164152e-05
6.5866479e-05
6.064895e-05
5.5631744e-05
5.069643e-05
4.59751e-05
4.1336807e-05
3.6926789e-05
3.2600242e-05
2.8516972e-05
2.4516786e-05
2.0775677e-05
1.7116342e-05
1.3732812e-05
1.0428706e-05
7.4182328e-06
4.4836698e-06
1.8619236e-06
-6.8874725e-07
-2.9057307e-06
-5.0579143e-06
-6.8534367e-06
-8.5920483e-06
-9.9482799e-06
-1.1257343e-05
-1.2154711e-05
-1.3016825e-05
-1.3433058e-05
-1.3828725e-05
-1.3737521e-05
-1.3644222e-05
-1.3013247e-05
-1.2404332e-05
-1.1192186e-05
-1.0035454e-05
-8.1882145e-06
-6.4469851e-06
-3.9188247e-06
-1.6410738e-06
0.010065863
0.0086082685
0.0057962275
0.0031524041
0.0016092076
0.001124292
0.0011698119
0.0013043856
0.0013659125
0.0013597837
0.001330796
0.0013053426
0.0012886503
0.0012774656
0.0012682739
0.0012594027
0.0012504394
0.0012414144
0.0012324041
0.0012234432
0.0012145344
0.0012056708
0.0011968427
0.0011880433
0.0011792654
0.0011705053
0.0011617587
0.0011530249
0.0011443017
0.0011355895
0.001126887
0.001118195
0.0011095124
0.00110084
0.0010921766
0.0010835232
0.0010748785
0.0010662437
0.0010576171
0.0010490001
0.0010403911
0.0010317914
0.0010231992
0.0010146158
0.0010060396
0.00099747184
0.00098891078
0.00098035769
0.00097181088
0.00096327157
0.00095473806
0.0009462116
0.00093769044
0.00092917589
0.00092066614
0.00091216254
0.00090366323
0.0008951696
0.0008866798
0.00087819522
0.00086971404
0.00086123763
0.00085276419
0.00084429508
0.00083582851
0.00082736587
0.0008189054
0.00081044847
0.00080199334
0.00079354138
0.00078509092
0.0007766433
0.0007681969
0.000759753
0.00075131009
0.00074286939
0.00073442951
0.0007259916
0.00071755435
0.00070911885
0.00070068393
0.00069225061
0.00068381785
0.00067538655
0.00066695584
0.00065852652
0.00065009791
0.00064167069
0.00063324436
0.00062481946
0.00061639573
0.00060797354
0.00059955289
0.00059113398
0.00058271704
0.00057430213
0.0005658898
0.00055747982
0.00054907316
0.00054066931
0.00053226956
0.00052387322
0.00051548198
0.00050709474
0.00049871386
0.0004903377
0.00048196923
0.0004736064
0.00046525281
0.00045690585
0.0004485699
0.00044024175
0.00043192659
0.0004236205
0.00041532969
0.00040704935
0.00039878684
0.00039053636
0.00038230657
0.00037409051
0.0003658983
0.00035772168
0.00034957242
0.00034144077
0.00033334037
0.00032525974
0.00031721461
0.00030919161
0.00030120872
0.00029325048
0.00028533739
0.00027745164
0.00026961647
0.00026181151
0.00025406302
0.00024634773
0.00023869525
0.00023107914
0.0002235326
0.00021602575
0.00020859571
0.00020120878
0.00019390636
0.00018665059
0.0001794875
0.00017237467
0.00016536319
0.00015840562
0.00015155852
0.000144769
0.00013809957
0.00013149137
0.00012501335
0.00011860012
0.00011232765
0.0001061234
0.00010007099
9.4090017e-05
8.8272448e-05
8.2529289e-05
7.6961606e-05
7.1470946e-05
6.6168367e-05
6.0944995e-05
5.5922855e-05
5.098159e-05
4.625529e-05
4.1610923e-05
3.7195896e-05
3.2863134e-05
2.8774808e-05
2.476825e-05
2.1022032e-05
1.7356146e-05
1.3967446e-05
1.0656585e-05
7.6408733e-06
4.6993198e-06
2.0722535e-06
-4.8568289e-07
-2.7080865e-06
-4.867863e-06
-6.6689283e-06
-8.4155352e-06
-9.7774653e-06
-1.1095029e-05
-1.1998298e-05
-1.286957e-05
-1.3291978e-05
-1.3697663e-05
-1.3613056e-05
-1.353086e-05
-1.2907259e-05
-1.2310602e-05
-1.1107629e-05
-9.9636241e-06
-8.1310036e-06
-6.4021208e-06
-3.9104152e-06
-1.6549864e-06
0.0095204371
0.0082845051
0.0058762153
0.0034430647
0.0018960359
0.0013147297
0.0012853537
0.0013879428
0.0014385511
0.0014243197
0.0013854382
0.0013505861
0.0013267803
0.0013106462
0.0012978126
0.0012859612
0.0012744128
0.0012631303
0.0012521644
0.0012415125
0.001231132
0.0012209757
0.0012110022
0.0012011816
0.0011914886
0.0011819051
0.0011724148
0.0011630067
0.0011536699
0.001144398
0.0011351832
0.0011260212
0.0011169064
0.0011078357
0.0010988044
0.0010898106
0.0010808504
0.0010719225
0.0010630234
0.0010541525
0.0010453067
0.0010364856
0.0010276864
0.0010189091
0.0010101511
0.0010014126
0.00099269104
0.00098398693
0.00097529784
0.00096662439
0.00095796424
0.00094931815
0.00094068385
0.00093206223
0.00092345104
0.00091485129
0.00090626074
0.00089768048
0.00088910833
0.00088054547
0.00087198977
0.00086344243
0.00085490135
0.00084636777
0.00083783967
0.00082931831
0.00082080172
0.00081229116
0.00080378471
0.00079528367
0.0007867862
0.00077829355
0.00076980398
0.00076131871
0.00075283608
0.00074435729
0.00073588081
0.00072740775
0.00071893671
0.00071046873
0.00070200256
0.00069353919
0.00068507748
0.00067661832
0.00066816075
0.00065970558
0.00065125203
0.00064280077
0.00063435123
0.00062590397
0.00061745862
0.00060901559
0.00060057478
0.00059213642
0.00058370066
0.00057526759
0.00056683767
0.00055841071
0.00054998758
0.00054156784
0.00053315267
0.00052474144
0.00051633575
0.00050793454
0.00049954008
0.0004911508
0.00048276959
0.00047439442
0.00046602884
0.00045767028
0.00044932303
0.00044098394
0.00043265814
0.00042434173
0.00041604087
0.00040775078
0.00039947878
0.00039121906
0.0003829803
0.00037475546
0.00036655475
0.00035836979
0.00035021247
0.00034207287
0.00033396479
0.00032587658
0.00031782413
0.00030979386
0.00030180399
0.00029383876
0.00028591898
0.00027802649
0.0002701849
0.00026237342
0.00025461874
0.00024689713
0.00023923865
0.00023161637
0.00022406402
0.00021655113
0.00020911541
0.00020172255
0.00019441457
0.00018715294
0.00017998438
0.00017286574
0.00016584884
0.00015888549
0.00015203301
0.00014523771
0.00013856292
0.0001319489
0.0001254655
0.0001190464
0.00011276853
0.00010655833
0.00010050044
9.4513426e-05
8.8690312e-05
8.2940979e-05
7.7367652e-05
7.1870671e-05
6.6562328e-05
6.1332466e-05
5.6304422e-05
5.1356473e-05
4.6624113e-05
4.1972843e-05
3.7551578e-05
3.3211671e-05
2.911691e-05
2.5102936e-05
2.1350064e-05
1.7676463e-05
1.4280865e-05
1.0961955e-05
7.9390724e-06
4.9890933e-06
2.3545509e-06
-2.1224045e-07
-2.4424689e-06
-4.6115994e-06
-6.420891e-06
-8.1774472e-06
-9.5480787e-06
-1.0876316e-05
-1.1788868e-05
-1.2671713e-05
-1.3104164e-05
-1.3522526e-05
-1.3449069e-05
-1.338082e-05
-1.2770219e-05
-1.2188654e-05
-1.1002227e-05
-9.8736239e-06
-8.0656244e-06
-6.3529461e-06
-3.9077653e-06
-1.6783478e-06
0.0090424211
0.0079663005
0.0059099941
0.0036987913
0.0021729471
0.0015079835
0.0014023815
0.0014700112
0.0015100544
0.0014898446
0.0014424231
0.0013981929
0.0013667344
0.0013452204
0.0013285771
0.0013137209
0.0012995832
0.0012860177
0.0012730569
0.001260676
0.0012487937
0.0012373211
0.0012261828
0.0012153231
0.0012046981
0.0011942748
0.0011840246
0.0011739262
0.0011639601
0.0011541124
0.0011443691
0.0011347207
0.0011251569
0.0011156708
0.0011062545
0.0010969029
0.0010876097
0.0010783712
0.001069182
0.0010600397
0.0010509395
0.0010418799
0.0010328565
0.0010238684
0.0010149118
0.0010059861
0.00099708796
0.00098821698
0.00097937011
0.00097054731
0.0009617457
0.00095296549
0.00094420393
0.00093546147
0.00092673545
0.00091802649
0.000909332
0.00090065277
0.00089198631
0.00088333353
0.00087469203
0.00086606278
0.00085744346
0.0008488351
0.00084023549
0.00083164573
0.00082306365
0.00081449038
0.00080592384
0.00079736521
0.00078881249
0.00078026687
0.00077172643
0.00076319232
0.00075466277
0.00074613892
0.0007376191
0.00072910439
0.00072059325
0.00071208672
0.00070358342
0.00069508432
0.00068658817
0.00067809586
0.00066960632
0.00066112036
0.0006526371
0.00064415721
0.00063568003
0.00062720612
0.00061873503
0.00061026719
0.00060180239
0.0005933409
0.00058488276
0.00057642812
0.00056797732
0.00055953021
0.00055108758
0.00054264903
0.00053421563
0.00052578681
0.00051736408
0.00050894643
0.00050053602
0.00049213136
0.00048373521
0.00047534565
0.00046696608
0.00045859402
0.00045023367
0.00044188192
0.00043354383
0.00042521554
0.00041690316
0.0004086019
0.00040031907
0.00039204886
0.00038379991
0.00037556519
0.0003673549
0.00035916061
0.00035099426
0.00034284585
0.00033472925
0.00032663269
0.00031857218
0.00031053398
0.00030253647
0.00029456369
0.00028663664
0.00027873693
0.00027088841
0.00026306999
0.00025530867
0.00024758038
0.00023991551
0.00023228676
0.00022472824
0.00021720904
0.00020976732
0.00020236829
0.00019505444
0.00018778673
0.0001806124
0.00017348774
0.00016646511
0.00015949575
0.00015263756
0.00014583623
0.0001391557
0.0001325356
0.0001260464
0.00011962113
0.00011333735
0.00010712084
0.00010105692
9.5063429e-05
8.9234095e-05
8.347809e-05
7.789833e-05
7.2394441e-05
6.7079414e-05
6.1842372e-05
5.6807359e-05
5.1851923e-05
4.7112269e-05
4.245317e-05
3.8024249e-05
3.3676133e-05
2.9573314e-05
2.5550716e-05
2.1789338e-05
1.8106655e-05
1.4702058e-05
1.1373563e-05
8.3411315e-06
5.3810089e-06
2.7363065e-06
1.587467e-07
-2.0823315e-06
-4.262941e-06
-6.083869e-06
-7.8527269e-06
-9.2359185e-06
-1.0577422e-05
-1.1503662e-05
-1.240091e-05
-1.2848521e-05
-1.3282585e-05
-1.3226394e-05
-1.3175208e-05
-1.2585168e-05
-1.2021788e-05
-1.0861488e-05
-9.7516564e-06
-7.9801883e-06
-6.2890799e-06
-3.9010641e-06
-1.7020278e-06
0.0086212517
0.0076622549
0.0059034577
0.003916556
0.0024358479
0.0017035782
0.0015222181
0.0015511901
0.001579848
0.0015553995
0.0015011777
0.0014480151
0.0014085003
0.0013811118
0.0013604015
0.0013424751
0.0013257397
0.001309867
0.0012948652
0.0012807043
0.0012672764
0.0012544536
0.0012421237
0.0012302029
0.0012186267
0.0012073465
0.0011963215
0.0011855197
0.0011749125
0.0011644783
0.0011541968
0.0011440528
0.0011340315
0.0011241218
0.0011143124
0.0011045952
0.0010949611
0.0010854042
0.0010759172
0.0010664957
0.0010571334
0.0010478272
0.0010385718
0.0010293648
0.0010202017
0.0010110807
0.0010019977
0.00099295164
0.0009839388
0.00097495844
0.00096600717
0.00095708464
0.00094818768
0.00093931626
0.00093046735
0.00092164118
0.00091283484
0.00090404878
0.00089528026
0.00088652989
0.00087779504
0.00086907643
0.00086037153
0.00085168118
0.00084300298
0.00083433783
0.00082568343
0.00081704073
0.00080840753
0.00079978485
0.0007911706
0.0007825658
0.00077396846
0.00076537962
0.0007567974
0.00074822283
0.00073965419
0.00073109245
0.00072253601
0.00071398582
0.00070544045
0.00069690077
0.0006883655
0.00067983545
0.00067130951
0.00066278843
0.00065427127
0.00064575867
0.0006372499
0.0006287455
0.00062024497
0.0006117487
0.00060325643
0.00059476842
0.00058628467
0.00057780528
0.00056933056
0.00056086036
0.0005523954
0.00054393529
0.00053548105
0.0005270321
0.0005185899
0.00051015345
0.00050172486
0.00049330265
0.00048488952
0.00047648357
0.00046808814
0.00045970077
0.00045132561
0.00044295956
0.00043460764
0.00042626599
0.00041794069
0.00040962694
0.00040133205
0.00039305015
0.00038478993
0.00037654428
0.00036832345
0.00036011892
0.00035194271
0.0003437847
0.00033565885
0.00032755327
0.00031948409
0.00031143739
0.00030343172
0.00029545092
0.00028751619
0.00027960887
0.00027175308
0.00026392743
0.00025615919
0.00024842399
0.00024075252
0.00023311712
0.00022555224
0.00021802662
0.00021057875
0.00020317346
0.0001958536
0.00018857974
0.0001813995
0.00017426875
0.00016724026
0.00016026482
0.00015340075
0.00014659331
0.00013990682
0.00013328051
0.00012678523
0.00012035361
0.00011406356
0.00010784051
0.00010177008
9.5769799e-05
8.9933662e-05
8.4170571e-05
7.8583652e-05
7.3072331e-05
6.7749731e-05
6.250486e-05
5.7461801e-05
5.2498092e-05
4.7749856e-05
4.3081991e-05
3.8643888e-05
3.4286464e-05
3.0173795e-05
2.6141296e-05
2.2369329e-05
1.8676098e-05
1.5260094e-05
1.1920344e-05
8.8756e-06
5.9034471e-06
3.2454239e-06
6.5498034e-07
-1.6005531e-06
-3.7949976e-06
-5.631676e-06
-7.4154373e-06
-8.8159035e-06
-1.0173513e-05
-1.1118896e-05
-1.2033594e-05
-1.250278e-05
-1.2955738e-05
-1.2924504e-05
-1.2893656e-05
-1.2333546e-05
-1.1791803e-05
-1.0669023e-05
-9.5823358e-06
-7.8606995e-06
-6.1979568e-06
-3.8788235e-06
-1.7154682e-06
0.0082463129
0.0073774073
0.0058648212
0.0040953917
0.0026809032
0.0019002174
0.0016459761
0.0016324674
0.0016477304
0.0016201283
0.0015610611
0.001499889
0.0014521633
0.0014184
0.0013932746
0.0013721545
0.0013528038
0.0013346096
0.0013175256
0.0013015284
0.0012865004
0.0012722821
0.0012587245
0.0012457126
0.0012331592
0.0012209992
0.0012091788
0.0011976551
0.0011863908
0.001175356
0.0011645238
0.0011538732
0.0011433844
0.0011330423
0.0011228317
0.0011127415
0.00110276
0.0010928786
0.001083088
0.0010733819
0.0010637525
0.001054195
0.0010447029
0.0010352726
0.0010258985
0.0010165779
0.001007306
0.00099808076
0.00098889787
0.00097975586
0.0009706509
0.00096158198
0.00095254558
0.00094354111
0.00093456526
0.00092561778
0.00091669552
0.00090779853
0.00089892387
0.00089007179
0.00088123951
0.00087242741
0.00086363287
0.00085485641
0.00084609557
0.00083735096
0.00082862023
0.00081990406
0.00081120024
0.00080250953
0.00079382984
0.00078516197
0.00077650391
0.00076785649
0.00075921786
0.00075058885
0.00074196776
0.00073335535
0.00072475008
0.0007161527
0.00070756183
0.00069897818
0.00069040049
0.00068182942
0.00067326391
0.00066470455
0.00065615047
0.00064760212
0.00063905888
0.0006305211
0.00062198837
0.00061346092
0.00060493859
0.00059642146
0.00058790961
0.00057940302
0.00057090207
0.00056240645
0.00055391698
0.00054543314
0.00053695603
0.00052848492
0.00052002137
0.00051156425
0.00050311574
0.00049467425
0.00048624255
0.00047781861
0.00046940587
0.00046100175
0.00045261047
0.00044422881
0.00043586189
0.0004275057
0.00041916645
0.00041083917
0.00040253131