/*--------------------------------*- C++ -*----------------------------------*\
| =========                 |                                                 |
| \\      /  F ield         | OpenFOAM: The Open Source CFD Toolbox           |
|  \\    /   O peration     | Version:  5.x                                   |
|   \\  /    A nd           | Web:      www.OpenFOAM.org                      |
|    \\/     M anipulation  |                                                 |
\*---------------------------------------------------------------------------*/
FoamFile
{
    version     2.0;
    format      ascii;
    class       surfaceScalarField;
    location    "0.5";
    object      phi;
}
// * * * * * * * * * * * * * * * * * * * * * * * * * * * * * * * * * * * * * //

dimensions      [0 3 -1 0 0 0 0];

internalField   nonuniform List<scalar> 
42870
(
2.9770741e-08
9.9456401e-09
-3.9716381e-08
2.0561176e-08
9.2095652e-09
1.4207359e-08
6.3538167e-09
1.0639611e-08
3.5677483e-09
8.8229735e-09
1.8166376e-09
7.8253284e-09
9.976451e-10
7.1957567e-09
6.2957173e-10
6.7343694e-09
4.6138722e-10
6.3577748e-09
3.7659466e-10
6.0344935e-09
3.232813e-10
5.7526223e-09
2.8187118e-10
5.5057975e-09
2.4682482e-10
5.2885854e-09
2.1721212e-10
5.0959767e-09
1.926086e-10
4.9236816e-09
1.7229516e-10
4.7682558e-09
1.5542581e-10
4.6270144e-09
1.4124136e-10
4.4978667e-09
1.2914769e-10
4.3791555e-09
1.1871123e-10
4.26954e-09
1.0961549e-10
4.167913e-09
1.0162697e-10
4.0733488e-09
9.4564206e-11
3.9850636e-09
8.8285234e-11
3.9023904e-09
8.267318e-11
3.8247561e-09
7.7634301e-11
3.7516675e-09
7.3088637e-11
3.6826954e-09
6.8972117e-11
3.6174668e-09
6.5228504e-11
3.5556536e-09
6.1813217e-11
3.4969679e-09
5.8685693e-11
3.4411536e-09
5.5814345e-11
3.3879845e-09
5.3169144e-11
3.3372572e-09
5.0727301e-11
3.2887912e-09
4.846601e-11
3.2424226e-09
4.6368579e-11
3.1980053e-09
4.4417268e-11
3.1554056e-09
4.2599738e-11
3.1145037e-09
4.0901874e-11
3.0751892e-09
3.9314519e-11
3.037363e-09
3.7826158e-11
3.000933e-09
3.6430042e-11
2.9658164e-09
3.5116562e-11
2.9319356e-09
3.3880836e-11
2.8992209e-09
3.2714669e-11
2.8676063e-09
3.1614623e-11
2.8370327e-09
3.0573571e-11
2.8074435e-09
2.9589176e-11
2.7787884e-09
2.8655141e-11
2.7510184e-09
2.7769989e-11
2.7240903e-09
2.6928097e-11
2.6979616e-09
2.6128683e-11
2.672595e-09
2.5366643e-11
2.6479532e-09
2.4641753e-11
2.624004e-09
2.3949283e-11
2.6007145e-09
2.3289485e-11
2.5780565e-09
2.2657925e-11
2.5560013e-09
2.2055285e-11
2.5345239e-09
2.1477353e-11
2.5135988e-09
2.0925147e-11
2.4932041e-09
2.0394616e-11
2.4733171e-09
1.9887056e-11
2.4539185e-09
1.9398579e-11
2.4349878e-09
1.8930731e-11
2.416508e-09
1.8479758e-11
2.3984606e-09
1.8047375e-11
2.3808307e-09
1.7629925e-11
2.3636014e-09
1.7229281e-11
2.3467595e-09
1.6841894e-11
2.3302897e-09
1.6469786e-11
2.3141803e-09
1.6109481e-11
2.2984172e-09
1.5763091e-11
2.28299e-09
1.5427208e-11
2.2678859e-09
1.5104037e-11
2.2530957e-09
1.479027e-11
2.2386075e-09
1.4488162e-11
2.224413e-09
1.4194472e-11
2.2105016e-09
1.391147e-11
2.1968655e-09
1.363602e-11
2.1834951e-09
1.3370413e-11
2.1703835e-09
1.3111617e-11
2.1575216e-09
1.2861884e-11
2.1449034e-09
1.261828e-11
2.1325203e-09
1.238303e-11
2.120367e-09
1.2153338e-11
2.1084356e-09
1.1931371e-11
2.0967212e-09
1.1714447e-11
2.0852165e-09
1.1504637e-11
2.0739171e-09
1.1299415e-11
2.0628163e-09
1.1100771e-11
2.05191e-09
1.0906348e-11
2.041192e-09
1.071797e-11
2.0306586e-09
1.0533468e-11
2.020304e-09
1.0354538e-11
2.0101248e-09
1.0179196e-11
2.0001158e-09
1.0008973e-11
1.9902737e-09
9.8421273e-12
1.9805938e-09
9.6798974e-12
1.971073e-09
9.5208657e-12
1.9617069e-09
9.3660749e-12
1.9524926e-09
9.2142797e-12
1.9434263e-09
9.0663092e-12
1.934505e-09
8.9212822e-12
1.9257254e-09
8.7795773e-12
1.9170846e-09
8.640813e-12
1.9085797e-09
8.5049427e-12
1.9002077e-09
8.3719743e-12
1.8919662e-09
8.2414681e-12
1.8838523e-09
8.1139254e-12
1.875864e-09
7.9883729e-12
1.8679981e-09
7.8658732e-12
1.8602532e-09
7.7448773e-12
1.8526261e-09
7.6271114e-12
1.8451158e-09
7.5102989e-12
1.8377188e-09
7.3969664e-12
1.8304348e-09
7.2839992e-12
1.82326e-09
7.1748278e-12
1.8161946e-09
7.0653786e-12
1.8092345e-09
6.9601341e-12
1.8023806e-09
6.8538886e-12
1.7956282e-09
6.7523491e-12
1.7889792e-09
6.6490289e-12
1.7824282e-09
6.5510091e-12
1.7759779e-09
6.4503217e-12
1.7696222e-09
6.3556517e-12
1.7633649e-09
6.2573418e-12
1.757199e-09
6.165876e-12
1.7511293e-09
6.0696821e-12
1.745148e-09
5.9813023e-12
1.739261e-09
5.8869858e-12
1.7334595e-09
5.8015883e-12
1.7277505e-09
5.7089118e-12
1.7221241e-09
5.6264151e-12
1.716589e-09
5.5351507e-12
1.7111335e-09
5.4554984e-12
1.705768e-09
5.3654303e-12
1.7004795e-09
5.2885734e-12
1.69528e-09
5.1994903e-12
1.6901546e-09
5.1254171e-12
1.6851175e-09
5.0371089e-12
1.6801516e-09
4.9658089e-12
1.6752736e-09
4.8780846e-12
1.670464e-09
4.809583e-12
1.6657417e-09
4.7222399e-12
1.6610852e-09
4.6565736e-12
1.6565157e-09
4.569429e-12
1.6520091e-09
4.5066563e-12
1.6475896e-09
4.4195182e-12
1.6432298e-09
4.3597241e-12
1.6389574e-09
4.2724091e-12
1.6347417e-09
4.2156979e-12
1.6306137e-09
4.128025e-12
1.6265392e-09
4.0745234e-12
1.6225529e-09
3.9863078e-12
1.6186167e-09
3.9361764e-12
1.6147695e-09
3.847231e-12
1.6109688e-09
3.8006472e-12
1.607258e-09
3.7107907e-12
1.60359e-09
3.6679715e-12
1.600013e-09
3.5770038e-12
1.5964748e-09
3.5381976e-12
1.5930289e-09
3.4459236e-12
1.5896175e-09
3.4114119e-12
1.5862999e-09
3.3176199e-12
1.5830122e-09
3.2877281e-12
1.57982e-09
3.1921974e-12
1.5766527e-09
3.1672983e-12
1.5735829e-09
3.069784e-12
1.5705326e-09
3.0503036e-12
1.567582e-09
2.950545e-12
1.5646451e-09
2.9369656e-12
1.5618104e-09
2.8346724e-12
1.5589828e-09
2.8275486e-12
1.5562604e-09
2.7223992e-12
1.5535381e-09
2.722363e-12
1.5509241e-09
2.613996e-12
1.5483023e-09
2.6217781e-12
1.5457925e-09
2.5097767e-12
1.5432663e-09
2.5262257e-12
1.5408562e-09
2.4101119e-12
1.53842e-09
2.4362113e-12
1.5361045e-09
2.315436e-12
1.5337522e-09
2.3523428e-12
1.531526e-09
2.2262454e-12
1.5292506e-09
2.2753464e-12
1.5271075e-09
2.1431462e-12
1.5249014e-09
2.2060969e-12
1.5228345e-09
2.0668489e-12
1.5206888e-09
2.1457017e-12
1.5186906e-09
1.998226e-12
1.516595e-09
2.0955547e-12
1.5146567e-09
1.9383873e-12
1.5125991e-09
2.0575072e-12
1.5107104e-09
1.8887413e-12
1.5086763e-09
2.0340712e-12
1.5068252e-09
1.8511177e-12
1.5047965e-09
2.0286874e-12
1.502969e-09
1.8275311e-12
1.5009234e-09
2.045564e-12
1.499107e-09
1.8164607e-12
2.2498301e-12
4.1944717e-08
1.0465706e-08
-4.2464783e-08
3.8698488e-08
1.2455794e-08
3.4615863e-08
1.0436442e-08
3.0799886e-08
7.3837253e-09
2.7652008e-08
4.9645156e-09
2.5118693e-08
3.5309603e-09
2.3094524e-08
2.6537412e-09
2.14807e-08
2.0752106e-09
2.0180527e-08
1.6767683e-09
1.9107922e-08
1.3958861e-09
1.8199695e-08
1.1900982e-09
1.7414533e-08
1.0319862e-09
1.6725544e-08
9.0620195e-10
1.6114208e-08
8.0394464e-10
1.5566884e-08
7.1961832e-10
1.5073069e-08
6.492412e-10
1.4624493e-08
5.8981702e-10
1.4214573e-08
5.3906802e-10
1.3838003e-08
4.9528149e-10
1.3490458e-08
4.5716021e-10
1.3168368e-08
4.237172e-10
1.2868753e-08
3.9417909e-10
1.2589101e-08
3.6793687e-10
1.232728e-08
3.4449476e-10
1.2081461e-08
3.2345353e-10
1.1850071e-08
3.0447839e-10
1.1631745e-08
2.872977e-10
1.1425296e-08
2.7167802e-10
1.1229679e-08
2.5742995e-10
1.1043979e-08
2.4438617e-10
1.0867381e-08
2.3241173e-10
1.0699167e-08
2.2138353e-10
1.0538691e-08
2.1120345e-10
1.0385378e-08
2.0177873e-10
1.023871e-08
1.930368e-10
1.0098221e-08
1.8490614e-10
9.9634881e-09
1.7733241e-10
9.8341306e-09
1.7025934e-10
9.7097993e-09
1.6364585e-10
9.5901788e-09
1.5744671e-10
9.474978e-09
1.5163079e-10
9.3639336e-09
1.4616101e-10
9.2568005e-09
1.4101386e-10
9.1533569e-09
1.3615832e-10
9.0533948e-09
1.3157674e-10
8.9567256e-09
1.2724271e-10
8.8631717e-09
1.231431e-10
8.7725718e-09
1.1925508e-10
8.6847727e-09
1.1556906e-10
8.5996358e-09
1.1206503e-10
8.5170282e-09
1.0873626e-10
8.4368299e-09
1.0556491e-10
8.3589251e-09
1.0254656e-10
8.2832094e-09
9.9665034e-11
8.209581e-09
9.6917821e-11
8.1379489e-09
9.4290075e-11
8.0682232e-09
9.1780926e-11
8.0003241e-09
8.9376532e-11
7.9341718e-09
8.7077368e-11
7.8696961e-09
8.4870369e-11
7.806826e-09
8.2757152e-11
7.7454992e-09
8.0725332e-11
7.6856525e-09
7.8777497e-11
7.6272304e-09
7.6901801e-11
7.5701762e-09
7.5101601e-11
7.5144407e-09
7.336547e-11
7.4599725e-09
7.1697457e-11
7.4067279e-09
7.0086521e-11
7.3546603e-09
6.8537316e-11
7.3037307e-09
6.7039074e-11
7.2538969e-09
6.559693e-11
7.2051237e-09
6.4200358e-11
7.1573728e-09
6.2854942e-11
7.1106127e-09
6.1550406e-11
7.0648082e-09
6.0292665e-11
7.019931e-09
5.9071631e-11
6.975949e-09
5.7893477e-11
6.9328367e-09
5.6748355e-11
6.8905644e-09
5.5642663e-11
6.8491093e-09
5.4566766e-11
6.808444e-09
5.3527171e-11
6.7685478e-09
5.2514455e-11
6.7293956e-09
5.1535241e-11
6.6909686e-09
5.0580356e-11
6.6532435e-09
4.9656462e-11
6.6162034e-09
4.8754588e-11
6.5798266e-09
4.788138e-11
6.5440979e-09
4.7028149e-11
6.5089972e-09
4.6201504e-11
6.4745105e-09
4.5393047e-11
6.4406192e-09
4.4609213e-11
6.4073108e-09
4.3841938e-11
6.3745678e-09
4.3097525e-11
6.3423787e-09
4.236824e-11
6.3107275e-09
4.1660161e-11
6.2796037e-09
4.0965968e-11
6.2489923e-09
4.0291366e-11
6.2188836e-09
3.9629545e-11
6.1892637e-09
3.8985929e-11
6.1601239e-09
3.8354076e-11
6.1314512e-09
3.7739005e-11
6.1032375e-09
3.7134969e-11
6.0754709e-09
3.654626e-11
6.0481437e-09
3.5967958e-11
6.021245e-09
3.5403686e-11
5.9947677e-09
3.4849229e-11
5.9687017e-09
3.4307515e-11
5.9430403e-09
3.3775245e-11
5.9177743e-09
3.3254386e-11
5.8928975e-09
3.274272e-11
5.8684012e-09
3.2241119e-11
5.8442797e-09
3.174866e-11
5.8205251e-09
3.1264831e-11
5.7971319e-09
3.0790269e-11
5.774093e-09
3.0322841e-11
5.7514029e-09
2.9864981e-11
5.7290556e-09
2.9412658e-11
5.7070453e-09
2.8970422e-11
5.6853672e-09
2.8531987e-11
5.6640152e-09
2.8104385e-11
5.6429855e-09
2.7678719e-11
5.6222716e-09
2.7264863e-11
5.6018711e-09
2.6850875e-11
5.5817768e-09
2.6449958e-11
5.5619874e-09
2.6046655e-11
5.5424954e-09
2.5657958e-11
5.5233007e-09
2.5264378e-11
5.5043947e-09
2.4887271e-11
5.4857791e-09
2.4502528e-11
5.4674443e-09
2.4136447e-11
5.4493935e-09
2.3759686e-11
5.4316158e-09
2.3404146e-11
5.4141164e-09
2.3034568e-11
5.3968827e-09
2.2689162e-11
5.3799221e-09
2.2326015e-11
5.3632203e-09
2.1990394e-11
5.3467868e-09
2.1632965e-11
5.3306054e-09
2.1306871e-11
5.314688e-09
2.0954482e-11
5.2990161e-09
2.0637704e-11
5.2836044e-09
2.0289736e-11
5.2684319e-09
1.9982155e-11
5.2535161e-09
1.9638e-11
5.2388331e-09
1.9339553e-11
5.2244039e-09
1.8998664e-11
5.2102012e-09
1.8709361e-11
5.1962495e-09
1.8371203e-11
5.1825181e-09
1.8091136e-11
5.1690353e-09
1.7755221e-11
5.1557664e-09
1.7484549e-11
5.142744e-09
1.7150414e-11
5.1299292e-09
1.6889375e-11
5.1173589e-09
1.6556585e-11
5.1049896e-09
1.6305503e-11
5.0928632e-09
1.5973644e-11
5.0809309e-09
1.5732921e-11
5.0692401e-09
1.5401613e-11
5.0577363e-09
1.5171752e-11
5.0464727e-09
1.4840616e-11
5.0353887e-09
1.4622215e-11
5.0245437e-09
1.4290904e-11
5.0138704e-09
1.4084656e-11
5.0034352e-09
1.3752824e-11
4.9931634e-09
1.3559549e-11
4.9831287e-09
1.3226854e-11
4.9732486e-09
1.3047495e-11
4.9636047e-09
1.2713586e-11
4.9541058e-09
1.2549224e-11
4.9448426e-09
1.2213746e-11
4.935714e-09
1.206561e-11
4.9268205e-09
1.1728185e-11
4.9180503e-09
1.1597688e-11
4.9095148e-09
1.1257905e-11
4.9010905e-09
1.1146656e-11
4.8929005e-09
1.0804062e-11
4.8848083e-09
1.0713906e-11
4.8769501e-09
1.0367986e-11
4.8691753e-09
1.0301044e-11
4.8616342e-09
9.9512138e-12
4.8541605e-09
9.9099224e-12
4.8469204e-09
9.5555127e-12
4.8397301e-09
9.54271e-12
4.8327734e-09
9.1829227e-12
4.8258468e-09
9.2019278e-12
4.8191541e-09
8.8358621e-12
4.8124696e-09
8.8905654e-12
4.8060193e-09
8.5172042e-12
4.7995527e-09
8.6122403e-12
4.7933204e-09
8.2305124e-12
4.7870446e-09
8.3713707e-12
4.7810026e-09
7.9803745e-12
4.7748866e-09
8.1735141e-12
4.7690024e-09
7.7729634e-12
4.7630109e-09
8.0256129e-12
4.7572449e-09
7.6171043e-12
4.7513378e-09
7.9357454e-12
4.7456396e-09
7.5257509e-12
4.7397737e-09
7.9114738e-12
4.7340691e-09
7.52111e-12
8.2933615e-12
4.4985543e-08
9.3759827e-09
-4.3895819e-08
4.4926285e-08
1.2515052e-08
4.3804344e-08
1.1558383e-08
4.2100941e-08
9.0871284e-09
4.0236791e-08
6.8286658e-09
3.8381418e-08
5.3863326e-09
3.6586398e-08
4.448762e-09
3.4904758e-08
3.7568497e-09
3.3368041e-08
3.2134854e-09
3.1978613e-08
2.7853147e-09
3.0723925e-08
2.4447862e-09
2.9588704e-08
2.1672065e-09
2.8558947e-08
1.9359595e-09
2.7622307e-08
1.7405848e-09
2.6767712e-08
1.5742133e-09
2.5985222e-08
1.4317312e-09
2.5266048e-08
1.3089903e-09
2.4602557e-08
1.2025591e-09
2.3988189e-08
1.1096496e-09
2.3417339e-08
1.0280101e-09
2.2885216e-08
9.5584098e-10
2.2387712e-08
8.9168308e-10
2.192129e-08
8.3435803e-10
2.1482893e-08
7.8289186e-10
2.1069859e-08
7.3648827e-10
2.0679862e-08
6.9447454e-10
2.0310863e-08
6.5629712e-10
1.9961062e-08
6.2147866e-10
1.9628867e-08
5.8962565e-10
1.9312862e-08
5.603909e-10
1.9011785e-08
5.33489e-10
1.8724507e-08
5.0866158e-10
1.8450012e-08
4.856979e-10
1.8187389e-08
4.6440157e-10
1.7935812e-08
4.4461457e-10
1.7694533e-08
4.2618464e-10
1.7462874e-08
4.0899187e-10
1.7240217e-08
3.9291609e-10
1.7025997e-08
3.7786541e-10
1.6819701e-08
3.6374321e-10
1.6620853e-08
3.5047876e-10
1.6429021e-08
3.3799297e-10
1.6243803e-08
3.2623138e-10
1.6064833e-08
3.151281e-10
1.5891769e-08
3.0464125e-10
1.5724297e-08
2.9471503e-10
1.5562122e-08
2.8531735e-10
1.5404977e-08
2.7640027e-10
1.5252607e-08
2.6793944e-10
1.5104779e-08
2.5989313e-10
1.4961272e-08
2.5224319e-10
1.4821884e-08
2.4495275e-10
1.4686422e-08
2.380087e-10
1.4554709e-08
2.3137791e-10
1.4426575e-08
2.250515e-10
1.4301866e-08
2.1899929e-10
1.4180431e-08
2.1321597e-10
1.4062134e-08
2.0767365e-10
1.3946841e-08
2.0237002e-10
1.3834433e-08
1.9727895e-10
1.3724789e-08
1.9240067e-10
1.3617804e-08
1.8771057e-10
1.351337e-08
1.8321103e-10
1.3411394e-08
1.7887862e-10
1.3311778e-08
1.7471751e-10
1.3214438e-08
1.707052e-10
1.3119288e-08
1.6684746e-10
1.3026252e-08
1.6312256e-10
1.2935251e-08
1.595377e-10
1.2846219e-08
1.5607171e-10
1.2759083e-08
1.5273297e-10
1.2673782e-08
1.4950076e-10
1.2590253e-08
1.4638459e-10
1.2508439e-08
1.4336415e-10
1.2428282e-08
1.4044984e-10
1.2349732e-08
1.3762163e-10
1.2272735e-08
1.3489073e-10
1.2197246e-08
1.3223742e-10
1.2123215e-08
1.2967361e-10
1.2050602e-08
1.2717983e-10
1.197936e-08
1.2476853e-10
1.1909454e-08
1.2242045e-10
1.1840841e-08
1.201486e-10
1.1773487e-08
1.1793391e-10
1.1707354e-08
1.1578986e-10
1.1642411e-08
1.1369748e-10
1.1578622e-08
1.1167063e-10
1.1515959e-08
1.0969055e-10
1.1454389e-08
1.0777142e-10
1.1393888e-08
1.0589467e-10
1.1334422e-08
1.0407464e-10
1.1275971e-08
1.02293e-10
1.1218505e-08
1.0056428e-10
1.1162002e-08
9.8870363e-11
1.1106437e-08
9.7225854e-11
1.105179e-08
9.5612907e-11
1.0998035e-08
9.4046099e-11
1.0945157e-08
9.25079e-11
1.089313e-08
9.1012949e-11
1.084194e-08
8.954395e-11
1.0791563e-08
8.811531e-11
1.0741988e-08
8.671041e-11
1.0693191e-08
8.5343135e-11
1.0645162e-08
8.399751e-11
1.0597878e-08
8.2687096e-11
1.0551331e-08
8.1396399e-11
1.05055e-08
8.013855e-11
1.0460376e-08
7.8898864e-11
1.0415941e-08
7.768967e-11
1.0372187e-08
7.6497312e-11
1.0329095e-08
7.533312e-11
1.0286658e-08
7.4184772e-11
1.0244861e-08
7.3062205e-11
1.0203697e-08
7.1954758e-11
1.0163149e-08
7.087069e-11
1.0123212e-08
6.9801308e-11
1.0083872e-08
6.8752799e-11
1.0045124e-08
6.7718885e-11
1.0006953e-08
6.6703204e-11
9.9693546e-09
6.5702368e-11
9.9323163e-09
6.4716977e-11
9.8958341e-09
6.3747047e-11
9.8598955e-09
6.2789529e-11
9.8244969e-09
6.1848516e-11
9.7896269e-09
6.0916655e-11
9.7552821e-09
6.0002759e-11
9.721452e-09
5.9094449e-11
9.6881333e-09
5.8206056e-11
9.6553164e-09
5.7319354e-11
9.6229979e-09
5.6455e-11
9.5911695e-09
5.5588062e-11
9.5598272e-09
5.4746458e-11
9.5289642e-09
5.3897584e-11
9.4985757e-09
5.3077593e-11
9.4686566e-09
5.2245193e-11
9.4392011e-09
5.1445823e-11
9.4102057e-09
5.0628422e-11
9.3816637e-09
4.9848849e-11
9.3535731e-09
4.9045077e-11
9.3259262e-09
4.8284604e-11
9.2987227e-09
4.7493221e-11
9.2719536e-09
4.675132e-11
9.2456204e-09
4.5971161e-11
9.2197125e-09
4.5247435e-11
9.1942337e-09
4.4477469e-11
9.1691714e-09
4.3771669e-11
9.1445317e-09
4.3010938e-11
9.1202998e-09
4.2322981e-11
9.0964844e-09
4.1570651e-11
9.0730683e-09
4.0900586e-11
9.0500628e-09
4.0155908e-11
9.0274483e-09
3.9503954e-11
9.0052386e-09
3.8766276e-11
8.9834113e-09
3.8132805e-11
8.9619833e-09
3.740157e-11
8.9409291e-09
3.6787118e-11
8.9202689e-09
3.6061865e-11
8.8999735e-09
3.5467154e-11
8.8800666e-09
3.474749e-11
8.8605154e-09
3.4173413e-11
8.8413473e-09
3.3459057e-11
8.8225252e-09
3.2906689e-11
8.8040806e-09
3.2197416e-11
8.7859721e-09
3.1668059e-11
8.7682353e-09
3.0963715e-11
8.7508239e-09
3.0458878e-11
8.7337781e-09
2.9759371e-11
8.7170465e-09
2.9280801e-11
8.7006742e-09
2.85861e-11
8.684604e-09
2.8135788e-11
8.6688863e-09
2.7445913e-11
8.6534578e-09
2.7026147e-11
8.6383746e-09
2.6341142e-11
8.6235667e-09
2.5954526e-11
8.6090963e-09
2.5274471e-11
8.5948862e-09
2.4923968e-11
8.5810053e-09
2.4248955e-11
8.5673684e-09
2.3937939e-11
8.5540515e-09
2.3268097e-11
8.540961e-09
2.3000395e-11
8.5281806e-09
2.2335876e-11
8.5156075e-09
2.211588e-11
8.5033335e-09
2.1456873e-11
8.4912459e-09
2.1289583e-11
8.4794453e-09
2.0636456e-11
8.4678083e-09
2.0527547e-11
8.4564445e-09
1.9881001e-11
8.4452199e-09
1.9836885e-11
8.434252e-09
1.9198412e-11
8.4233973e-09
1.9226052e-11
8.4127788e-09
1.8598878e-11
8.402247e-09
1.8705316e-11
8.3919237e-09
1.8096221e-11
8.3816624e-09
1.828698e-11
8.3715693e-09
1.7710191e-11
8.36152e-09
1.7985046e-11
8.3515774e-09
1.7468309e-11
8.3416682e-09
1.7820726e-11
8.3317821e-09
1.7407212e-11
1.8280179e-11
4.6708432e-08
8.4204941e-09
-4.5752943e-08
4.7419203e-08
1.180428e-08
4.7560762e-08
1.1416824e-08
4.7201182e-08
9.4467087e-09
4.655307e-08
7.4767783e-09
4.57456e-08
6.1938023e-09
4.4815854e-08
5.378508e-09
4.3809258e-08
4.7634456e-09
4.2773748e-08
4.2489953e-09
4.1740838e-08
3.8182252e-09
4.0726199e-08
3.4594253e-09
3.9738184e-08
3.1552212e-09
3.8782778e-08
2.891365e-09
3.7864433e-08
2.6589302e-09
3.6985924e-08
2.4527224e-09
3.6148422e-08
2.2692335e-09
3.5351821e-08
2.1055909e-09
3.4595139e-08
1.9592412e-09
3.3876836e-08
1.8279528e-09
3.3195054e-08
1.7097922e-09
3.2547774e-08
1.6031211e-09
3.1932927e-08
1.5065293e-09
3.1348467e-08
1.4188188e-09
3.0792412e-08
1.3389461e-09
3.0262879e-08
1.2660213e-09
2.9758096e-08
1.1992583e-09
2.9276404e-08
1.1379887e-09
2.8816268e-08
1.0816144e-09
2.8376264e-08
1.0296301e-09
2.7955078e-08
9.8157666e-10
2.7551498e-08
9.3706927e-10
2.7164408e-08
8.9575143e-10
2.6792778e-08
8.5732785e-10
2.6435661e-08
8.2151834e-10
2.6092181e-08
7.8809444e-10
2.5761533e-08
7.5683301e-10
2.5442969e-08
7.2755611e-10
2.5135801e-08
7.0008373e-10
2.483939e-08
6.7427644e-10
2.4553147e-08
6.4998691e-10
2.427652e-08
6.2710565e-10
2.4009002e-08
6.0551033e-10
2.3750119e-08
5.8511499e-10
2.349943e-08
5.6581659e-10
2.3256524e-08
5.475478e-10
2.3021018e-08
5.3022055e-10
2.2792553e-08
5.1378231e-10
2.2570797e-08
4.9815685e-10
2.2355432e-08
4.8330357e-10
2.214617e-08
4.6915569e-10
2.1942731e-08
4.5568229e-10
2.1744859e-08
4.428241e-10
2.155231e-08
4.3055817e-10
2.1364857e-08
4.1883107e-10
2.1182282e-08
4.0762663e-10
2.1004385e-08
3.9689605e-10
2.0830972e-08
3.8662894e-10
2.0661865e-08
3.767801e-10
2.0496891e-08
3.6734404e-10
2.0335892e-08
3.5827838e-10
2.0178711e-08
3.4958186e-10
2.0025207e-08
3.4121444e-10
1.987524e-08
3.331785e-10
1.9728682e-08
3.2543582e-10
1.9585408e-08
3.1799188e-10
1.9445303e-08
3.1080986e-10
1.9308253e-08
3.0389804e-10
1.9174155e-08
2.9722073e-10
1.9042904e-08
2.9078872e-10
1.8914408e-08
2.8456709e-10
1.8788572e-08
2.7856883e-10
1.8665313e-08
2.727596e-10
1.8544544e-08
2.6715447e-10
1.8426188e-08
2.6171951e-10
1.8310166e-08
2.5647159e-10
1.8196411e-08
2.5137702e-10
1.8084847e-08
2.464543e-10
1.7975415e-08
2.4166997e-10
1.7868045e-08
2.3704403e-10
1.7762681e-08
2.3254308e-10
1.7659261e-08
2.2818846e-10
1.7557735e-08
2.2394675e-10
1.7458043e-08
2.1984061e-10
1.736014e-08
2.1583656e-10
1.7263972e-08
2.1195844e-10
1.7169497e-08
2.0817255e-10
1.7076663e-08
2.0450387e-10
1.6985435e-08
2.0091854e-10
1.6895764e-08
1.9744261e-10
1.6807617e-08
1.9404197e-10
1.6720948e-08
1.9074361e-10
1.6635728e-08
1.8751314e-10
1.6551914e-08
1.8437858e-10
1.6469479e-08
1.813052e-10
1.6388383e-08
1.7832187e-10
1.6308602e-08
1.7539357e-10
1.6230098e-08
1.7254997e-10
1.615285e-08
1.6975574e-10
1.6076822e-08
1.6704144e-10
1.6001994e-08
1.6437137e-10
1.5928333e-08
1.617766e-10
1.5855822e-08
1.5922149e-10
1.5784428e-08
1.567375e-10
1.5714136e-08
1.5428876e-10
1.5644916e-08
1.5190746e-10
1.5576755e-08
1.4955734e-10
1.5509623e-08
1.472711e-10
1.5443509e-08
1.4501251e-10
1.5378384e-08
1.4281437e-10
1.5314241e-08
1.4064068e-10
1.525105e-08
1.3852415e-10
1.5188805e-08
1.3642932e-10
1.5127479e-08
1.3438841e-10
1.5067067e-08
1.323668e-10
1.5007542e-08
1.3039593e-10
1.4948901e-08
1.2844237e-10
1.4891117e-08
1.2653632e-10
1.483419e-08
1.2464604e-10
1.4778093e-08
1.2279998e-10
1.4722827e-08
1.2096858e-10
1.4668366e-08
1.1917799e-10
1.4614712e-08
1.1740144e-10
1.4561839e-08
1.1566208e-10
1.4509751e-08
1.1393666e-10
1.4458423e-08
1.1224462e-10
1.4407859e-08
1.1056694e-10
1.4358035e-08
1.0891853e-10
1.4308955e-08
1.0728553e-10
1.4260597e-08
1.0567735e-10
1.4212966e-08
1.040862e-10
1.4166039e-08
1.0251506e-10
1.4119822e-08
1.0096326e-10
1.4074294e-08
9.9426216e-11
1.402946e-08
9.7911511e-11
1.3985299e-08
9.6405848e-11
1.3941819e-08
9.4926235e-11
1.3898998e-08
9.3449457e-11
1.3856843e-08
9.2003207e-11
1.3815335e-08
9.0553029e-11
1.3774481e-08
8.9138647e-11
1.3734261e-08
8.7713017e-11
1.3694684e-08
8.632928e-11
1.3655728e-08
8.4926328e-11
1.3617404e-08
8.3572237e-11
1.3579691e-08
8.2190334e-11
1.3542597e-08
8.0865148e-11
1.3506105e-08
7.9502838e-11
1.3470222e-08
7.8206077e-11
1.3434931e-08
7.6862148e-11
1.3400238e-08
7.5593563e-11
1.3366127e-08
7.4266986e-11
1.3332604e-08
7.3026604e-11
1.3299654e-08
7.1716561e-11
1.3267282e-08
7.0504655e-11
1.3235473e-08
6.9210538e-11
1.3204232e-08
6.8027655e-11
1.3173545e-08
6.674906e-11
1.3143416e-08
6.5596032e-11
1.3113831e-08
6.4332743e-11
1.3084794e-08
6.3210672e-11
1.305629e-08
6.1962704e-11
1.3028324e-08
6.0872979e-11
1.3000881e-08
5.9640514e-11
1.2973964e-08
5.8584867e-11
1.2947559e-08
5.7368271e-11
1.292167e-08
5.6348743e-11
1.289628e-08
5.5148574e-11
1.2871394e-08
5.4167545e-11
1.2846995e-08
5.2984543e-11
1.2823086e-08
5.2044745e-11
1.2799652e-08
5.087983e-11
1.2776694e-08
4.998441e-11
1.2754196e-08
4.8838646e-11
1.273216e-08
4.7991183e-11
1.2710568e-08
4.6865814e-11
1.2689422e-08
4.6070353e-11
1.2668704e-08
4.4966798e-11
1.2648414e-08
4.4227898e-11
1.2628535e-08
4.3147806e-11
1.2609064e-08
4.247057e-11
1.2589984e-08
4.1415845e-11
1.2571294e-08
4.080602e-11
1.2552972e-08
3.9778939e-11
1.2535019e-08
3.9242871e-11
1.2517409e-08
3.824641e-11
1.2500146e-08
3.7791007e-11
1.2483197e-08
3.6829265e-11
1.2466572e-08
3.6461843e-11
1.245023e-08
3.5541049e-11
1.2434187e-08
3.5268742e-11
1.2418387e-08
3.4399001e-11
1.2402864e-08
3.4227755e-11
1.2387535e-08
3.3426032e-11
1.2372463e-08
3.3358453e-11
1.235752e-08
3.2653145e-11
1.2342819e-08
3.2686126e-11
1.232817e-08
3.2117654e-11
1.2313727e-08
3.2263462e-11
1.2299273e-08
3.1861325e-11
3.2647565e-11
4.850885e-08
7.6799639e-09
-4.776832e-08
4.9286779e-08
1.1026351e-08
4.9723805e-08
1.0979798e-08
4.9836547e-08
9.333966e-09
4.9749946e-08
7.5633799e-09
4.9545301e-08
6.3984467e-09
4.9231925e-08
5.6918839e-09
4.8820937e-08
5.1744336e-09
4.8338296e-08
4.7316363e-09
4.7807613e-08
4.3489088e-09
4.7242066e-08
4.0249724e-09
4.6649047e-08
3.7482401e-09
4.6035103e-08
3.5053081e-09
4.5406984e-08
3.2870496e-09
4.4771105e-08
3.0886016e-09
4.4133037e-08
2.9073009e-09
4.3497356e-08
2.7412724e-09
4.2867719e-08
2.5888785e-09
4.2246999e-08
2.4486726e-09
4.1637413e-08
2.3193782e-09
4.1040621e-08
2.1999132e-09
4.0457821e-08
2.0893293e-09
3.9889825e-08
1.9868148e-09
3.9337134e-08
1.8916367e-09
3.8799996e-08
1.8031592e-09
3.8278462e-08
1.7207921e-09
3.7772427e-08
1.6440244e-09
3.7281668e-08
1.572373e-09
3.6805874e-08
1.5054236e-09
3.6344673e-08
1.4427777e-09
3.5897644e-08
1.3840982e-09
3.5464342e-08
1.3290544e-09
3.5044298e-08
1.2773718e-09
3.4637042e-08
1.2287742e-09
3.4242098e-08
1.1830382e-09
3.3858999e-08
1.1399318e-09
3.3487282e-08
1.099273e-09
3.31265e-08
1.0608658e-09
3.2776214e-08
1.0245621e-09
3.2436006e-08
9.9019493e-10
3.2105468e-08
9.576442e-10
3.1784212e-08
9.2676641e-10
3.1471862e-08
8.9746478e-10
3.1168064e-08
8.6961462e-10
3.0872473e-08
8.4313854e-10
3.0584767e-08
8.1792706e-10
3.030463e-08
7.9391881e-10
3.003177e-08
7.7101676e-10
2.9765901e-08
7.4917295e-10
2.9506756e-08
7.2830052e-10
2.9254076e-08
7.0836279e-10
2.9007619e-08
6.8928116e-10
2.8767148e-08
6.7102852e-10
2.8532446e-08
6.5353282e-10
2.8303298e-08
6.3677529e-10
2.8079505e-08
6.2068909e-10
2.7860871e-08
6.052628e-10
2.7647217e-08
5.9043366e-10
2.7438365e-08
5.7619659e-10
2.7234151e-08
5.6249203e-10
2.7034412e-08
5.4932055e-10
2.6839002e-08
5.366252e-10
2.6647769e-08
5.2441151e-10
2.646058e-08
5.126245e-10
2.6277298e-08
5.0127408e-10
2.6097801e-08
4.9030673e-10
2.5921963e-08
4.7973639e-10
2.5749673e-08
4.6951063e-10
2.5580814e-08
4.596471e-10
2.5415287e-08
4.5009396e-10
2.5252984e-08
4.4087225e-10
2.5093813e-08
4.3193049e-10
2.4937675e-08
4.2329292e-10
2.4784486e-08
4.1490818e-10
2.4634154e-08
4.0680344e-10
2.4486604e-08
3.9892715e-10
2.4341749e-08
3.9130924e-10
2.4199521e-08
3.8389794e-10
2.4059839e-08
3.7672581e-10
2.3922642e-08
3.6974058e-10
2.3787853e-08
3.6297725e-10
2.3655417e-08
3.5638294e-10
2.3525262e-08
3.4999512e-10
2.3397339e-08
3.4376015e-10
2.3271579e-08
3.3771786e-10
2.3147938e-08
3.3181358e-10
2.3026353e-08
3.2608951e-10
2.2906781e-08
3.2048996e-10
2.2789164e-08
3.1505946e-10
2.2673465e-08
3.0974113e-10
2.2559627e-08
3.0458171e-10
2.2447617e-08
2.9952304e-10
2.2337382e-08
2.9461422e-10
2.2228891e-08
2.8979566e-10
2.2122094e-08
2.8511871e-10
2.2016966e-08
2.8052228e-10
2.1913456e-08
2.7606001e-10
2.1811542e-08
2.716692e-10
2.1711178e-08
2.6740592e-10
2.1612343e-08
2.6320576e-10
2.1514993e-08
2.5912685e-10
2.1419111e-08
2.5510338e-10
2.1324653e-08
2.5119566e-10
2.1231606e-08
2.4733589e-10
2.1139926e-08
2.4358706e-10
2.1049604e-08
2.3987922e-10
2.0960598e-08
2.3627776e-10
2.0872899e-08
2.32711e-10
2.0786467e-08
2.2924634e-10
2.0701297e-08
2.2581051e-10
2.0617349e-08
2.224728e-10
2.0534619e-08
2.1915859e-10
2.0453069e-08
2.1593872e-10
2.0372699e-08
2.1273742e-10
2.0293468e-08
2.0962689e-10
2.0215379e-08
2.0653047e-10
2.0138394e-08
2.0352135e-10
2.0062518e-08
2.0052239e-10
1.9987711e-08
1.9760729e-10
1.991398e-08
1.946989e-10
1.9841287e-08
1.9187095e-10
1.9769642e-08
1.8904679e-10
1.9699005e-08
1.8629951e-10
1.9629388e-08
1.8355371e-10
1.9560751e-08
1.8088114e-10
1.949311e-08
1.782083e-10
1.9426423e-08
1.7560485e-10
1.9360709e-08
1.7300004e-10
1.9295926e-08
1.7046053e-10
1.9232093e-08
1.679192e-10
1.9169169e-08
1.6543881e-10
1.9107175e-08
1.6295687e-10
1.904607e-08
1.6053117e-10
1.8985877e-08
1.5810489e-10
1.8926553e-08
1.557298e-10
1.8868124e-08
1.5335585e-10
1.8810545e-08
1.5102765e-10
1.8753845e-08
1.4870307e-10
1.869798e-08
1.4641839e-10
1.8642978e-08
1.4414058e-10
1.8588795e-08
1.4189642e-10
1.8535461e-08
1.3966319e-10
1.848293e-08
1.3745685e-10
1.8431236e-08
1.3526634e-10
1.8380331e-08
1.3309553e-10
1.833025e-08
1.3094625e-10
1.8280944e-08
1.2880898e-10
1.823245e-08
1.2669982e-10
1.8184718e-08
1.2459448e-10
1.8137787e-08
1.225247e-10
1.8091604e-08
1.2045003e-10
1.8046211e-08
1.1841925e-10
1.8001553e-08
1.1637433e-10
1.7957675e-08
1.1438256e-10
1.7914519e-08
1.1236686e-10
1.7872132e-08
1.1041449e-10
1.7830453e-08
1.0842782e-10
1.7789534e-08
1.0651565e-10
1.7749308e-08
1.0455818e-10
1.7709831e-08
1.0268741e-10
1.7671035e-08
1.0075969e-10
1.7632976e-08
9.8931911e-11
1.7595581e-08
9.7034833e-11
1.7558914e-08
9.5252118e-11
1.7522895e-08
9.3386908e-11
1.7487592e-08
9.1651756e-11
1.7452921e-08
8.9820014e-11
1.7418953e-08
8.8135377e-11
1.7385599e-08
8.6339053e-11
1.7352935e-08
8.4708362e-11
1.7320865e-08
8.2949761e-11
1.7289472e-08
8.1376979e-11
1.7258652e-08
7.965873e-11
1.7228495e-08
7.8148371e-11
1.7198888e-08
7.6473483e-11
1.7169927e-08
7.5030621e-11
1.7141492e-08
7.3402514e-11
1.7113687e-08
7.2032813e-11
1.7086379e-08
7.0455408e-11
1.7059684e-08
6.9165133e-11
1.7033457e-08
6.764294e-11
1.7007824e-08
6.6438998e-11
1.6982626e-08
6.4977373e-11
1.6958002e-08
6.3867158e-11
1.6933775e-08
6.2472821e-11
1.6910102e-08
6.1464067e-11
1.6886786e-08
6.0145821e-11
1.6864001e-08
5.9246254e-11
1.6841526e-08
5.8016398e-11
1.6819562e-08
5.7233033e-11
1.6797851e-08
5.6109468e-11
1.6776631e-08
5.5447857e-11
1.67556e-08
5.4456887e-11
1.6735038e-08
5.3920698e-11
1.6714592e-08
5.309882e-11
1.6694584e-08
5.2694495e-11
1.6674623e-08
5.2078577e-11
1.6655026e-08
5.1860104e-11
1.6635433e-08
5.1454541e-11
5.1958512e-11
5.0434496e-08
7.1051724e-09
-4.9859705e-08
5.119678e-08
1.0264067e-08
5.1670715e-08
1.0505863e-08
5.1882466e-08
9.1222156e-09
5.1957121e-08
7.4887248e-09
5.1970267e-08
6.3853008e-09
5.1925927e-08
5.7362235e-09
5.181794e-08
5.2824209e-09
5.1655872e-08
4.8937041e-09
5.1454359e-08
4.5504216e-09
5.1220851e-08
4.2584806e-09
5.0957056e-08
4.0120346e-09
5.0663897e-08
3.7984676e-09
5.0343487e-08
3.6074596e-09
4.9998894e-08
3.4331941e-09
4.9633486e-08
3.2727093e-09
4.9250531e-08
3.1242272e-09
4.8853089e-08
2.9863205e-09
4.844399e-08
2.8577716e-09
4.8025841e-08
2.7375272e-09
4.7601015e-08
2.6247398e-09
4.717165e-08
2.5186939e-09
4.6739649e-08
2.4188165e-09
4.6306686e-08
2.324599e-09
4.5874221e-08
2.2356248e-09
4.5443512e-08
2.1515012e-09
4.5015631e-08
2.0719047e-09
4.4591489e-08
1.996515e-09
4.4171841e-08
1.9250714e-09
4.3757315e-08
1.8573037e-09
4.3348417e-08
1.7929968e-09
4.2945554e-08
1.7319174e-09
4.254904e-08
1.6738853e-09
4.2159118e-08
1.6186964e-09
4.1775958e-08
1.5661986e-09
4.1399678e-08
1.5162112e-09
4.1030346e-08
1.4686058e-09
4.066799e-08
1.4232212e-09
4.0312603e-08
1.3799495e-09
3.9964152e-08
1.3386458e-09
3.9622576e-08
1.29922e-09
3.9287801e-08
1.2615411e-09
3.8959731e-08
1.225535e-09
3.8638264e-08
1.1910822e-09
3.8323279e-08
1.1581228e-09
3.8014659e-08
1.1265471e-09
3.7712271e-08
1.0963075e-09
3.7415985e-08
1.0673027e-09