/*--------------------------------*- C++ -*----------------------------------*\
| =========                 |                                                 |
| \\      /  F ield         | OpenFOAM: The Open Source CFD Toolbox           |
|  \\    /   O peration     | Version:  5.x                                   |
|   \\  /    A nd           | Web:      www.OpenFOAM.org                      |
|    \\/     M anipulation  |                                                 |
\*---------------------------------------------------------------------------*/
FoamFile
{
    version     2.0;
    format      ascii;
    class       volVectorField;
    location    "0.5";
    object      U;
}
// * * * * * * * * * * * * * * * * * * * * * * * * * * * * * * * * * * * * * //

dimensions      [0 1 -1 0 0 0 0];

internalField   nonuniform List<vector> 
21600
(
(0.4051749 0.012133413 0)
(0.28658461 0.010905359 0)
(0.19463102 0.006422326 0)
(0.1403785 0.0024872757 0)
(0.11280916 0.00059978059 0)
(0.097467343 0.00010205387 0)
(0.088150798 2.6408679e-05 0)
(0.081855275 5.7566588e-05 0)
(0.07702813 9.7621228e-05 0)
(0.072980951 0.00011626242 0)
(0.069458049 0.00011546971 0)
(0.066366017 0.00010541518 0)
(0.063645525 9.3698654e-05 0)
(0.061240033 8.33311e-05 0)
(0.059096638 7.4778075e-05 0)
(0.057170548 6.7725702e-05 0)
(0.055426018 6.1796792e-05 0)
(0.053835283 5.6711895e-05 0)
(0.052376485 5.2287676e-05 0)
(0.051032218 4.8400395e-05 0)
(0.049788163 4.4963457e-05 0)
(0.048632503 4.1908487e-05 0)
(0.04755519 3.9181748e-05 0)
(0.046547787 3.6736631e-05 0)
(0.045602976 3.4535839e-05 0)
(0.044714561 3.2545739e-05 0)
(0.043877078 3.0740309e-05 0)
(0.043085876 2.9095196e-05 0)
(0.042336782 2.7592313e-05 0)
(0.041626237 2.6213688e-05 0)
(0.040950984 2.4946653e-05 0)
(0.040308252 2.3777602e-05 0)
(0.039695451 2.2697567e-05 0)
(0.03911039 2.1695975e-05 0)
(0.038550976 2.076643e-05 0)
(0.038015453 1.9900504e-05 0)
(0.037502106 1.9093657e-05 0)
(0.037009512 1.8338982e-05 0)
(0.036536247 1.763331e-05 0)
(0.036081148 1.6970807e-05 0)
(0.035643018 1.6349378e-05 0)
(0.035220898 1.5763961e-05 0)
(0.034813772 1.5213321e-05 0)
(0.034420844 1.4692958e-05 0)
(0.034041243 1.4202314e-05 0)
(0.033674304 1.3737308e-05 0)
(0.033319274 1.3297884e-05 0)
(0.032975594 1.2880294e-05 0)
(0.032642607 1.2484868e-05 0)
(0.032319842 1.210815e-05 0)
(0.032006722 1.1750787e-05 0)
(0.031702847 1.1409541e-05 0)
(0.031407708 1.1085312e-05 0)
(0.031120965 1.0774997e-05 0)
(0.030842164 1.0479729e-05 0)
(0.030571015 1.0196509e-05 0)
(0.030307114 9.9266988e-06 0)
(0.03005021 9.6673714e-06 0)
(0.029799941 9.4200542e-06 0)
(0.029556092 9.1818608e-06 0)
(0.029318336 8.9544507e-06 0)
(0.029086487 8.7350103e-06 0)
(0.028860252 8.525323e-06 0)
(0.028639465 8.3226377e-06 0)
(0.028423864 8.128801e-06 0)
(0.028213302 7.9410956e-06 0)
(0.028007544 7.7614325e-06 0)
(0.027806458 7.587162e-06 0)
(0.027609833 7.4202608e-06 0)
(0.027417548 7.2581183e-06 0)
(0.027229418 7.1027239e-06 0)
(0.027045326 6.9515101e-06 0)
(0.026865113 6.8064948e-06 0)
(0.026688667 6.665193e-06 0)
(0.026515849 6.5296117e-06 0)
(0.02634655 6.3973212e-06 0)
(0.026180655 6.2702843e-06 0)
(0.026018052 6.1461737e-06 0)
(0.025858649 6.0269212e-06 0)
(0.025702329 5.9103038e-06 0)
(0.025549026 5.7981609e-06 0)
(0.025398614 5.6883709e-06 0)
(0.025251054 5.5826999e-06 0)
(0.025106206 5.4791738e-06 0)
(0.02496406 5.3794556e-06 0)
(0.024824463 5.2816924e-06 0)
(0.024687432 5.1874073e-06 0)
(0.024552797 5.0949179e-06 0)
(0.024420605 5.0056248e-06 0)
(0.024290666 4.9180316e-06 0)
(0.024163061 4.8333236e-06 0)
(0.024037574 4.7502198e-06 0)
(0.023914323 4.6697306e-06 0)
(0.023793063 4.5907796e-06 0)
(0.023673951 4.5141808e-06 0)
(0.023556711 4.4391174e-06 0)
(0.023441541 4.3660554e-06 0)
(0.023328129 4.294553e-06 0)
(0.023216717 4.2248243e-06 0)
(0.023106956 4.1566173e-06 0)
(0.022999135 4.0899178e-06 0)
(0.022892859 4.0248456e-06 0)
(0.022788474 3.9608902e-06 0)
(0.022685532 3.8987287e-06 0)
(0.022584438 3.8373529e-06 0)
(0.022484688 3.7778774e-06 0)
(0.022386752 3.7188537e-06 0)
(0.022290063 3.6619284e-06 0)
(0.022195162 3.6050675e-06 0)
(0.022101413 3.5505201e-06 0)
(0.022009432 3.4956309e-06 0)
(0.021918509 3.4433496e-06 0)
(0.021829344 3.3902452e-06 0)
(0.021741141 3.3401132e-06 0)
(0.021654694 3.2886302e-06 0)
(0.021569113 3.2405418e-06 0)
(0.021485293 3.1905159e-06 0)
(0.021402243 3.1443933e-06 0)
(0.021320968 3.0956571e-06 0)
(0.021240362 3.0514209e-06 0)
(0.021161554 3.0038372e-06 0)
(0.021083313 2.9614339e-06 0)
(0.0210069 2.914837e-06 0)
(0.02093095 2.8742189e-06 0)
(0.020856867 2.8284725e-06 0)
(0.020783137 2.7896044e-06 0)
(0.020711322 2.7445562e-06 0)
(0.020639747 2.7074228e-06 0)
(0.020570145 2.6629346e-06 0)
(0.020500661 2.6275259e-06 0)
(0.020433221 2.5834534e-06 0)
(0.020365771 2.5497715e-06 0)
(0.020300445 2.5059706e-06 0)
(0.020234972 2.4740374e-06 0)
(0.020171716 2.4303691e-06 0)
(0.020108169 2.4002025e-06 0)
(0.020046943 2.3565251e-06 0)
(0.01998527 2.3281758e-06 0)
(0.019926037 2.2843398e-06 0)
(0.01986619 2.2578494e-06 0)
(0.019808916 2.2137191e-06 0)
(0.019750849 2.1891589e-06 0)
(0.019695502 2.1445775e-06 0)
(0.019639169 2.1220234e-06 0)
(0.019585721 2.0768482e-06 0)
(0.019531077 2.0563894e-06 0)
(0.019479502 2.0104609e-06 0)
(0.019426502 1.9922063e-06 0)
(0.019376775 1.9453651e-06 0)
(0.019325377 1.9294369e-06 0)
(0.019277476 1.8815197e-06 0)
(0.019227634 1.8680535e-06 0)
(0.019181538 1.8188855e-06 0)
(0.019133208 1.8080463e-06 0)
(0.019088898 1.7574408e-06 0)
(0.019042034 1.7494013e-06 0)
(0.018999492 1.6971724e-06 0)
(0.018954047 1.6921382e-06 0)
(0.018913256 1.6380711e-06 0)
(0.018869181 1.6362731e-06 0)
(0.018830125 1.5801493e-06 0)
(0.018787368 1.5818452e-06 0)
(0.018750032 1.5234212e-06 0)
(0.018708538 1.5289032e-06 0)
(0.018672908 1.4679195e-06 0)
(0.018632619 1.477522e-06 0)
(0.018598682 1.4136828e-06 0)
(0.018559534 1.4277866e-06 0)
(0.018527277 1.360772e-06 0)
(0.018489203 1.3798076e-06 0)
(0.018458614 1.3092554e-06 0)
(0.01842154 1.3337186e-06 0)
(0.018392607 1.2592256e-06 0)
(0.018356452 1.2896818e-06 0)
(0.018329164 1.2107913e-06 0)
(0.018293839 1.2478977e-06 0)
(0.018268186 1.1640828e-06 0)
(0.018233592 1.2086088e-06 0)
(0.018209564 1.1192609e-06 0)
(0.018175592 1.1721056e-06 0)
(0.018153181 1.0765249e-06 0)
(0.018119707 1.1387525e-06 0)
(0.018098907 1.0360966e-06 0)
(0.018065791 1.1090041e-06 0)
(0.018046597 9.9826404e-07 0)
(0.01801368 1.0834196e-06 0)
(0.017996093 9.6335573e-07 0)
(0.017963186 1.0627494e-06 0)
(0.017947214 9.3176203e-07 0)
(0.017914095 1.0479757e-06 0)
(0.017899758 9.039606e-07 0)
(0.01786615 1.040484e-06 0)
(0.017853498 8.8045502e-07 0)
(0.017819037 1.0423312e-06 0)
(0.017808183 8.6163102e-07 0)
(0.017772345 1.0568679e-06 0)
(0.01776357 8.4659754e-07 0)
(0.017725458 1.0898832e-06 0)
(0.017719676 8.2830413e-07 0)
(0.017676488 1.3164002e-06 0)
(0.4843028 0.02253559 0)
(0.45685714 0.024514341 0)
(0.41446 0.019498847 0)
(0.37041174 0.012617647 0)
(0.3318853 0.0073139105 0)
(0.29914253 0.0043276004 0)
(0.27267892 0.0027949115 0)
(0.25195679 0.0019946001 0)
(0.2356583 0.0015563938 0)
(0.22245755 0.0012942234 0)
(0.2113977 0.0011135917 0)
(0.20189378 0.00097258829 0)
(0.19359009 0.00085666565 0)
(0.18625128 0.00076064017 0)
(0.17970545 0.00068110877 0)
(0.17382004 0.00061484005 0)
(0.16849018 0.00055898381 0)
(0.1636328 0.00051128903 0)
(0.15918106 0.00047009267 0)
(0.1550811 0.00043416805 0)
(0.15128848 0.00040260204 0)
(0.14776654 0.00037468317 0)
(0.14448427 0.00034985284 0)
(0.14141569 0.0003276523 0)
(0.13853831 0.00030771242 0)
(0.13583314 0.00028971965 0)
(0.13328344 0.00027342118 0)
(0.13087497 0.00025859649 0)
(0.12859495 0.00024506911 0)
(0.12643251 0.00023268008 0)
(0.12437767 0.00022130391 0)
(0.12242197 0.00021082301 0)
(0.1205575 0.00020114648 0)
(0.11877756 0.00019218517 0)
(0.11707575 0.00018387214 0)
(0.11544671 0.00017613821 0)
(0.11388522 0.00016893363 0)
(0.11238693 0.00016220353 0)
(0.11094749 0.00015591069 0)
(0.10956336 0.00015001057 0)
(0.10823089 0.00014447541 0)
(0.10694715 0.00013926825 0)
(0.10570904 0.00013436865 0)
(0.10451415 0.0001297453 0)
(0.10335982 0.00012538341 0)
(0.10224401 0.00012125593 0)
(0.10116444 0.00011735239 0)
(0.1001194 0.0001136491 0)
(0.099106892 0.00011013896 0)
(0.09812548 0.00010680094 0)
(0.097173411 0.00010363067 0)
(0.096249462 0.0001006092 0)
(0.095352087 9.7734358e-05 0)
(0.094480244 9.4988693e-05 0)
(0.093632562 9.2371911e-05 0)
(0.092808146 8.9867759e-05 0)
(0.092005775 8.747759e-05 0)
(0.091224679 8.5186057e-05 0)
(0.090463765 8.2995826e-05 0)
(0.089722364 8.0892227e-05 0)
(0.0889995 7.8879023e-05 0)
(0.088294587 7.6942191e-05 0)
(0.08760675 7.5086453e-05 0)
(0.086935471 7.3298309e-05 0)
(0.086279966 7.1583182e-05 0)
(0.085639773 6.9927956e-05 0)
(0.085014193 6.8338692e-05 0)
(0.084402805 6.6802684e-05 0)
(0.083804989 6.5326573e-05 0)
(0.083220355 6.3897932e-05 0)
(0.08264836 6.2523794e-05 0)
(0.082088633 6.1191993e-05 0)
(0.081540705 5.9909955e-05 0)
(0.081004214 5.866584e-05 0)
(0.080478765 5.7467318e-05 0)
(0.079963997 5.6302787e-05 0)
(0.079459589 5.5180047e-05 0)
(0.078965169 5.4087842e-05 0)
(0.078480493 5.30341e-05 0)
(0.07800517 5.2007898e-05 0)
(0.077539032 5.1017106e-05 0)
(0.077081664 5.0051128e-05 0)
(0.076632977 4.9117804e-05 0)
(0.076192519 4.8206966e-05 0)
(0.075760287 4.7326325e-05 0)
(0.075335783 4.6466065e-05 0)
(0.074919095 4.5633663e-05 0)
(0.074509667 4.4819788e-05 0)
(0.074107686 4.4031695e-05 0)
(0.073712528 4.3260578e-05 0)
(0.073324486 4.2513219e-05 0)
(0.072942856 4.1781406e-05 0)
(0.072568044 4.1071547e-05 0)
(0.072199259 4.0376009e-05 0)
(0.071837027 3.970071e-05 0)
(0.071480455 3.9038764e-05 0)
(0.071130202 3.8395238e-05 0)
(0.070785261 3.7764225e-05 0)
(0.070446434 3.7150204e-05 0)
(0.070112584 3.6547833e-05 0)
(0.069784672 3.5960915e-05 0)
(0.069461415 3.5385255e-05 0)
(0.069143945 3.4823287e-05 0)
(0.068830819 3.4272343e-05 0)
(0.068523354 3.3733565e-05 0)
(0.068219931 3.3205506e-05 0)
(0.067922068 3.2688085e-05 0)
(0.067627949 3.21814e-05 0)
(0.067339316 3.1683708e-05 0)
(0.067054132 3.1196885e-05 0)
(0.066774384 3.0717371e-05 0)
(0.066497792 3.0249142e-05 0)
(0.066226609 2.9786351e-05 0)
(0.065958291 2.9335504e-05 0)
(0.065695379 2.888811e-05 0)
(0.065435037 2.8453545e-05 0)
(0.065180124 2.8020274e-05 0)
(0.064927481 2.7601024e-05 0)
(0.064680316 2.7180666e-05 0)
(0.064435115 2.6775829e-05 0)
(0.064195466 2.6367293e-05 0)
(0.063957466 2.5976093e-05 0)
(0.063725118 2.5578268e-05 0)
(0.063494094 2.5199996e-05 0)
(0.063268851 2.4811896e-05 0)
(0.063044592 2.4445934e-05 0)
(0.062826273 2.4066571e-05 0)
(0.062608581 2.3712403e-05 0)
(0.062397019 2.3340869e-05 0)
(0.062185709 2.2998036e-05 0)
(0.06198075 2.2633441e-05 0)
(0.061775646 2.230157e-05 0)
(0.061577151 2.1943065e-05 0)
(0.061378087 2.1621871e-05 0)
(0.061185926 2.1268655e-05 0)
(0.060992745 2.0957894e-05 0)
(0.0608068 2.0609191e-05 0)
(0.060619352 2.0308741e-05 0)
(0.060439515 1.996379e-05 0)
(0.060257655 1.9673553e-05 0)
(0.060083828 1.9331663e-05 0)
(0.059907417 1.9051658e-05 0)
(0.059739508 1.8712112e-05 0)
(0.059568411 1.844241e-05 0)
(0.059406338 1.8104561e-05 0)
(0.059240421 1.7845312e-05 0)
(0.059084109 1.7508495e-05 0)
(0.058923242 1.7259943e-05 0)
(0.05877262 1.6923533e-05 0)
(0.058616671 1.6685993e-05 0)
(0.058471677 1.6349379e-05 0)
(0.058320515 1.6123252e-05 0)
(0.058181089 1.5785822e-05 0)
(0.058034579 1.5571622e-05 0)
(0.057900667 1.5232768e-05 0)
(0.057758673 1.503108e-05 0)
(0.057630225 1.4690219e-05 0)
(0.057492603 1.450176e-05 0)
(0.057369572 1.4158266e-05 0)
(0.057236174 1.3983865e-05 0)
(0.057118515 1.3637133e-05 0)
(0.056989185 1.3477736e-05 0)
(0.056876858 1.3127123e-05 0)
(0.056751429 1.2983829e-05 0)
(0.056644395 1.262867e-05 0)
(0.056522689 1.250274e-05 0)
(0.05642091 1.2142311e-05 0)
(0.056302736 1.2035185e-05 0)
(0.056206177 1.1668719e-05 0)
(0.056091328 1.1582032e-05 0)
(0.055999957 1.1208686e-05 0)
(0.055888207 1.1144315e-05 0)
(0.055801993 1.0763156e-05 0)
(0.055693096 1.0723241e-05 0)
(0.05561201 1.0333228e-05 0)
(0.055505695 1.0320239e-05 0)
(0.055429713 9.9201729e-06 0)
(0.055325681 9.9369688e-06 0)
(0.05525478 9.525482e-06 0)
(0.055152699 9.5753699e-06 0)
(0.055086865 9.1508924e-06 0)
(0.054986363 9.2377544e-06 0)
(0.054925588 8.7984033e-06 0)
(0.054826246 8.9268631e-06 0)
(0.054770534 8.4704311e-06 0)
(0.054671874 8.6459877e-06 0)
(0.054621246 8.1698324e-06 0)
(0.054522715 8.3992386e-06 0)
(0.054477222 7.9001368e-06 0)
(0.054378162 8.1917514e-06 0)
(0.054337909 7.6658658e-06 0)
(0.054237508 8.0302398e-06 0)
(0.054202698 7.4729151e-06 0)
(0.054099897 7.9235757e-06 0)
(0.054070937 7.3293275e-06 0)
(0.053964224 7.8831281e-06 0)
(0.053942017 7.2461981e-06 0)
(0.053828876 7.9197028e-06 0)
(0.053815846 7.240481e-06 0)
(0.053690731 8.5533079e-06 0)
(0.48500778 0.020561968 0)
(0.48876577 0.026123116 0)
(0.48430593 0.023583086 0)
(0.47044442 0.017965068 0)
(0.45157791 0.012980216 0)
(0.43042783 0.0097477728 0)
(0.40942577 0.0076797637 0)
(0.38990344 0.0062018508 0)
(0.37224377 0.0050888714 0)
(0.35634904 0.0042539037 0)
(0.34200099 0.0036250062 0)
(0.32901204 0.0031399441 0)
(0.31723083 0.0027545883 0)
(0.30652519 0.0024415289 0)
(0.29677221 0.0021835587 0)
(0.28785841 0.0019685852 0)
(0.27968119 0.0017874435 0)
(0.27215096 0.0016330868 0)
(0.26519014 0.0015001741 0)
(0.25873285 0.0013846499 0)
(0.25272245 0.0012834273 0)
(0.24711093 0.0011940988 0)
(0.2418566 0.0011147772 0)
(0.23692394 0.0010439374 0)
(0.23228165 0.0009803566 0)
(0.22790293 0.00092301722 0)
(0.2237638 0.00087109398 0)
(0.21984368 0.00082388207 0)
(0.21612385 0.00078080764 0)
(0.21258825 0.00074136729 0)
(0.20922202 0.00070515221 0)
(0.20601247 0.00067179297 0)
(0.20294761 0.00064099209 0)
(0.20001728 0.00061247167 0)
(0.19721169 0.00058601137 0)
(0.1945226 0.0005613973 0)
(0.19194194 0.00053846397 0)
(0.18946296 0.00051704349 0)
(0.18707891 0.00049701034 0)
(0.18478423 0.00047822996 0)
(0.1825732 0.00046060674 0)
(0.18044122 0.0004440307 0)
(0.17838341 0.00042842904 0)
(0.17639592 0.00041371017 0)
(0.17447454 0.00039981882 0)
(0.17261604 0.00038667733 0)
(0.17081678 0.00037424402 0)
(0.16907402 0.00036245204 0)
(0.16738458 0.00035127037 0)
(0.16574613 0.00034064068 0)
(0.16415587 0.00033054046 0)
(0.16261182 0.00032091805 0)
(0.1611115 0.0003117578 0)
(0.15965322 0.00030301313 0)
(0.15823476 0.00029467418 0)
(0.15685467 0.00028669834 0)
(0.15551099 0.00027908067 0)
(0.15420243 0.00027178163 0)
(0.15292726 0.0002648003 0)
(0.15168435 0.00025809953 0)
(0.15047214 0.00025168186 0)
(0.14928965 0.00024551217 0)
(0.14813548 0.00023959592 0)
(0.14700874 0.0002338996 0)
(0.1459082 0.00022843102 0)
(0.14483305 0.00022315796 0)
(0.1437822 0.00021809031 0)
(0.1427549 0.000213197 0)
(0.1417502 0.00020848976 0)
(0.14076738 0.00020393829 0)
(0.13980563 0.00019955587 0)
(0.13886426 0.00019531287 0)
(0.13794258 0.00019122399 0)
(0.13703991 0.00018726027 0)
(0.13615569 0.00018343746 0)
(0.13528922 0.00017972712 0)
(0.13444007 0.0001761459 0)
(0.13360754 0.00017266596 0)
(0.13279131 0.00016930474 0)
(0.13199065 0.00016603487 0)
(0.13120537 0.00016287433 0)
(0.13043468 0.00015979624 0)
(0.12967855 0.00015681908 0)
(0.12893611 0.00015391652 0)
(0.12820748 0.00015110737 0)
(0.1274917 0.00014836569 0)
(0.12678906 0.00014571052 0)
(0.12609849 0.0001431165 0)
(0.12542046 0.00014060279 0)
(0.12475375 0.00013814464 0)
(0.12409904 0.00013576102 0)
(0.12345498 0.00013342787 0)
(0.12282242 0.00013116404 0)
(0.12219985 0.00012894618 0)
(0.12158836 0.00012679279 0)
(0.12098624 0.00012468136 0)
(0.12039483 0.00012262979 0)
(0.11981219 0.00012061658 0)
(0.11923992 0.00011865919 0)
(0.11867586 0.00011673689 0)
(0.11812189 0.00011486632 0)
(0.11757559 0.00011302832 0)
(0.11703913 0.00011123801 0)
(0.11650981 0.00010947797 0)
(0.11599014 0.00010776203 0)
(0.11547708 0.00010607423 0)
(0.11497352 0.00010442699 0)
(0.11447607 0.00010280633 0)
(0.11398801 0.00010122263 0)
(0.11350554 9.96643e-05 0)
(0.11303239 9.8139317e-05 0)
(0.11256434 9.6639018e-05 0)
(0.11210558 9.5168275e-05 0)
(0.11165141 9.372198e-05 0)
(0.11120655 9.2301345e-05 0)
(0.11076576 9.0905383e-05 0)
(0.11033435 8.9530958e-05 0)
(0.10990649 8.8181995e-05 0)
(0.10948811 8.6850142e-05 0)
(0.10907274 8.5545113e-05 0)
(0.108667 8.4252466e-05 0)
(0.10826372 8.2988603e-05 0)
(0.10787027 8.1731922e-05 0)
(0.1074787 8.050671e-05 0)
(0.10709722 7.9283033e-05 0)
(0.10671702 7.8094203e-05 0)
(0.1063472 7.6900694e-05 0)
(0.10597803 7.5746247e-05 0)
(0.1056196 7.4580283e-05 0)
(0.10526116 7.345841e-05 0)
(0.10491386 7.2317487e-05 0)
(0.10456586 7.1226626e-05 0)
(0.10422947 7.0108416e-05 0)
(0.10389162 6.9047213e-05 0)
(0.10356593 6.7949532e-05 0)
(0.10323798 6.6916826e-05 0)
(0.10292279 6.5837626e-05 0)
(0.10260448 6.4832498e-05 0)
(0.10229963 6.376985e-05 0)
(0.10199072 6.2791547e-05 0)
(0.10169604 6.1743698e-05 0)
(0.10139631 6.0791707e-05 0)
(0.10111166 5.9756968e-05 0)
(0.10082088 5.8830958e-05 0)
(0.10054612 5.780782e-05 0)
(0.10026407 5.6907662e-05 0)
(0.099999083 5.5894684e-05 0)
(0.099725543 5.5020487e-05 0)
(0.099470227 5.4016375e-05 0)
(0.09920498 5.3168435e-05 0)
(0.098959235 5.2171992e-05 0)
(0.09870206 5.1350841e-05 0)
(0.098465796 5.0360969e-05 0)
(0.09821647 4.9567369e-05 0)
(0.097989606 4.8583068e-05 0)
(0.097747898 4.7818012e-05 0)
(0.097530359 4.6838393e-05 0)
(0.097296032 4.6103142e-05 0)
(0.09708775 4.5127361e-05 0)
(0.096860553 4.4423445e-05 0)
(0.096661465 4.3450778e-05 0)
(0.096441134 4.2779984e-05 0)
(0.096251183 4.1809746e-05 0)
(0.096037438 4.1174211e-05 0)
(0.09585657 4.0205762e-05 0)
(0.095649111 3.9607944e-05 0)
(0.095477276 3.8640677e-05 0)
(0.095275779 3.8083407e-05 0)
(0.095112932 3.711674e-05 0)
(0.094917048 3.6603235e-05 0)
(0.094763147 3.5636594e-05 0)
(0.094572495 3.5170546e-05 0)
(0.094427505 3.4203314e-05 0)
(0.094241667 3.3788932e-05 0)
(0.094105556 3.282046e-05 0)
(0.093924075 3.2462549e-05 0)
(0.09379682 3.1492097e-05 0)
(0.093619193 3.1196166e-05 0)
(0.093500778 3.0222918e-05 0)
(0.093326444 2.9995261e-05 0)
(0.093216868 2.901829e-05 0)
(0.093045203 2.8866203e-05 0)
(0.092944479 2.788441e-05 0)
(0.092774783 2.7816348e-05 0)
(0.092682951 2.6828599e-05 0)
(0.092514427 2.685437e-05 0)
(0.092431561 2.5859571e-05 0)
(0.092263289 2.5990659e-05 0)
(0.092189525 2.4988161e-05 0)
(0.092020417 2.5237786e-05 0)
(0.091955988 2.4228381e-05 0)
(0.091784709 2.4611317e-05 0)
(0.091730024 2.3599316e-05 0)
(0.091554852 2.4130139e-05 0)
(0.091510659 2.3128913e-05 0)
(0.091329193 2.3814553e-05 0)
(0.091296947 2.2860817e-05 0)
(0.091105501 2.368584e-05 0)
(0.091088253 2.2855541e-05 0)
(0.090880927 2.4612108e-05 0)
(0.48431674 0.017835332 0)
(0.49042708 0.024335295 0)
(0.49745928 0.023345333 0)
(0.49888588 0.019096367 0)
(0.4946108 0.014928979 0)
(0.48638782 0.012195004 0)
(0.47625588 0.010413627 0)
(0.46546756 0.0090497791 0)
(0.45455573 0.0079131595 0)
(0.4436973 0.006971477 0)
(0.43297064 0.006198237 0)
(0.42245803 0.00555528 0)
(0.41224272 0.0050090528 0)
(0.40239235 0.0045379004 0)
(0.39295004 0.0041288632 0)
(0.38393707 0.0037727839 0)
(0.37535744 0.003461966 0)
(0.36720441 0.003189616 0)
(0.35946354 0.002949905 0)
(0.35211672 0.0027379191 0)
(0.34514292 0.0025495904 0)
(0.33852077 0.0023815167 0)
(0.33222818 0.0022308832 0)
(0.32624426 0.002095312 0)
(0.32054833 0.0019728264 0)
(0.31512149 0.0018617376 0)
(0.30994539 0.0017606417 0)
(0.30500361 0.0016683209 0)
(0.30028027 0.0015837639 0)
(0.29576137 0.001506076 0)
(0.29143329 0.0014345174 0)
(0.28728421 0.0013684185 0)
(0.28330249 0.0013072297 0)
(0.27947816 0.0012504402 0)
(0.27580127 0.001197636 0)
(0.2722634 0.0011484204 0)
(0.26885601 0.0011024778 0)
(0.26557199 0.0010594943 0)
(0.26240397 0.0010192274 0)
(0.25934591 0.00098142445 0)
(0.25639143 0.00094589798 0)
(0.25353539 0.0009124413 0)
(0.25077223 0.00088090919 0)
(0.24809757 0.00085112958 0)
(0.24550653 0.0008229901 0)
(0.24299535 0.00079634513 0)
(0.24055974 0.00077110799 0)
(0.23819647 0.00074715367 0)
(0.23590174 0.00072441581 0)
(0.23367277 0.00070278573 0)
(0.23150618 0.00068221338 0)
(0.22939956 0.00066260282 0)
(0.22734989 0.0006439173 0)
(0.22535508 0.0006260708 0)
(0.22341244 0.0006090377 0)
(0.22152011 0.00059273976 0)
(0.21967571 0.00057716082 0)
(0.2178776 0.00056222868 0)
(0.21612363 0.00054793506 0)
(0.21441234 0.0005342125 0)
(0.21274183 0.00052105947 0)
(0.21111077 0.00050841243 0)
(0.20951748 0.00049627562 0)
(0.20796073 0.0004845886 0)
(0.20643904 0.00047336041 0)
(0.20495127 0.00046253301 0)
(0.20349614 0.00045211977 0)
(0.20207255 0.00044206465 0)
(0.2006794 0.00043238484 0)
(0.19931564 0.00042302569 0)
(0.19798035 0.00041400769 0)
(0.19667248 0.00040527731 0)
(0.1953913 0.00039685812 0)
(0.19413573 0.00038869749 0)
(0.19290524 0.00038082158 0)
(0.19169871 0.00037317838 0)
(0.1905158 0.00036579633 0)
(0.18935534 0.00035862406 0)
(0.18821716 0.0003516921 0)
(0.18710004 0.00034494949 0)
(0.18600401 0.00033842849 0)
(0.18492772 0.00033207845 0)
(0.18387144 0.00032593334 0)
(0.1828337 0.00031994282 0)
(0.181815 0.00031414229 0)
(0.18081369 0.00030848147 0)
(0.17983055 0.00030299707 0)
(0.17886374 0.00029763904 0)
(0.17791431 0.00029244531 0)
(0.1769802 0.00028736592 0)
(0.17606277 0.00028243968 0)
(0.17515973 0.00027761681 0)
(0.17427273 0.00027293708 0)
(0.17339922 0.00026835085 0)
(0.17254119 0.00026389853 0)
(0.1716958 0.0002595307 0)
(0.17086541 0.00025528832 0)
(0.17004682 0.00025112217 0)
(0.16924283 0.00024707392 0)
(0.16844984 0.00024309448 0)
(0.16767109 0.00023922546 0)
(0.16690258 0.00023541891 0)
(0.16614801 0.00023171586 0)
(0.16540293 0.00022806916 0)
(0.16467156 0.00022451991 0)
(0.16394894 0.00022102136 0)
(0.16323987 0.00021761434 0)
(0.1625388 0.00021425331 0)
(0.16185118 0.000210978 0)
(0.16117083 0.00020774452 0)
(0.16050388 0.00020459109 0)
(0.15984348 0.00020147615 0)
(0.15919648 0.00019843553 0)
(0.15855528 0.00019543068 0)
(0.15792757 0.00019249446 0)
(0.15730491 0.000189592 0)
(0.15669587 0.00018675229 0)
(0.15609111 0.00018394512 0)
(0.15550018 0.0001811946 0)
(0.15491274 0.00017847621 0)
(0.15433939 0.00017580807 0)
(0.15376871 0.00017317249 0)
(0.15321246 0.00017058028 0)
(0.15265804 0.00016802207 0)
(0.15211845 0.00016549987 0)
(0.15157979 0.00016301405 0)
(0.15105646 0.00016055625 0)
(0.15053312 0.00015813836 0)
(0.15002568 0.0001557398 0)
(0.14951723 0.00015338577 0)
(0.14902533 0.00015104157 0)
(0.14853137 0.00014874779 0)
(0.14805472 0.00014645346 0)
(0.14757487 0.00014421672 0)
(0.14711318 0.00014196809 0)
(0.14664707 0.00013978558 0)
(0.14620009 0.0001375788 0)
(0.14574739 0.00013544812 0)
(0.14531488 0.00013327964 0)
(0.14487526 0.00013119877 0)
(0.14445702 0.00012906537 0)
(0.14403015 0.0001270327 0)
(0.14362599 0.00012493143 0)
(0.14321157 0.00012294571 0)
(0.14282133 0.00012087395 0)
(0.14241905 0.00011893433 0)
(0.14204257 0.00011688971 0)
(0.14165213 0.00011499574 0)
(0.14128928 0.00011297624 0)
(0.14091038 0.00011112782 0)
(0.14056104 0.00010913166 0)
(0.14019337 0.00010732916 0)
(0.13985743 0.00010535485 0)
(0.13950069 0.000103599 0)
(0.13917806 0.00010164534 0)
(0.13883192 9.9937318e-05 0)
(0.13852251 9.8003381e-05 0)
(0.13818664 9.6344818e-05 0)
(0.13789038 9.4429916e-05 0)
(0.13756444 9.2822884e-05 0)
(0.13728127 9.0926646e-05 0)
(0.13696487 8.937367e-05 0)
(0.13669473 8.7495934e-05 0)
(0.13638749 8.6000108e-05 0)
(0.13613033 8.4140934e-05 0)
(0.13583183 8.2705863e-05 0)
(0.1355876 8.0865546e-05 0)
(0.13529739 7.9495408e-05 0)
(0.13506606 7.7674458e-05 0)
(0.13478364 7.6374023e-05 0)
(0.13456518 7.4573161e-05 0)
(0.13429002 7.3347908e-05 0)
(0.13408441 7.1567997e-05 0)
(0.13381592 7.0424158e-05 0)
(0.13362315 6.8666247e-05 0)
(0.13336069 6.7610891e-05 0)
(0.13318076 6.5876181e-05 0)
(0.13292363 6.4917318e-05 0)
(0.13275655 6.3207238e-05 0)
(0.13250396 6.2353903e-05 0)
(0.13234979 6.0670116e-05 0)
(0.13210087 5.9932604e-05 0)
(0.13195965 5.8277103e-05 0)
(0.13171343 5.7667001e-05 0)
(0.13158527 5.6042565e-05 0)
(0.13134064 5.5572811e-05 0)
(0.13122571 5.3983543e-05 0)
(0.1309814 5.366839e-05 0)
(0.13087995 5.2121166e-05 0)
(0.13063446 5.1975379e-05 0)
(0.13054688 5.0482678e-05 0)
(0.1302984 5.0519774e-05 0)
(0.13022531 4.9105127e-05 0)
(0.12997155 4.9332314e-05 0)
(0.12991398 4.8041364e-05 0)
(0.12965192 4.8448699e-05 0)
(0.12961155 4.7362055e-05 0)
(0.12933706 4.7941826e-05 0)
(0.12931657 4.7124406e-05 0)
(0.12902466 4.8889896e-05 0)
(0.48572082 0.016050587 0)
(0.490058 0.022583104 0)
(0.49782263 0.022343566 0)
(0.50336609 0.018866391 0)
(0.50488053 0.015206863 0)
(0.50313597 0.01280995 0)
(0.49965231 0.011328329 0)
(0.49539054 0.01022247 0)
(0.49068221 0.0092713552 0)
(0.48557619 0.0084490976 0)
(0.48007851 0.0077525836 0)
(0.47423648 0.0071568024 0)
(0.46812747 0.0066333136 0)
(0.46183512 0.0061635359 0)
(0.45543392 0.0057382254 0)
(0.4489865 0.0053524295 0)
(0.44254316 0.0050023269 0)
(0.43614496 0.0046842548 0)
(0.42982401 0.0043948023 0)
(0.423606 0.0041308919 0)
(0.41750991 0.0038898516 0)
(0.41155032 0.0036693076 0)
(0.40573683 0.0034671905 0)
(0.40007629 0.0032816283 0)
(0.39457196 0.0031109814 0)
(0.38922561 0.0029537543 0)
(0.38403647 0.0028086484 0)
(0.37900322 0.0026744693 0)
(0.37412267 0.0025501906 0)
(0.36939174 0.0024348573 0)
(0.36480596 0.0023276589 0)
(0.36036134 0.0022278295 0)
(0.35605282 0.0021347291 0)
(0.35187606 0.0020477403 0)
(0.34782585 0.0019663568 0)
(0.34389783 0.0018900778 0)
(0.34008687 0.0018185016 0)
(0.3363888 0.0017512176 0)
(0.33279871 0.0016879065 0)
(0.3293127 0.0016282281 0)
(0.32592617 0.0015719289 0)
(0.32263551 0.0015187237 0)
(0.31943647 0.0014684117 0)
(0.31632576 0.0014207508 0)
(0.31329944 0.0013755825 0)
(0.31035455 0.0013326985 0)
(0.30748748 0.0012919743 0)
(0.30469554 0.0012532289 0)
(0.30197543 0.0012163653 0)
(0.29932473 0.0011812242 0)
(0.29674044 0.0011477314 0)
(0.29422035 0.0011157448 0)
(0.29176175 0.0010852092 0)
(0.28936263 0.001055996 0)
(0.28702054 0.001028066 0)
(0.28473362 0.0010013016 0)
(0.28249968 0.00097567728 0)
(0.28031702 0.00095108388 0)
(0.27818366 0.00092750769 0)
(0.27609801 0.00090484613 0)
(0.27405833 0.00088309574 0)
(0.27206311 0.00086215937 0)
(0.27011083 0.00084204242 0)
(0.26820003 0.00082265195 0)
(0.26632942 0.00080400098 0)
(0.26449757 0.00078599979 0)
(0.26270339 0.00076866833 0)
(0.26094548 0.00075191939 0)
(0.25922296 0.0007357792 0)
(0.25753439 0.00072016219 0)
(0.25587914 0.00070510016 0)
(0.25425571 0.00069050872 0)
(0.25266372 0.00067642491 0)
(0.25110158 0.00066276515 0)
(0.24956914 0.0006495711 0)
(0.24806474 0.00063675947 0)
(0.24658848 0.00062437622 0)
(0.24513854 0.00061233826 0)
(0.24371532 0.00060069559 0)
(0.24231685 0.00058936492 0)
(0.24094379 0.00057839986 0)
(0.23959399 0.00056771671 0)
(0.23826844 0.00055737271 0)
(0.23696475 0.00054728358 0)
(0.23568425 0.0005375099 0)
(0.2344243 0.00052796641 0)
(0.23318657 0.00051871698 0)
(0.23196815 0.00050967541 0)
(0.23077111 0.00050090873 0)
(0.22959218 0.00049232962 0)
(0.22843387 0.00048400798 0)
(0.22729254 0.0004758552 0)
(0.22617116 0.0004679443 0)
(0.22506568 0.00046018525 0)
(0.22397955 0.0004526538 0)
(0.22290827 0.0004452585 0)
(0.22185585 0.00043807789 0)
(0.22081726 0.00043101888 0)
(0.21979711 0.00042416301 0)
(0.2187898 0.00041741554 0)
(0.21780057 0.00041086008 0)
(0.21682321 0.00040440107 0)
(0.21586367 0.00039812421 0)
(0.21491505 0.00039193218 0)
(0.21398405 0.00038591365 0)
(0.21306301 0.0003799692 0)
(0.21215948 0.00037418995 0)
(0.21126497 0.00036847525 0)
(0.21038791 0.00036291788 0)
(0.20951893 0.00035741633 0)
(0.20866743 0.00035206458 0)
(0.20782304 0.00034676097 0)
(0.20699626 0.00034159987 0)
(0.2061756 0.00033647998 0)
(0.20537275 0.00033149557 0)
(0.20457501 0.00032654636 0)
(0.20379535 0.00032172563 0)
(0.20301977 0.00031693503 0)
(0.20226264 0.00031226587 0)
(0.20150852 0.00030762276 0)
(0.20077329 0.0003030939 0)
(0.20003996 0.00029858804 0)
(0.19932608 0.00029418888 0)
(0.19861292 0.00028981085 0)
(0.19791985 0.00028553162 0)
(0.19722628 0.00028127277 0)
(0.19655356 0.00027710429 0)
(0.19587902 0.00027295676 0)
(0.1952262 0.00026889057 0)
(0.19457018 0.00026484717 0)
(0.19393687 0.00026087533 0)
(0.19329889 0.00025692958 0)
(0.19268473 0.00025304483 0)
(0.19206431 0.00024919088 0)
(0.19146897 0.0002453865 0)
(0.19086569 0.00024161917 0)
(0.19028888 0.00023788902 0)
(0.1897023 0.00023420376 0)
(0.18914375 0.00023054224 0)
(0.18857348 0.0002269351 0)
(0.18803296 0.00022333721 0)
(0.1874786 0.0002198049 0)
(0.18695591 0.00021626612 0)
(0.18641707 0.00021280591 0)
(0.18591202 0.00020932234 0)
(0.18538833 0.00020593213 0)
(0.18490076 0.00020250035 0)
(0.18439184 0.00019917868 0)
(0.18392161 0.00019579587 0)
(0.1834271 0.00019254185 0)
(0.18297409 0.00018920571 0)
(0.1824936 0.00018601912 0)
(0.18205771 0.00018272789 0)
(0.18159084 0.00017960911 0)
(0.18117199 0.0001763616 0)
(0.18071835 0.00017331168 0)
(0.18031646 0.00017010724 0)
(0.17987564 0.00016712792 0)
(0.17949065 0.00016396641 0)
(0.1790622 0.00016106006 0)
(0.17869407 0.00015794197 0)
(0.17827753 0.00015511167 0)
(0.17792622 0.00015203796 0)
(0.17752109 0.00014928759 0)
(0.17718659 0.00014625971 0)
(0.17679234 0.00014359388 0)
(0.17647464 0.00014061384 0)
(0.17609068 0.00013803795 0)
(0.17578978 0.00013510828 0)
(0.1754155 0.00013262854 0)
(0.1751314 0.00012975228 0)
(0.17476612 0.00012737586 0)
(0.17449885 0.0001245565 0)
(0.17414183 0.00012229154 0)
(0.17389143 0.0001195331 0)
(0.17354185 0.00011738879 0)
(0.17330837 0.00011469586 0)
(0.17296535 0.00011268248 0)
(0.17274887 0.00011006036 0)
(0.17241141 0.00010818936 0)
(0.17221204 0.00010564414 0)
(0.17187904 0.00010392832 0)
(0.17169692 0.00010146728 0)
(0.17136716 9.9920545e-05 0)
(0.17120249 9.7552991e-05 0)
(0.17087459 9.6190185e-05 0)
(0.17072764 9.3928656e-05 0)
(0.1704 9.2764971e-05 0)
(0.17027116 9.0627852e-05 0)
(0.16994194 8.9677222e-05 0)
(0.16983176 8.7693128e-05 0)
(0.16949877 8.6965694e-05 0)
(0.16940802 8.5180513e-05 0)
(0.16906859 8.4678328e-05 0)
(0.16899842 8.3163738e-05 0)
(0.16864924 8.2881981e-05 0)
(0.1686012 8.1723704e-05 0)
(0.16823827 8.1730034e-05 0)
(0.16821431 8.0926625e-05 0)
(0.1678335 8.2331459e-05 0)
(0.48712614 0.014785366 0)
(0.49045995 0.021076841 0)
(0.49712315 0.021400085 0)
(0.50294638 0.018455377 0)