/*--------------------------------*- C++ -*----------------------------------*\
| =========                 |                                                 |
| \\      /  F ield         | OpenFOAM: The Open Source CFD Toolbox           |
|  \\    /   O peration     | Version:  5.x                                   |
|   \\  /    A nd           | Web:      www.OpenFOAM.org                      |
|    \\/     M anipulation  |                                                 |
\*---------------------------------------------------------------------------*/
FoamFile
{
    version     2.0;
    format      ascii;
    class       volScalarField;
    location    "5000";
    object      k;
}
// * * * * * * * * * * * * * * * * * * * * * * * * * * * * * * * * * * * * * //

dimensions      [0 2 -2 0 0 0 0];

internalField   nonuniform List<scalar> 
209825
(
0.0010240154
0.00093196608
0.00085696045
0.00079361087
0.00074066168
0.00069451878
0.0006553282
0.00062027614
0.00059022044
0.00056271894
0.00053902519
0.00051688864
0.000497796
0.00047960476
0.00046394274
0.00044873598
0.00043569687
0.0004228018
0.00041181061
0.00040074246
0.00039137894
0.00038177981
0.00037372982
0.00036532986
0.00035835393
0.0003509459
0.00034485841
0.00033828055
0.0003329354
0.00032705963
0.00032234033
0.00031706389
0.00031287644
0.00030811596
0.00030438373
0.0003000708
0.00029673071
0.00029280869
0.00028980838
0.00028622993
0.0002835256
0.00028025084
0.0002778056
0.00027480066
0.00027258324
0.00026981915
0.00026780291
0.00026525474
0.00026341684
0.00026106299
0.00025938376
0.00025720541
0.00025566786
0.00025364849
0.00025223789
0.00025036296
0.00024906645
0.00024732309
0.00024612946
0.0002445062
0.00024340562
0.00024189221
0.00024087607
0.00023946329
0.00023852401
0.00023720355
0.00023633445
0.00023509876
0.00023429398
0.00023313618
0.00023239054
0.00023130434
0.00023062231
0.00022961783
0.00022897309
0.00022798542
0.00022736144
0.00022638903
0.00022578631
0.00022482736
0.0002242468
0.00022329909
0.00022274207
0.00022180299
0.00022127134
0.0002203381
0.00021983361
0.00021890442
0.00021842694
0.00021750457
0.0002170489
0.000216093
0.00021570522
0.00021980291
0.00022426016
0.00028457385
0.0010240152
0.00093196631
0.00085696022
0.00079361113
0.00074066143
0.00069451906
0.00065532793
0.00062027643
0.00059022015
0.00056271925
0.00053902488
0.00051688896
0.00049779568
0.00047960509
0.00046394242
0.00044873631
0.00043569655
0.00042280213
0.0004118103
0.00040074278
0.00039137864
0.00038178012
0.00037372952
0.00036533015
0.00035835366
0.00035094617
0.00034485816
0.0003382808
0.00033293517
0.00032705985
0.00032234012
0.00031706408
0.00031287627
0.00030811612
0.00030438359
0.00030007093
0.0002967306
0.00029280879
0.0002898083
0.00028623
0.00028352555
0.00028025088
0.00027780558
0.00027480067
0.00027258325
0.00026981914
0.00026780294
0.00026525471
0.00026341689
0.00026106294
0.00025938383
0.00025720534
0.00025566794
0.00025364842
0.00025223796
0.00025036289
0.00024906652
0.00024732304
0.00024612951
0.00024450617
0.00024340564
0.00024189222
0.00024087604
0.00023946336
0.00023852392
0.00023720369
0.00023633427
0.000235099
0.00023429368
0.00023313654
0.0002323901
0.00023130487
0.0002306217
0.00022961855
0.00022897224
0.00022798644
0.00022736023
0.00022639045
0.00022578464
0.00022482932
0.0002242445
0.00022330176
0.00022273899
0.0002218065
0.00022126743
0.00022034233
0.00021982932
0.00021890831
0.0002184242
0.0002175053
0.0002170502
0.00021602243
0.00021609249
0.00022000972
0.00022439187
0.00027179432
0.0010240148
0.00093196678
0.00085695976
0.00079361166
0.00074066091
0.00069451964
0.00065532736
0.00062027705
0.00059021954
0.00056271989
0.00053902425
0.00051688963
0.00049779503
0.00047960576
0.00046394176
0.00044873699
0.00043569589
0.0004228028
0.00041180965
0.00040074343
0.00039137801
0.00038178075
0.00037372892
0.00036533075
0.00035835309
0.00035094673
0.00034485763
0.00033828132
0.0003329347
0.00032706031
0.0003223397
0.00031706449
0.0003128759
0.00030811647
0.00030438328
0.00030007122
0.00029673036
0.00029280901
0.00028980812
0.00028623016
0.00028352544
0.00028025097
0.00027780552
0.0002748007
0.00027258325
0.00026981912
0.00026780299
0.00026525464
0.00026341698
0.00026106283
0.00025938395
0.00025720521
0.00025566808
0.00025364828
0.00025223811
0.00025036275
0.00024906666
0.00024732292
0.00024612962
0.00024450609
0.00024340569
0.00024189222
0.00024087601
0.00023946345
0.00023852376
0.00023720392
0.00023633396
0.00023509942
0.00023429316
0.0002331372
0.0002323893
0.00023130582
0.0002306206
0.00022961986
0.00022897067
0.00022798829
0.00022735804
0.00022639305
0.00022578159
0.00022483291
0.00022424029
0.00022330669
0.00022273327
0.00022181311
0.00022125989
0.00022035074
0.00021982026
0.00021891743
0.00021841629
0.00021750973
0.00021705211
0.00021601679
0.00021617398
0.00022000274
0.00022417523
0.00025920903
0.0010240142
0.0009319675
0.00085695905
0.00079361247
0.0007406601
0.00069452052
0.00065532648
0.00062027799
0.00059021861
0.00056272089
0.00053902327
0.00051689065
0.00049779402
0.00047960681
0.00046394074
0.00044873804
0.00043569487
0.00042280384
0.00041180864
0.00040074445
0.00039137703
0.00038178173
0.00037372798
0.00036533168
0.0003583522
0.00035094761
0.00034485681
0.00033828212
0.00033293395
0.00032706104
0.00032233903
0.00031706513
0.00031287532
0.00030811702
0.00030438279
0.00030007168
0.00029672996
0.00029280937
0.00028980782
0.00028623042
0.00028352523
0.00028025114
0.00027780541
0.00027480078
0.00027258322
0.00026981912
0.00026780304
0.00026525457
0.0002634171
0.0002610627
0.00025938413
0.00025720503
0.00025566829
0.00025364807
0.00025223834
0.00025036254
0.00024906688
0.00024732272
0.0002461298
0.00024450595
0.00024340581
0.00024189216
0.00024087602
0.00023946352
0.00023852362
0.00023720417
0.00023633361
0.0002350999
0.00023429255
0.00023313798
0.00023238836
0.00023130698
0.00023061926
0.00022962146
0.00022896875
0.00022799057
0.00022735533
0.00022639626
0.00022577779
0.00022483739
0.00022423503
0.00022331289
0.00022272599
0.00022182166
0.00022124988
0.00022036244
0.00021980669
0.00021893293
0.00021839936
0.0002175256
0.00021704728
0.00021606076
0.00021595198
0.00021934092
0.00022318004
0.00024806161
0.0010240133
0.00093196849
0.00085695807
0.00079361358
0.000740659
0.00069452173
0.00065532528
0.00062027929
0.00059021733
0.00056272225
0.00053902193
0.00051689206
0.00049779264
0.00047960824
0.00046393933
0.00044873948
0.00043569347
0.00042280527
0.00041180725
0.00040074586
0.00039137567
0.00038178309
0.00037372668
0.00036533298
0.00035835097
0.00035094883
0.00034485565
0.00033828326
0.00033293289
0.00032706208
0.00032233808
0.00031706605
0.00031287448
0.00030811782
0.00030438207
0.00030007235
0.00029672937
0.00029280992
0.00028980736
0.00028623084
0.0002835249
0.00028025143
0.0002778052
0.00027480095
0.00027258313
0.00026981917
0.00026780306
0.00026525452
0.00026341722
0.00026106256
0.00025938432
0.00025720482
0.00025566855
0.00025364781
0.00025223864
0.00025036225
0.00024906719
0.00024732244
0.00024613009
0.0002445057
0.00024340604
0.00024189199
0.00024087615
0.00023946348
0.0002385236
0.0002372043
0.00023633339
0.00023510026
0.00023429206
0.00023313865
0.00023238753
0.00023130803
0.00023061804
0.00022962295
0.00022896696
0.00022799273
0.00022735276
0.00022639932
0.00022577417
0.00022484168
0.00022422995
0.0002233189
0.00022271886
0.00022183017
0.00022123968
0.00022037486
0.00021979132
0.00021895257
0.00021837315
0.00021756323
0.00021698642
0.00021621229
0.00021560892
0.00021726611
0.00022097277
0.00023795801
0.0010240123
0.00093196976
0.00085695682
0.000793615
0.0007406576
0.00069452329
0.00065532374
0.00062028095
0.00059021568
0.000562724
0.00053902021
0.00051689387
0.00049779086
0.00047961009
0.00046393752
0.00044874134
0.00043569165
0.00042280713
0.00041180545
0.00040074768
0.00039137391
0.00038178487
0.00037372497
0.00036533468
0.00035834934
0.00035095045
0.00034485413
0.00033828476
0.00033293147
0.00032706345
0.00032233679
0.0003170673
0.00031287334
0.00030811892
0.00030438108
0.00030007329
0.00029672854
0.0002928107
0.00028980668
0.00028623146
0.00028352438
0.0002802519
0.00027780484
0.00027480126
0.00027258292
0.00026981933
0.00026780299
0.00026525454
0.00026341728
0.00026106246
0.0002593845
0.00025720462
0.00025566881
0.00025364753
0.00025223897
0.00025036191
0.00024906756
0.00024732207
0.00024613047
0.00024450534
0.0002434064
0.00024189167
0.00024087645
0.00023946324
0.0002385238
0.00023720419
0.00023633343
0.00023510033
0.00023429189
0.00023313895
0.0002323871
0.00023130863
0.00023061731
0.00022962388
0.0002289658
0.00022799416
0.00022735104
0.0002264014
0.00022577169
0.00022484466
0.00022422644
0.0002233231
0.00022271387
0.00022183617
0.00022123241
0.00022038389
0.00021977984
0.00021896784
0.00021835168
0.00021759588
0.00021693208
0.00021630967
0.00021544478
0.00021571458
0.00021799586
0.00022669861
0.0010240109
0.00093197132
0.00085695528
0.00079361675
0.00074065586
0.0006945252
0.00065532185
0.000620283
0.00059021366
0.00056272615
0.00053901808
0.00051689611
0.00049778866
0.00047961238
0.00046393527
0.00044874366
0.00043568938
0.00042280944
0.0004118032
0.00040074997
0.00039137169
0.0003817871
0.00037372283
0.00036533683
0.00035834728
0.00035095249
0.00034485218
0.00033828668
0.00033292966
0.00032706524
0.00032233513
0.00031706892
0.00031287184
0.00030812037
0.00030437975
0.00030007456
0.00029672739
0.00029281179
0.00028980572
0.00028623236
0.00028352361
0.0002802526
0.00027780426
0.00027480178
0.00027258252
0.00026981967
0.00026780277
0.00026525471
0.00026341721
0.00026106247
0.00025938458
0.00025720449
0.00025566903
0.00025364728
0.0002522393
0.00025036156
0.00024906798
0.00024732165
0.00024613095
0.00024450487
0.00024340692
0.00024189118
0.00024087697
0.00023946276
0.00023852429
0.00023720375
0.00023633386
0.00023509997
0.00023429224
0.00023313869
0.00023238732
0.0002313085
0.00023061738
0.00022962391
0.00022896571
0.00022799437
0.00022735073
0.00022640186
0.00022577112
0.00022484539
0.00022422556
0.00022332417
0.00022271263
0.00022183765
0.00022123073
0.00022038583
0.00021977769
0.0002189701
0.00021834985
0.00021759556
0.00021694026
0.00021627491
0.00021555549
0.00021501553
0.00021559847
0.00021906679
0.0010240094
0.00093197319
0.00085695343
0.00079361885
0.00074065379
0.00069452749
0.00065531958
0.00062028546
0.00059021122
0.00056272874
0.00053901552
0.0005168988
0.000497786
0.00047961514
0.00046393256
0.00044874646
0.00043568665
0.00042281224
0.00041180046
0.00040075274
0.000391369
0.00038178982
0.00037372019
0.00036533947
0.00035834475
0.00035095502
0.00034484976
0.00033828908
0.00033292738
0.00032706748
0.00032233301
0.00031707099
0.0003128699
0.00030812225
0.00030437801
0.00030007625
0.00029672585
0.00029281326
0.0002898044
0.00028623361
0.0002835225
0.00028025364
0.00027780337
0.0002748026
0.00027258184
0.00026982028
0.0002678023
0.00026525512
0.00026341694
0.00026106268
0.0002593845
0.00025720452
0.00025566912
0.00025364713
0.00025223955
0.00025036127
0.00024906837
0.00024732122
0.00024613147
0.00024450433
0.00024340754
0.00024189053
0.00024087769
0.00023946203
0.00023852509
0.00023720295
0.00023633473
0.0002350991
0.00023429316
0.00023313776
0.00023238831
0.0002313075
0.00023061841
0.00022962284
0.00022896688
0.00022799314
0.0002273521
0.00022640037
0.00022577281
0.00022484352
0.00022422775
0.00022332164
0.00022271568
0.00022183397
0.00022123537
0.00022037988
0.00021978571
0.00021895887
0.00021836659
0.00021756909
0.00021698482
0.00021619636
0.00021569287
0.00021475909
0.00021484583
0.00021629078
0.0010240075
0.00093197537
0.00085695128
0.00079362129
0.00074065136
0.00069453017
0.00065531691
0.00062028834
0.00059020837
0.00056273178
0.0005390125
0.00051690197
0.00049778287
0.0004796184
0.00046392935
0.00044874977
0.0004356834
0.00042281557
0.00041179721
0.00040075606
0.00039136577
0.00038179309
0.00037371703
0.00036534266
0.00035834167
0.0003509581
0.0003448468
0.00033829202
0.00033292457
0.00032707026
0.00032233037
0.00031707359
0.00031286745
0.00030812465
0.00030437577
0.00030007843
0.00029672383
0.00029281521
0.00028980261
0.00028623533
0.00028352095
0.00028025512
0.00027780205
0.00027480383
0.00027258077
0.00026982127
0.00026780146
0.00026525587
0.00026341634
0.00026106321
0.00025938413
0.00025720481
0.00025566897
0.00025364721
0.00025223961
0.00025036114
0.00024906864
0.00024732089
0.00024613193
0.0002445038
0.00024340819
0.00024188982
0.00024087853
0.00023946113
0.00023852612
0.00023720185
0.00023633596
0.0002350978
0.00023429461
0.00023313623
0.00023239
0.00023130571
0.00023062034
0.00022962077
0.00022896923
0.00022799057
0.00022735502
0.00022639713
0.00022577652
0.00022483933
0.0002242326
0.00022331607
0.00022272224
0.00022182623
0.00022124468
0.00022036856
0.00021979978
0.00021894115
0.00021838931
0.00021754002
0.00021702078
0.00021615781
0.00021571234
0.00021473795
0.00021462999
0.00021527233
0.0010240054
0.00093197788
0.00085694881
0.00079362411
0.00074064856
0.00069453326
0.00065531384
0.00062029166
0.00059020507
0.0005627353
0.00053900902
0.00051690564
0.00049777924
0.00047962218
0.00046392562
0.00044875363
0.0004356796
0.00042281947
0.00041179339
0.00040075995
0.00039136196
0.00038179694
0.00037371327
0.00036534645
0.000358338
0.00035096178
0.00034484325
0.00033829557
0.00033292116
0.00032707365
0.00032232713
0.0003170768
0.0003128644
0.00030812765
0.00030437293
0.00030008121
0.00029672122
0.00029281775
0.00028980024
0.00028623762
0.00028351883
0.00028025715
0.0002778002
0.00027480561
0.00027257918
0.00026982278
0.00026780014
0.00026525711
0.00026341528
0.00026106418
0.00025938333
0.00025720552
0.00025566844
0.00025364766
0.00025223934
0.00025036132
0.00024906862
0.00024732081
0.00024613218
0.00024450346
0.00024340871
0.0002418892
0.00024087932
0.00023946023
0.00023852721
0.00023720065
0.00023633736
0.00023509626
0.00023429636
0.00023313433
0.00023239214
0.00023130339
0.00023062285
0.00022961801
0.00022897237
0.00022798711
0.00022735896
0.00022639275
0.0002257815
0.00022483374
0.00022423898
0.00022330884
0.00022273054
0.00022181677
0.00022125562
0.000220356
0.00021981428
0.00021892465
0.00021840771
0.00021752071
0.00021703859
0.00021614664
0.00021570955
0.00021475741
0.00021456899
0.00021488911
0.001024003
0.00093198073
0.000856946
0.00079362731
0.00074064539
0.00069453677
0.00065531035
0.00062029544
0.00059020131
0.00056273931
0.00053900504
0.00051690983
0.00049777509
0.00047962652
0.00046392133
0.00044875807
0.00043567523
0.00042282397
0.00041178897
0.00040076447
0.00039135753
0.00038180144
0.00037370887
0.00036535089
0.00035833367
0.00035096614
0.00034483902
0.00033829981
0.00033291706
0.00032707773
0.00032232319
0.0003170807
0.00031286065
0.00030813136
0.00030436939
0.00030008469
0.00029671791
0.000292821
0.00028979717
0.00028624061
0.00028351603
0.00028025988
0.00027779766
0.00027480806
0.00027257692
0.00026982495
0.00026779816
0.00026525899
0.0002634136
0.00026106577
0.00025938194
0.00025720681
0.00025566734
0.00025364865
0.00025223854
0.00025036201
0.00024906814
0.00024732119
0.00024613202
0.00024450351
0.00024340887
0.00024188891
0.00024087983
0.00023945958
0.00023852808
0.00023719962
0.00023633863
0.00023509483
0.00023429805
0.00023313245
0.0002323943
0.00023130102
0.00023062546
0.00022961514
0.00022897566
0.00022798347
0.00022736309
0.00022638818
0.00022578667
0.00022482802
0.00022424542
0.00022330172
0.0002227385
0.00022180801
0.00022126528
0.00022034557
0.0002198254
0.00021891329
0.00021841871
0.00021751129
0.00021704498
0.00021614469
0.00021570786
0.0002147727
0.00021455134
0.00021475089
0.0010240004
0.00093198392
0.00085694284
0.0007936309
0.00074064182
0.00069454072
0.00065530642
0.0006202997
0.00059019707
0.00056274383
0.00053900055
0.00051691457
0.00049777039
0.00047963144
0.00046391647
0.00044876311
0.00043567024
0.0004228291
0.00041178391
0.00040076965
0.00039135244
0.00038180663
0.00037370379
0.00036535605
0.00035832863
0.00035097123
0.00034483406
0.0003383048
0.00033291221
0.00032708259
0.00032231849
0.0003170854
0.00031285612
0.00030813586
0.00030436505
0.00030008899
0.00029671379
0.00029282507
0.00028979329
0.00028624443
0.0002835124
0.00028026343
0.0002777943
0.00027481134
0.00027257384
0.00026982794
0.00026779537
0.00026526169
0.00026341111
0.00026106816
0.00025937976
0.00025720889
0.00025566548
0.0002536504
0.00025223701
0.00025036343
0.00024906694
0.00024732226
0.00024613117
0.00024450422
0.00024340839
0.00024188926
0.00024087973
0.00023945953
0.00023852838
0.00023719916
0.00023633935
0.00023509393
0.00023429922
0.00023313109
0.00023239594
0.00023129918
0.00023062755
0.00022961282
0.00022897836
0.00022798049
0.0002273665
0.00022638444
0.00022579089
0.00022482343
0.00022425051
0.00022329625
0.00022274445
0.00022180174
0.00022127187
0.00022033893
0.00021983193
0.00021890734
0.00021842371
0.00021750784
0.00021704666
0.00021614459
0.00021570758
0.00021478636
0.00021453626
0.00021469786
0.0010239974
0.00093198746
0.00085693934
0.00079363489
0.00074063785
0.00069454511
0.00065530205
0.00062030444
0.00059019235
0.00056274888
0.00053899552
0.00051691988
0.00049776511
0.00047963695
0.00046391099
0.00044876879
0.00043566461
0.0004228349
0.00041177817
0.00040077554
0.00039134664
0.00038181255
0.00037369796
0.00036536197
0.00035832281
0.00035097711
0.0003448283
0.00033831061
0.00033290654
0.00032708829
0.00032231293
0.00031709097
0.00031285071
0.00030814127
0.00030435981
0.0003000942
0.00029670875
0.00029283007
0.00028978847
0.00028624921
0.00028350781
0.00028026796
0.00027778997
0.00027481559
0.00027256978
0.00026983192
0.0002677916
0.00026526537
0.00026340764
0.00026107154
0.0002593766
0.00025721195
0.00025566264
0.00025365314
0.0002522345
0.00025036582
0.00024906478
0.0002473243
0.00024612936
0.0002445059
0.00024340695
0.00024189056
0.00024087867
0.00023946045
0.00023852771
0.00023719968
0.00023633909
0.00023509404
0.00023429937
0.00023313079
0.0002323965
0.00023129847
0.00023062849
0.00022961173
0.00022897974
0.00022797895
0.00022736834
0.00022638243
0.00022579319
0.00022482097
0.00022425322
0.00022329344
0.00022274741
0.00022179883
0.00022127475
0.00022033633
0.00021983421
0.00021890564
0.00021842483
0.00021750739
0.00021704672
0.00021614465
0.0002157077
0.00021480134
0.00021451754
0.00021466633
0.0010239941
0.00093199136
0.00085693549
0.00079363929
0.00074063348
0.00069454995
0.00065529722
0.00062030968
0.00059018712
0.00056275446
0.00053898996
0.00051692576
0.00049775926
0.00047964308
0.0004639049
0.00044877513
0.00043565832
0.0004228414
0.00041177173
0.00040078215
0.0003913401
0.00038181924
0.00037369135
0.0003653687
0.00035831618
0.00035098384
0.00034482168
0.0003383173
0.00033289997
0.00032709492
0.00032230644
0.00031709749
0.00031284433
0.00030814766
0.00030435358
0.00030010044
0.00029670268
0.00029283613
0.00028978259
0.00028625506
0.00028350215
0.00028027358
0.00027778454
0.00027482098
0.0002725646
0.00026983704
0.00026778668
0.00026527022
0.000263403
0.0002610761
0.00025937225
0.00025721621
0.0002556586
0.00025365708
0.00025223078
0.00025036944
0.00024906138
0.00024732759
0.0002461263
0.00024450885
0.00024340424
0.00024189316
0.0002408763
0.0002394627
0.00023852569
0.00023720159
0.00023633741
0.00023509561
0.00023429802
0.00023313204
0.00023239546
0.00023129942
0.00023062776
0.00022961243
0.00022897921
0.00022797944
0.00022736799
0.00022638277
0.00022579295
0.00022482125
0.00022425298
0.0002232938
0.000222747
0.00022179946
0.00022127395
0.00022033745
0.00021983286
0.00021890729
0.00021842311
0.00021750907
0.00021704551
0.00021614513
0.00021570805
0.00021481706
0.00021449717
0.00021463796
0.0010239906
0.00093199561
0.00085693128
0.00079364409
0.0007406287
0.00069455525
0.00065529194
0.00062031541
0.0005901814
0.00056276059
0.00053898385
0.00051693222
0.00049775281
0.00047964984
0.00046389817
0.00044878213
0.00043565136
0.0004228486
0.00041176458
0.00040078951
0.00039133279
0.00038182673
0.00037368394
0.00036537626
0.00035830871
0.00035099145
0.00034481417
0.00033832491
0.00033289246
0.0003271025
0.00032229898
0.00031710502
0.00031283693
0.00030815511
0.00030434628
0.00030010777
0.0002966955
0.00029284332
0.00028977556
0.00028626208
0.00028349529
0.00028028042
0.00027777787
0.00027482761
0.00027255815
0.00026984345
0.00026778046
0.00026527639
0.00026339703
0.00026108201
0.00025936654
0.00025722185
0.00025565317
0.00025366244
0.00025222563
0.00025037452
0.00024905652
0.00024733237
0.00024612174
0.00024451334
0.00024339996
0.00024189736
0.00024087231
0.00023946661
0.00023852198
0.00023720523
0.00023633395
0.000235099
0.0002342948
0.00023313521
0.00023239244
0.00023130241
0.00023062497
0.00022961527
0.00022897641
0.00022798233
0.00022736511
0.00022638578
0.00022578991
0.00022482448
0.00022424966
0.00022329737
0.00022274327
0.00022180348
0.00022126973
0.00022034197
0.0002198282
0.00021891213
0.00021841833
0.00021751367
0.00021704152
0.00021614799
0.00021570776
0.00021483158
0.00021447675
0.00021460948
0.0010239867
0.00093200022
0.00085692672
0.00079364929
0.00074062352
0.00069456099
0.00065528621
0.00062032164
0.00059017518
0.00056276725
0.00053897719
0.00051693927
0.00049774578
0.00047965722
0.00046389081
0.0004487898
0.00043564372
0.00042285652
0.0004117567
0.00040079764
0.00039132472
0.00038183501
0.00037367572
0.00036538467
0.00035830036
0.00035099995
0.00034480575
0.00033833347
0.00033288399
0.00032711109
0.00032229049
0.0003171136
0.00031282846
0.00030816365
0.00030433786
0.00030011625
0.00029668715
0.00029285171
0.00028976732
0.00028627036
0.00028348717
0.00028028856
0.0002777699
0.00027483559
0.00027255034
0.00026985125
0.00026777284
0.00026528399
0.0002633896
0.0002610894
0.00025935933
0.00025722902
0.00025564618
0.00025366938
0.00025221888
0.00025038122
0.00024905001
0.00024733883
0.00024611546
0.00024451957
0.00024339392
0.00024190336
0.00024086648
0.00023947241
0.00023851635
0.00023721083
0.0002363285
0.00023510444
0.00023428949
0.00023314052
0.00023238724
0.00023130763
0.00023061998
0.00022962041
0.00022897121
0.00022798772
0.00022735964
0.00022639148
0.00022578408
0.00022483058
0.00022424339
0.00022330395
0.00022273648
0.00022181061
0.00022126239
0.00022034964
0.00021982032
0.00021892031
0.00021840998
0.00021752236
0.00021703246
0.00021615796
0.00021569566
0.00021484948
0.00021445805
0.00021458192
0.0010239826
0.00093200518
0.00085692181
0.00079365489
0.00074061794
0.00069456717
0.00065528003
0.00062032835
0.00059016847
0.00056277443
0.00053897
0.00051694688
0.00049773817
0.00047966521
0.00046388282
0.00044879813
0.00043563541
0.00042286514
0.0004117481
0.0004008065
0.00039131588
0.0003818441
0.00037366668
0.00036539393
0.00035829115
0.00035100935
0.00034479641
0.00033834299
0.00033287456
0.00032712068
0.00032228098
0.00031712324
0.00031281892
0.00030817331
0.0003043283
0.0003001259
0.00029667762
0.00029286132
0.00028975782
0.00028627992
0.00028347774
0.00028029804
0.00027776056
0.00027484496
0.00027254111
0.0002698605
0.00026776374
0.0002652931
0.00026338065
0.00026109836
0.00025935054
0.00025723781
0.00025563756
0.000253678
0.00025221043
0.00025038966
0.00024904174
0.0002473471
0.00024610736
0.00024452765
0.00024338598
0.00024191129
0.00024085871
0.00023948019
0.00023850871
0.00023721849
0.00023632097
0.000235112
0.00023428204
0.00023314801
0.00023237985
0.00023131508
0.0002306128
0.0002296278
0.00022896371
0.00022799546
0.00022735175
0.00022639965
0.00022577573
0.00022483923
0.00022423452
0.00022331315
0.00022272705
0.0002218204
0.00022125235
0.00022036007
0.0002198096
0.00021893147
0.0002183984
0.00021753459
0.00021701948
0.0002161721
0.00021568005
0.00021486651
0.00021443987
0.0002145549
0.0010239781
0.00093201048
0.00085691657
0.00079366087
0.00074061198
0.00069457378
0.00065527343
0.00062033553
0.00059016128
0.00056278213
0.0005389623
0.00051695504
0.00049773001
0.00047967379
0.00046387424
0.00044880708
0.00043562646
0.00042287443
0.00041173883
0.00040081609
0.00039130632
0.00038185394
0.00037365686
0.00036540401
0.00035828112
0.00035101962
0.00034478619
0.00033835341
0.00033286418
0.00032713124
0.00032227048
0.0003171339
0.00031280832
0.00030818405
0.00030431764
0.00030013669
0.00029666691
0.00029287214
0.0002897471
0.00028629074
0.00028346703
0.00028030884
0.00027774987
0.00027485572
0.00027253048
0.0002698712
0.00026775317
0.00026530372
0.00026337017
0.00026110888
0.00025934016
0.00025724823
0.00025562728
0.0002536883
0.00025220027
0.00025039984
0.0002490317
0.00024735716
0.00024609744
0.0002445376
0.00024337617
0.00024192112
0.000240849
0.00023948993
0.00023849909
0.00023722814
0.00023631143
0.00023512158
0.00023427256
0.00023315754
0.00023237042
0.00023132457
0.00023060365
0.00022963721
0.00022895416
0.00022800528
0.00022734177
0.00022640992
0.00022576527
0.00022485
0.00022422355
0.00022332446
0.00022271552
0.00022183229
0.0002212402
0.00022037261
0.00021979676
0.00021894478
0.00021838469
0.00021754887
0.00021700468
0.00021618753
0.00021566412
0.00021488269
0.00021442185
0.00021452816
0.0010239734
0.0009320161
0.00085691102
0.00079366722
0.00074060566
0.00069458079
0.00065526643
0.00062034314
0.00059015366
0.0005627903
0.00053895413
0.00051696371
0.00049772133
0.00047968292
0.00046386511
0.00044881662
0.00043561692
0.00042288434
0.00041172892
0.00040082634
0.00039129607
0.0003818645
0.00037364632
0.00036541483
0.00035827031
0.00035103069
0.00034477515
0.00033836469
0.00033285294
0.00032714271
0.00032225906
0.00031714553
0.00031279675
0.00030819581
0.00030430594
0.00030014855
0.00029665512
0.00029288409
0.00028973523
0.00028630274
0.0002834551
0.00028032088
0.00027773792
0.00027486778
0.00027251851
0.00026988326
0.00026774122
0.00026531576
0.00026335824
0.00026112088
0.00025932827
0.00025726018
0.00025561545
0.0002537002
0.00025218849
0.00025041167
0.00024901999
0.00024736891
0.0002460858
0.00024454928
0.00024336461
0.00024193273
0.00024083751
0.00023950145
0.00023848768
0.00023723959
0.00023630009
0.00023513296
0.0002342613
0.00023316884
0.00023235923
0.0002313358
0.00023059283
0.00022964828
0.00022894294
0.00022801677
0.00022733012
0.00022642184
0.00022575318
0.00022486238
0.00022421099
0.00022333731
0.00022270247
0.00022184565
0.00022122664
0.0002203865
0.00021978264
0.00021895926
0.00021836997
0.00021756395
0.0002169894
0.00021620305
0.00021564848
0.0002148984
0.00021440406
0.00021450173
0.0010239685
0.00093202202
0.00085690516
0.00079367389
0.00074059901
0.00069458816
0.00065525905
0.00062035116
0.00059014564
0.00056279889
0.00053894552
0.00051697284
0.00049771219
0.00047969253
0.00046385549
0.00044882668
0.00043560685
0.00042289481
0.00041171845
0.00040083718
0.00039128524
0.00038187567
0.00037363514
0.00036542632
0.00035825884
0.00035104245
0.00034476339
0.00033837672
0.00033284093
0.00032715496
0.00032224684
0.00031715798
0.00031278433
0.00030820844
0.00030429335
0.00030016135
0.00029664237
0.00029289702
0.00028972235
0.00028631579
0.00028344212
0.00028033401
0.00027772486
0.00027488099
0.00027250538
0.00026989651
0.00026772805
0.00026532905
0.00026334504
0.00026113419
0.00025931506
0.00025727349
0.00025560224
0.00025371349
0.00025217531
0.00025042493
0.00024900684
0.00024738213
0.00024607269
0.00024456245
0.00024335156
0.00024194583
0.00024082453
0.00023951448
0.00023847478
0.00023725253
0.00023628729
0.0002351458
0.0002342486
0.00023318156
0.00023234666
0.00023134838
0.00023058073
0.00022966062
0.00022893048
0.00022802948
0.00022731728
0.00022643494
0.00022573996
0.00022487586
0.00022419739
0.00022335117
0.0002226885
0.00022185987
0.00022121229
0.00022040109
0.00021976794
0.00021897418
0.00021835497
0.00021757912
0.00021697421
0.00021621833
0.00021563318
0.0002149138
0.00021438665
0.0002144757
0.0010239633
0.0009320282
0.00085689905
0.00079368087
0.00074059206
0.00069459587
0.00065525136
0.00062035952
0.00059013728
0.00056280786
0.00053893654
0.00051698236
0.00049770265
0.00047970256
0.00046384544
0.00044883718
0.00043559634
0.00042290573
0.00041170751
0.0004008485
0.00039127391
0.00038188736
0.00037362346
0.00036543834
0.00035824681
0.00035105479
0.00034475107
0.00033838934
0.00033282832
0.00032716784
0.00032223397
0.0003171711
0.00031277123
0.00030822178
0.00030428003
0.00030017489
0.00029662887
0.00029291073
0.00028970868
0.00028632965
0.0002834283
0.00028034801
0.00027771091
0.0002748951
0.00027249133
0.00026991071
0.00026771391
0.00026534332
0.00026333084
0.00026114851
0.00025930081
0.00025728785
0.00025558797
0.00025372786
0.00025216103
0.0002504393
0.00024899257
0.00024739648
0.00024605846
0.00024457675
0.00024333738
0.00024196006
0.00024081043
0.00023952862
0.00023846078
0.00023726656
0.00023627342
0.00023515968
0.0002342349
0.00023319526
0.00023233314
0.00023136187
0.00023056779
0.0002296738
0.0002289172
0.00022804298
0.00022730369
0.00022644875
0.00022572607
0.00022488996
0.00022418322
0.00022336554
0.00022267407
0.00022187448
0.00022119764
0.0002204159
0.00021975312
0.00021898913
0.00021834004
0.00021759413
0.00021695926
0.00021623333
0.00021561816
0.0002149289
0.00021436963
0.0002144501
0.0010239579
0.00093203462
0.0008568927
0.00079368811
0.00074058487
0.00069460384
0.0006552434
0.00062036817
0.00059012862
0.00056281713
0.00053892726
0.00051699219
0.00049769281
0.00047971291
0.00046383508
0.000448848
0.0004355855
0.000422917
0.00041169624
0.00040086017
0.00039126223
0.00038189941
0.0003736114
0.00036545074
0.00035823442
0.00035106751
0.00034473834
0.00033840236
0.00033281531
0.00032718115
0.00032222068
0.00031718467
0.00031275768
0.00030823559
0.00030426625
0.00030018891
0.00029661487
0.00029292495
0.0002896945
0.00028634405
0.00028341394
0.00028036257
0.0002776964
0.00027490979
0.00027247669
0.00026992552
0.00026769916
0.00026535822
0.000263316
0.00026116349
0.00025928591
0.00025730288
0.00025557303
0.00025374292
0.00025214607
0.00025045436
0.00024897762
0.00024741151
0.00024604355
0.00024459173
0.00024332254
0.00024197496
0.00024079568
0.0002395434
0.00023844617
0.00023728118
0.00023625897
0.00023517412
0.00023422066
0.00023320948
0.00023231914
0.00023137583
0.00023055443
0.00022968738
0.00022890355
0.00022805684
0.00022728978
0.00022646286
0.00022571192
0.00022490429
0.00022416886
0.00022338005
0.00022265954
0.00022188914
0.000221183