/*--------------------------------*- C++ -*----------------------------------*\
| =========                 |                                                 |
| \\      /  F ield         | OpenFOAM: The Open Source CFD Toolbox           |
|  \\    /   O peration     | Version:  5.x                                   |
|   \\  /    A nd           | Web:      www.OpenFOAM.org                      |
|    \\/     M anipulation  |                                                 |
\*---------------------------------------------------------------------------*/
FoamFile
{
    version     2.0;
    format      ascii;
    class       volScalarField;
    location    "5000";
    object      nut;
}
// * * * * * * * * * * * * * * * * * * * * * * * * * * * * * * * * * * * * * //

dimensions      [0 2 -1 0 0 0 0];

internalField   nonuniform List<scalar> 
209825
(
1.2397885e-07
1.2300788e-07
1.2224333e-07
1.2143656e-07
1.208392e-07
1.2014433e-07
1.1967313e-07
1.190576e-07
1.1868544e-07
1.1812799e-07
1.1783584e-07
1.173221e-07
1.1709591e-07
1.1661594e-07
1.1644489e-07
1.1599173e-07
1.1586723e-07
1.1543595e-07
1.1535096e-07
1.1493806e-07
1.1488671e-07
1.1448973e-07
1.14467e-07
1.140842e-07
1.140858e-07
1.1371599e-07
1.1373815e-07
1.1338051e-07
1.1341996e-07
1.1307395e-07
1.1312779e-07
1.1279307e-07
1.1285876e-07
1.1253511e-07
1.1261041e-07
1.1229768e-07
1.1238061e-07
1.1207872e-07
1.1216757e-07
1.1187643e-07
1.119697e-07
1.1168925e-07
1.1178561e-07
1.1151576e-07
1.1161411e-07
1.1135475e-07
1.1145412e-07
1.1120511e-07
1.1130471e-07
1.1106586e-07
1.1116502e-07
1.1093613e-07
1.110343e-07
1.1081513e-07
1.1091189e-07
1.1070215e-07
1.1079717e-07
1.1059655e-07
1.106896e-07
1.1049774e-07
1.1058867e-07
1.1040519e-07
1.1049393e-07
1.1031843e-07
1.1040497e-07
1.1023702e-07
1.1032142e-07
1.1016055e-07
1.1024292e-07
1.1008866e-07
1.1016916e-07
1.1002103e-07
1.1009882e-07
1.0995856e-07
1.1003639e-07
1.0989502e-07
1.0997523e-07
1.0983224e-07
1.0991536e-07
1.0977013e-07
1.0985686e-07
1.0970861e-07
1.0979978e-07
1.0964762e-07
1.0974416e-07
1.0958721e-07
1.0968999e-07
1.0952757e-07
1.0963741e-07
1.0946826e-07
1.0959048e-07
1.0937325e-07
1.0957405e-07
1.1102307e-07
1.6004175e-08
1.448769e-09
1.2397883e-07
1.2300791e-07
1.222433e-07
1.214366e-07
1.2083916e-07
1.2014437e-07
1.1967308e-07
1.1905765e-07
1.1868539e-07
1.1812805e-07
1.1783579e-07
1.1732216e-07
1.1709585e-07
1.16616e-07
1.1644483e-07
1.1599179e-07
1.1586718e-07
1.15436e-07
1.1535091e-07
1.1493811e-07
1.1488667e-07
1.1448977e-07
1.1446697e-07
1.1408423e-07
1.1408578e-07
1.13716e-07
1.1373815e-07
1.1338051e-07
1.1341997e-07
1.1307393e-07
1.1312783e-07
1.1279303e-07
1.1285882e-07
1.1253504e-07
1.1261048e-07
1.1229759e-07
1.1238071e-07
1.1207861e-07
1.1216769e-07
1.118763e-07
1.1196984e-07
1.1168909e-07
1.1178578e-07
1.1151559e-07
1.116143e-07
1.1135455e-07
1.1145433e-07
1.112049e-07
1.1130492e-07
1.1106564e-07
1.1116524e-07
1.1093591e-07
1.1103453e-07
1.1081491e-07
1.1091212e-07
1.1070193e-07
1.1079739e-07
1.1059634e-07
1.106898e-07
1.1049755e-07
1.1058884e-07
1.1040503e-07
1.1049407e-07
1.1031831e-07
1.1040507e-07
1.1023695e-07
1.1032145e-07
1.1016055e-07
1.1024288e-07
1.1008875e-07
1.1016903e-07
1.1002121e-07
1.1009858e-07
1.0995885e-07
1.1003602e-07
1.0989547e-07
1.0997467e-07
1.098329e-07
1.0991458e-07
1.0977104e-07
1.098558e-07
1.0970982e-07
1.097984e-07
1.0964916e-07
1.0974247e-07
1.0958903e-07
1.0968806e-07
1.0952967e-07
1.0963475e-07
1.0947296e-07
1.0957888e-07
1.0936961e-07
1.0967221e-07
1.1106721e-07
8.6969973e-09
2.063076e-09
1.2397878e-07
1.2300797e-07
1.2224324e-07
1.2143668e-07
1.2083908e-07
1.2014446e-07
1.1967298e-07
1.1905776e-07
1.1868528e-07
1.1812817e-07
1.1783567e-07
1.1732229e-07
1.1709573e-07
1.1661613e-07
1.1644471e-07
1.1599191e-07
1.1586706e-07
1.1543612e-07
1.1535081e-07
1.1493822e-07
1.1488658e-07
1.1448985e-07
1.144669e-07
1.1408429e-07
1.1408574e-07
1.1371604e-07
1.1373814e-07
1.1338051e-07
1.1342e-07
1.1307389e-07
1.1312789e-07
1.1279295e-07
1.1285892e-07
1.1253492e-07
1.1261063e-07
1.1229742e-07
1.1238091e-07
1.1207839e-07
1.1216794e-07
1.1187604e-07
1.1197013e-07
1.1168878e-07
1.1178611e-07
1.1151524e-07
1.1161467e-07
1.1135417e-07
1.1145473e-07
1.1120448e-07
1.1130535e-07
1.110652e-07
1.1116569e-07
1.1093545e-07
1.11035e-07
1.1081445e-07
1.1091258e-07
1.1070148e-07
1.1079784e-07
1.1059591e-07
1.1069022e-07
1.1049715e-07
1.1058921e-07
1.1040469e-07
1.1049438e-07
1.1031805e-07
1.1040528e-07
1.1023679e-07
1.1032156e-07
1.1016052e-07
1.1024284e-07
1.1008887e-07
1.1016882e-07
1.1002152e-07
1.1009818e-07
1.0995937e-07
1.1003536e-07
1.0989629e-07
1.0997367e-07
1.098341e-07
1.0991315e-07
1.0977273e-07
1.0985382e-07
1.0971211e-07
1.0979578e-07
1.0965212e-07
1.0973918e-07
1.0959261e-07
1.0968428e-07
1.0953347e-07
1.0963118e-07
1.0947612e-07
1.0957546e-07
1.093784e-07
1.0968441e-07
1.1105458e-07
1.006788e-08
1.5429623e-09
1.2397871e-07
1.2300807e-07
1.2224314e-07
1.214368e-07
1.2083895e-07
1.2014461e-07
1.1967284e-07
1.1905792e-07
1.1868512e-07
1.1812835e-07
1.1783549e-07
1.1732248e-07
1.1709554e-07
1.1661632e-07
1.1644452e-07
1.1599211e-07
1.1586688e-07
1.154363e-07
1.1535064e-07
1.1493838e-07
1.1488643e-07
1.1448999e-07
1.1446679e-07
1.140844e-07
1.1408566e-07
1.1371609e-07
1.1373811e-07
1.1338052e-07
1.1342002e-07
1.1307385e-07
1.1312798e-07
1.1279284e-07
1.1285907e-07
1.1253474e-07
1.1261085e-07
1.1229717e-07
1.123812e-07
1.1207808e-07
1.121683e-07
1.1187565e-07
1.1197056e-07
1.1168833e-07
1.1178661e-07
1.1151472e-07
1.1161522e-07
1.1135359e-07
1.1145534e-07
1.1120386e-07
1.1130601e-07
1.1106454e-07
1.1116638e-07
1.1093476e-07
1.110357e-07
1.1081374e-07
1.1091329e-07
1.1070078e-07
1.1079853e-07
1.1059523e-07
1.1069088e-07
1.1049653e-07
1.1058982e-07
1.1040414e-07
1.1049489e-07
1.103176e-07
1.1040568e-07
1.1023647e-07
1.1032181e-07
1.1016036e-07
1.1024291e-07
1.1008892e-07
1.1016866e-07
1.1002182e-07
1.1009776e-07
1.0995995e-07
1.100346e-07
1.0989726e-07
1.0997247e-07
1.0983557e-07
1.0991137e-07
1.0977485e-07
1.0985132e-07
1.0971505e-07
1.0979235e-07
1.0965608e-07
1.0973466e-07
1.095977e-07
1.0967872e-07
1.0953922e-07
1.0962614e-07
1.0947779e-07
1.0958546e-07
1.0937443e-07
1.0963958e-07
1.1082653e-07
1.6488111e-08
2.0601357e-09
1.2397861e-07
1.2300819e-07
1.22243e-07
1.2143696e-07
1.2083878e-07
1.201448e-07
1.1967264e-07
1.1905815e-07
1.1868489e-07
1.181286e-07
1.1783524e-07
1.1732274e-07
1.1709528e-07
1.166166e-07
1.1644426e-07
1.1599238e-07
1.1586662e-07
1.1543656e-07
1.153504e-07
1.1493861e-07
1.1488622e-07
1.1449019e-07
1.1446662e-07
1.1408455e-07
1.1408555e-07
1.1371619e-07
1.1373806e-07
1.1338055e-07
1.1342004e-07
1.130738e-07
1.1312807e-07
1.1279271e-07
1.1285926e-07
1.1253453e-07
1.1261113e-07
1.1229686e-07
1.1238157e-07
1.1207767e-07
1.1216876e-07
1.1187516e-07
1.1197111e-07
1.1168774e-07
1.1178725e-07
1.1151405e-07
1.1161595e-07
1.1135284e-07
1.1145614e-07
1.1120303e-07
1.1130687e-07
1.1106366e-07
1.1116729e-07
1.1093384e-07
1.1103665e-07
1.108128e-07
1.1091425e-07
1.1069983e-07
1.1079949e-07
1.105943e-07
1.106918e-07
1.1049563e-07
1.1059068e-07
1.1040332e-07
1.1049567e-07
1.1031688e-07
1.1040634e-07
1.1023589e-07
1.1032231e-07
1.1015996e-07
1.1024321e-07
1.1008874e-07
1.1016872e-07
1.100219e-07
1.1009754e-07
1.0996033e-07
1.1003402e-07
1.0989805e-07
1.0997143e-07
1.098369e-07
1.0990972e-07
1.0977688e-07
1.0984886e-07
1.0971801e-07
1.0978883e-07
1.0966028e-07
1.0972968e-07
1.0960359e-07
1.0967175e-07
1.0954748e-07
1.0961633e-07
1.0948974e-07
1.0956929e-07
1.0942143e-07
1.095353e-07
1.1012654e-07
3.5398444e-08
5.789517e-09
1.2397848e-07
1.2300836e-07
1.2224283e-07
1.2143717e-07
1.2083856e-07
1.2014506e-07
1.1967238e-07
1.1905844e-07
1.1868459e-07
1.1812892e-07
1.1783492e-07
1.1732309e-07
1.1709494e-07
1.1661695e-07
1.1644392e-07
1.1599273e-07
1.1586628e-07
1.154369e-07
1.1535008e-07
1.1493893e-07
1.1488594e-07
1.1449046e-07
1.1446639e-07
1.1408476e-07
1.1408538e-07
1.1371634e-07
1.1373796e-07
1.1338061e-07
1.1342003e-07
1.1307377e-07
1.1312816e-07
1.1279259e-07
1.1285945e-07
1.1253429e-07
1.1261143e-07
1.1229652e-07
1.1238198e-07
1.1207721e-07
1.1216929e-07
1.1187458e-07
1.1197176e-07
1.1168705e-07
1.1178801e-07
1.1151324e-07
1.1161682e-07
1.1135193e-07
1.1145711e-07
1.1120203e-07
1.1130793e-07
1.1106258e-07
1.1116842e-07
1.109327e-07
1.1103783e-07
1.1081161e-07
1.1091547e-07
1.1069862e-07
1.1080072e-07
1.1059309e-07
1.1069302e-07
1.1049445e-07
1.1059186e-07
1.1040219e-07
1.1049678e-07
1.1031584e-07
1.1040734e-07
1.1023497e-07
1.1032317e-07
1.1015919e-07
1.102439e-07
1.1008816e-07
1.101692e-07
1.1002156e-07
1.1009775e-07
1.0996026e-07
1.1003394e-07
1.0989831e-07
1.0997096e-07
1.0983761e-07
1.0990874e-07
1.097782e-07
1.0984717e-07
1.0972015e-07
1.0978616e-07
1.0966361e-07
1.0972556e-07
1.0960877e-07
1.0966516e-07
1.0955613e-07
1.0960442e-07
1.0950749e-07
1.0953999e-07
1.0947477e-07
1.0944712e-07
1.0969265e-07
9.473721e-08
5.0785796e-08
1.2397832e-07
1.2300856e-07
1.2224261e-07
1.2143743e-07
1.2083829e-07
1.2014537e-07
1.1967205e-07
1.190588e-07
1.1868423e-07
1.1812932e-07
1.1783452e-07
1.1732352e-07
1.1709451e-07
1.166174e-07
1.1644348e-07
1.1599318e-07
1.1586585e-07
1.1543734e-07
1.1534967e-07
1.1493933e-07
1.1488557e-07
1.1449082e-07
1.1446607e-07
1.1408506e-07
1.1408513e-07
1.1371656e-07
1.137378e-07
1.1338074e-07
1.1341997e-07
1.130738e-07
1.1312821e-07
1.1279249e-07
1.1285962e-07
1.1253407e-07
1.1261173e-07
1.1229617e-07
1.1238242e-07
1.1207672e-07
1.1216987e-07
1.1187395e-07
1.1197248e-07
1.1168628e-07
1.1178886e-07
1.1151234e-07
1.116178e-07
1.1135091e-07
1.1145821e-07
1.1120089e-07
1.1130914e-07
1.1106133e-07
1.1116973e-07
1.1093136e-07
1.1103922e-07
1.108102e-07
1.1091692e-07
1.1069716e-07
1.1080221e-07
1.105916e-07
1.1069453e-07
1.1049295e-07
1.1059336e-07
1.1040071e-07
1.1049825e-07
1.103144e-07
1.1040876e-07
1.1023361e-07
1.103245e-07
1.1015793e-07
1.1024511e-07
1.1008703e-07
1.1017027e-07
1.1002059e-07
1.1009862e-07
1.0995947e-07
1.1003466e-07
1.0989771e-07
1.0997146e-07
1.0983726e-07
1.0990893e-07
1.097782e-07
1.0984696e-07
1.0972064e-07
1.0978536e-07
1.0966482e-07
1.0972384e-07
1.0961117e-07
1.0966185e-07
1.0956077e-07
1.0959787e-07
1.0951681e-07
1.0952706e-07
1.0949031e-07
1.0943548e-07
1.0952115e-07
1.0969078e-07
4.3414325e-08
1.2397813e-07
1.2300881e-07
1.2224236e-07
1.2143774e-07
1.2083797e-07
1.2014575e-07
1.1967166e-07
1.1905924e-07
1.1868378e-07
1.1812981e-07
1.1783403e-07
1.1732405e-07
1.1709399e-07
1.1661795e-07
1.1644294e-07
1.1599374e-07
1.1586532e-07
1.1543788e-07
1.1534916e-07
1.1493985e-07
1.1488509e-07
1.1449129e-07
1.1446565e-07
1.1408547e-07
1.1408478e-07
1.1371688e-07
1.1373754e-07
1.1338096e-07
1.1341982e-07
1.130739e-07
1.1312818e-07
1.1279247e-07
1.1285973e-07
1.1253391e-07
1.1261198e-07
1.1229585e-07
1.1238283e-07
1.1207625e-07
1.1217043e-07
1.1187332e-07
1.119732e-07
1.1168549e-07
1.1178974e-07
1.115114e-07
1.1161883e-07
1.1134981e-07
1.1145939e-07
1.1119966e-07
1.1131046e-07
1.1105996e-07
1.1117117e-07
1.1092987e-07
1.1104077e-07
1.1080861e-07
1.1091857e-07
1.1069548e-07
1.1080394e-07
1.1058985e-07
1.1069632e-07
1.1049116e-07
1.1059519e-07
1.1039888e-07
1.105001e-07
1.1031256e-07
1.1041061e-07
1.1023177e-07
1.1032634e-07
1.1015611e-07
1.1024693e-07
1.1008525e-07
1.1017205e-07
1.1001884e-07
1.1010031e-07
1.0995779e-07
1.1003636e-07
1.0989601e-07
1.0997318e-07
1.0983555e-07
1.0991067e-07
1.0977647e-07
1.0984871e-07
1.097189e-07
1.0978713e-07
1.0966303e-07
1.0972568e-07
1.0960927e-07
1.0966391e-07
1.0955839e-07
1.0960105e-07
1.0951172e-07
1.0953694e-07
1.0946868e-07
1.0948466e-07
1.0939968e-07
1.095923e-07
4.2054507e-08
1.2397791e-07
1.2300909e-07
1.2224205e-07
1.2143811e-07
1.2083758e-07
1.201462e-07
1.196712e-07
1.1905976e-07
1.1868325e-07
1.1813039e-07
1.1783345e-07
1.1732467e-07
1.1709337e-07
1.1661861e-07
1.1644229e-07
1.1599442e-07
1.1586466e-07
1.1543855e-07
1.1534852e-07
1.149405e-07
1.1488449e-07
1.1449189e-07
1.144651e-07
1.14086e-07
1.1408431e-07
1.1371733e-07
1.1373716e-07
1.133813e-07
1.1341956e-07
1.1307412e-07
1.1312805e-07
1.1279255e-07
1.1285974e-07
1.1253384e-07
1.1261215e-07
1.1229562e-07
1.1238316e-07
1.1207585e-07
1.1217094e-07
1.1187274e-07
1.1197388e-07
1.1168474e-07
1.117906e-07
1.1151047e-07
1.1161987e-07
1.1134872e-07
1.1146059e-07
1.1119839e-07
1.1131182e-07
1.1105854e-07
1.1117269e-07
1.109283e-07
1.1104244e-07
1.108069e-07
1.1092036e-07
1.1069364e-07
1.1080585e-07
1.105879e-07
1.1069834e-07
1.1048911e-07
1.1059731e-07
1.1039674e-07
1.1050231e-07
1.1031033e-07
1.104129e-07
1.1022946e-07
1.1032871e-07
1.1015374e-07
1.1024937e-07
1.1008279e-07
1.1017456e-07
1.1001631e-07
1.1010284e-07
1.0995518e-07
1.1003911e-07
1.0989317e-07
1.0997619e-07
1.098324e-07
1.0991402e-07
1.0977293e-07
1.0985252e-07
1.097148e-07
1.0979162e-07
1.0965812e-07
1.097312e-07
1.0960301e-07
1.0967125e-07
1.0954956e-07
1.0961213e-07
1.0949733e-07
1.0955612e-07
1.0944377e-07
1.0951173e-07
1.093473e-07
1.0957611e-07
5.6300855e-08
1.2397765e-07
1.2300942e-07
1.222417e-07
1.2143854e-07
1.2083714e-07
1.2014671e-07
1.1967067e-07
1.1906036e-07
1.1868264e-07
1.1813107e-07
1.1783276e-07
1.1732541e-07
1.1709263e-07
1.1661939e-07
1.1644152e-07
1.1599522e-07
1.1586387e-07
1.1543937e-07
1.1534774e-07
1.1494129e-07
1.1488373e-07
1.1449264e-07
1.144644e-07
1.1408669e-07
1.1408368e-07
1.1371793e-07
1.1373663e-07
1.1338181e-07
1.1341914e-07
1.130745e-07
1.1312776e-07
1.1279279e-07
1.128596e-07
1.1253392e-07
1.1261217e-07
1.1229554e-07
1.1238336e-07
1.1207559e-07
1.1217131e-07
1.118723e-07
1.1197444e-07
1.1168411e-07
1.1179135e-07
1.1150965e-07
1.1162081e-07
1.113477e-07
1.1146173e-07
1.1119719e-07
1.1131314e-07
1.1105715e-07
1.1117419e-07
1.1092673e-07
1.1104411e-07
1.1080516e-07
1.1092221e-07
1.1069174e-07
1.1080786e-07
1.1058583e-07
1.1070051e-07
1.1048688e-07
1.1059964e-07
1.1039436e-07
1.1050478e-07
1.103078e-07
1.1041553e-07
1.1022678e-07
1.103315e-07
1.1015089e-07
1.1025233e-07
1.1007977e-07
1.101777e-07
1.1001309e-07
1.101061e-07
1.0995177e-07
1.1004275e-07
1.0988933e-07
1.0998031e-07
1.0982804e-07
1.0991874e-07
1.0976787e-07
1.0985804e-07
1.0970882e-07
1.0979822e-07
1.0965083e-07
1.0973938e-07
1.0959379e-07
1.0968182e-07
1.0953735e-07
1.096264e-07
1.0948068e-07
1.0957527e-07
1.0942286e-07
1.0953261e-07
1.0932922e-07
1.0956652e-07
7.1019705e-08
1.2397736e-07
1.230098e-07
1.222413e-07
1.2143902e-07
1.2083663e-07
1.2014731e-07
1.1967005e-07
1.1906105e-07
1.1868193e-07
1.1813185e-07
1.1783196e-07
1.1732627e-07
1.1709177e-07
1.1662031e-07
1.1644061e-07
1.1599618e-07
1.1586293e-07
1.1544034e-07
1.1534679e-07
1.1494226e-07
1.1488281e-07
1.1449358e-07
1.1446351e-07
1.1408757e-07
1.1408286e-07
1.1371874e-07
1.1373589e-07
1.1338252e-07
1.1341851e-07
1.1307509e-07
1.1312726e-07
1.1279324e-07
1.1285925e-07
1.1253422e-07
1.1261198e-07
1.1229567e-07
1.1238334e-07
1.1207554e-07
1.1217148e-07
1.1187206e-07
1.1197481e-07
1.1168367e-07
1.1179191e-07
1.1150901e-07
1.1162157e-07
1.1134686e-07
1.114627e-07
1.1119614e-07
1.1131432e-07
1.110559e-07
1.1117557e-07
1.1092528e-07
1.1104569e-07
1.1080351e-07
1.1092399e-07
1.1068988e-07
1.1080985e-07
1.1058377e-07
1.1070269e-07
1.1048462e-07
1.1060202e-07
1.1039189e-07
1.1050738e-07
1.1030512e-07
1.1041834e-07
1.1022388e-07
1.1033454e-07
1.1014775e-07
1.1025561e-07
1.1007638e-07
1.1018125e-07
1.1000943e-07
1.1010983e-07
1.0994785e-07
1.1004697e-07
1.0988487e-07
1.0998512e-07
1.0982292e-07
1.0992428e-07
1.0976193e-07
1.0986451e-07
1.0970183e-07
1.0980588e-07
1.0964249e-07
1.0974858e-07
1.095837e-07
1.0969299e-07
1.0952509e-07
1.0963984e-07
1.0946629e-07
1.0959033e-07
1.0940787e-07
1.0954693e-07
1.0932402e-07
1.0956175e-07
7.8431415e-08
1.2397703e-07
1.2301023e-07
1.2224085e-07
1.2143957e-07
1.2083605e-07
1.2014798e-07
1.1966935e-07
1.1906184e-07
1.1868111e-07
1.1813275e-07
1.1783105e-07
1.1732726e-07
1.1709077e-07
1.1662138e-07
1.1643955e-07
1.159973e-07
1.1586183e-07
1.1544149e-07
1.1534566e-07
1.1494341e-07
1.1488168e-07
1.1449472e-07
1.1446241e-07
1.1408868e-07
1.1408181e-07
1.1371978e-07
1.1373492e-07
1.1338347e-07
1.1341763e-07
1.1307594e-07
1.131265e-07
1.1279396e-07
1.1285862e-07
1.125348e-07
1.1261151e-07
1.1229608e-07
1.1238304e-07
1.1207578e-07
1.1217136e-07
1.1187212e-07
1.1197488e-07
1.1168353e-07
1.1179218e-07
1.1150867e-07
1.1162205e-07
1.1134631e-07
1.1146338e-07
1.1119538e-07
1.1131522e-07
1.1105492e-07
1.1117669e-07
1.1092408e-07
1.1104704e-07
1.1080208e-07
1.1092556e-07
1.1068823e-07
1.1081164e-07
1.1058189e-07
1.1070472e-07
1.104825e-07
1.1060429e-07
1.1038953e-07
1.1050989e-07
1.1030251e-07
1.1042111e-07
1.1022101e-07
1.1033757e-07
1.1014461e-07
1.1025892e-07
1.1007295e-07
1.1018486e-07
1.1000569e-07
1.1011366e-07
1.0994382e-07
1.100513e-07
1.0988029e-07
1.0999005e-07
1.0981768e-07
1.0992993e-07
1.0975592e-07
1.0987099e-07
1.0969491e-07
1.0981334e-07
1.0963452e-07
1.0975715e-07
1.095746e-07
1.0970267e-07
1.09515e-07
1.0965026e-07
1.0945588e-07
1.0960045e-07
1.0939847e-07
1.0955549e-07
1.0932374e-07
1.0955842e-07
8.0627817e-08
1.2397666e-07
1.230107e-07
1.2224034e-07
1.2144019e-07
1.208354e-07
1.2014874e-07
1.1966857e-07
1.1906273e-07
1.186802e-07
1.1813377e-07
1.1783001e-07
1.1732839e-07
1.1708963e-07
1.166226e-07
1.1643832e-07
1.1599859e-07
1.1586054e-07
1.1544284e-07
1.1534433e-07
1.1494479e-07
1.1488033e-07
1.144961e-07
1.1446107e-07
1.1409004e-07
1.140805e-07
1.137211e-07
1.1373367e-07
1.1338472e-07
1.1341646e-07
1.130771e-07
1.1312543e-07
1.1279501e-07
1.1285766e-07
1.1253572e-07
1.1261069e-07
1.1229686e-07
1.1238237e-07
1.120764e-07
1.1217086e-07
1.1187256e-07
1.1197455e-07
1.1168379e-07
1.1179205e-07
1.1150873e-07
1.1162212e-07
1.1134616e-07
1.1146366e-07
1.1119502e-07
1.1131571e-07
1.1105435e-07
1.1117741e-07
1.1092328e-07
1.1104798e-07
1.1080105e-07
1.1092674e-07
1.1068696e-07
1.1081306e-07
1.1058038e-07
1.1070639e-07
1.1048074e-07
1.1060621e-07
1.1038752e-07
1.1051207e-07
1.1030024e-07
1.1042356e-07
1.1021846e-07
1.1034029e-07
1.1014178e-07
1.1026192e-07
1.1006984e-07
1.1018814e-07
1.1000229e-07
1.1011714e-07
1.0994016e-07
1.1005524e-07
1.0987615e-07
1.0999449e-07
1.0981301e-07
1.0993493e-07
1.0975066e-07
1.098766e-07
1.0968903e-07
1.0981957e-07
1.0962804e-07
1.0976394e-07
1.0956765e-07
1.0970978e-07
1.0950794e-07
1.0965721e-07
1.0944936e-07
1.096064e-07
1.0939342e-07
1.0955942e-07
1.0932871e-07
1.0955193e-07
8.1535905e-08
1.2397625e-07
1.2301123e-07
1.2223978e-07
1.2144087e-07
1.2083468e-07
1.2014958e-07
1.1966769e-07
1.1906373e-07
1.1867916e-07
1.1813491e-07
1.1782884e-07
1.1732967e-07
1.1708833e-07
1.1662399e-07
1.1643691e-07
1.1600008e-07
1.1585904e-07
1.154444e-07
1.1534277e-07
1.1494641e-07
1.1487873e-07
1.1449775e-07
1.1445946e-07
1.1409169e-07
1.1407889e-07
1.1372273e-07
1.1373209e-07
1.1338631e-07
1.1341493e-07
1.1307862e-07
1.1312397e-07
1.1279646e-07
1.1285631e-07
1.1253706e-07
1.1260944e-07
1.1229808e-07
1.1238125e-07
1.1207748e-07
1.1216989e-07
1.1187349e-07
1.1197374e-07
1.1168455e-07
1.1179141e-07
1.1150931e-07
1.1162166e-07
1.1134656e-07
1.114634e-07
1.1119522e-07
1.1131565e-07
1.1105433e-07
1.1117756e-07
1.1092305e-07
1.1104836e-07
1.1080059e-07
1.1092734e-07
1.1068627e-07
1.108139e-07
1.1057946e-07
1.1070746e-07
1.1047958e-07
1.1060753e-07
1.1038611e-07
1.1051364e-07
1.1029858e-07
1.1042537e-07
1.1021655e-07
1.1034235e-07
1.1013963e-07
1.1026423e-07
1.1006744e-07
1.101907e-07
1.0999966e-07
1.1011985e-07
1.0993733e-07
1.1005828e-07
1.0987298e-07
1.0999789e-07
1.0980949e-07
1.0993867e-07
1.097468e-07
1.0988067e-07
1.0968488e-07
1.0982389e-07
1.096237e-07
1.0976835e-07
1.095633e-07
1.0971408e-07
1.0950387e-07
1.0966106e-07
1.0944587e-07
1.0960956e-07
1.0939073e-07
1.0956149e-07
1.0933583e-07
1.0954454e-07
8.2623941e-08
1.2397581e-07
1.2301181e-07
1.2223916e-07
1.2144162e-07
1.2083389e-07
1.2015051e-07
1.1966671e-07
1.1906484e-07
1.1867802e-07
1.1813618e-07
1.1782753e-07
1.173311e-07
1.1708687e-07
1.1662556e-07
1.1643532e-07
1.1600177e-07
1.1585734e-07
1.1544619e-07
1.1534098e-07
1.1494828e-07
1.1487687e-07
1.1449968e-07
1.1445754e-07
1.1409366e-07
1.1407695e-07
1.1372471e-07
1.1373015e-07
1.1338828e-07
1.1341301e-07
1.1308056e-07
1.1312209e-07
1.1279834e-07
1.1285449e-07
1.1253887e-07
1.126077e-07
1.1229981e-07
1.1237961e-07
1.120791e-07
1.1216836e-07
1.1187499e-07
1.1197234e-07
1.1168592e-07
1.1179015e-07
1.1151053e-07
1.1162056e-07
1.1134761e-07
1.1146246e-07
1.111961e-07
1.113149e-07
1.1105503e-07
1.1117699e-07
1.1092355e-07
1.1104798e-07
1.108009e-07
1.1092717e-07
1.1068637e-07
1.1081394e-07
1.1057935e-07
1.1070771e-07
1.1047925e-07
1.1060799e-07
1.1038557e-07
1.1051432e-07
1.1029783e-07
1.1042626e-07
1.1021559e-07
1.1034344e-07
1.1013847e-07
1.1026551e-07
1.100661e-07
1.1019215e-07
1.0999816e-07
1.1012141e-07
1.0993572e-07
1.1006003e-07
1.0987119e-07
1.0999981e-07
1.0980754e-07
1.0994073e-07
1.0974474e-07
1.0988279e-07
1.096828e-07
1.0982598e-07
1.0962171e-07
1.0977028e-07
1.0956156e-07
1.0971569e-07
1.0950248e-07
1.096623e-07
1.0944481e-07
1.0961067e-07
1.093893e-07
1.0956417e-07
1.0934015e-07
1.0953923e-07
8.4025409e-08
1.2397532e-07
1.2301244e-07
1.2223849e-07
1.2144245e-07
1.2083301e-07
1.2015153e-07
1.1966564e-07
1.1906606e-07
1.1867675e-07
1.1813759e-07
1.1782607e-07
1.1733269e-07
1.1708524e-07
1.1662732e-07
1.1643353e-07
1.1600368e-07
1.158554e-07
1.1544823e-07
1.1533892e-07
1.1495043e-07
1.1487471e-07
1.1450192e-07
1.144553e-07
1.1409597e-07
1.1407465e-07
1.1372707e-07
1.1372781e-07
1.1339067e-07
1.1341065e-07
1.1308296e-07
1.1311974e-07
1.1280073e-07
1.1285215e-07
1.1254123e-07
1.1260541e-07
1.1230211e-07
1.1237737e-07
1.1208134e-07
1.1216619e-07
1.1187715e-07
1.1197026e-07
1.1168798e-07
1.1178818e-07
1.1151248e-07
1.116187e-07
1.1134944e-07
1.1146074e-07
1.1119779e-07
1.1131331e-07
1.1105658e-07
1.1117556e-07
1.1092495e-07
1.110467e-07
1.1080214e-07
1.1092606e-07
1.1068744e-07
1.1081299e-07
1.1058025e-07
1.1070693e-07
1.1047998e-07
1.1060738e-07
1.1038613e-07
1.1051387e-07
1.1029823e-07
1.1042597e-07
1.1021585e-07
1.1034329e-07
1.1013859e-07
1.1026549e-07
1.1006611e-07
1.1019222e-07
1.0999808e-07
1.1012156e-07
1.0993559e-07
1.1006022e-07
1.0987103e-07
1.1e-07
1.0980739e-07
1.0994088e-07
1.0974467e-07
1.0988283e-07
1.0968288e-07
1.0982582e-07
1.0962204e-07
1.0976984e-07
1.0956221e-07
1.0971489e-07
1.0950351e-07
1.0966112e-07
1.0944619e-07
1.0960914e-07
1.0939114e-07
1.0956158e-07
1.0934521e-07
1.0953455e-07
8.5603031e-08
1.2397479e-07
1.2301313e-07
1.2223776e-07
1.2144335e-07
1.2083206e-07
1.2015265e-07
1.1966447e-07
1.1906739e-07
1.1867536e-07
1.1813914e-07
1.1782447e-07
1.1733444e-07
1.1708343e-07
1.1662927e-07
1.1643153e-07
1.1600581e-07
1.1585323e-07
1.1545053e-07
1.1533659e-07
1.1495287e-07
1.1487224e-07
1.1450449e-07
1.1445272e-07
1.1409864e-07
1.1407197e-07
1.1372983e-07
1.1372505e-07
1.133935e-07
1.1340783e-07
1.1308585e-07
1.1311687e-07
1.1280365e-07
1.1284926e-07
1.1254416e-07
1.1260251e-07
1.1230504e-07
1.1237448e-07
1.1208426e-07
1.1216333e-07
1.1188003e-07
1.1196744e-07
1.1169082e-07
1.1178541e-07
1.1151525e-07
1.11616e-07
1.1135214e-07
1.1145811e-07
1.1120041e-07
1.1131078e-07
1.110591e-07
1.1117312e-07
1.1092737e-07
1.1104438e-07
1.1080444e-07
1.1092384e-07
1.1068963e-07
1.1081089e-07
1.1058232e-07
1.1070495e-07
1.1048194e-07
1.1060552e-07
1.1038798e-07
1.1051211e-07
1.1029998e-07
1.104243e-07
1.1021751e-07
1.1034171e-07
1.1014018e-07
1.1026397e-07
1.1006765e-07
1.1019074e-07
1.0999959e-07
1.1012013e-07
1.0993708e-07
1.1005872e-07
1.0987261e-07
1.0999839e-07
1.0980911e-07
1.0993911e-07
1.0974658e-07
1.0988085e-07
1.0968503e-07
1.0982357e-07
1.0962448e-07
1.0976727e-07
1.09565e-07
1.0971196e-07
1.0950667e-07
1.096578e-07
1.0944977e-07
1.0960533e-07
1.0939532e-07
1.09557e-07
1.093501e-07
1.0952995e-07
8.726674e-08
1.2397423e-07
1.2301387e-07
1.2223697e-07
1.2144431e-07
1.2083104e-07
1.2015385e-07
1.196632e-07
1.1906884e-07
1.1867384e-07
1.1814083e-07
1.1782272e-07
1.1733637e-07
1.1708145e-07
1.1663142e-07
1.1642933e-07
1.1600817e-07
1.1585082e-07
1.1545309e-07
1.1533399e-07
1.1495561e-07
1.1486947e-07
1.1450739e-07
1.1444978e-07
1.141017e-07
1.140689e-07
1.1373302e-07
1.1372185e-07
1.133968e-07
1.1340452e-07
1.1308924e-07
1.1311347e-07
1.1280713e-07
1.1284579e-07
1.1254771e-07
1.1259898e-07
1.1230864e-07
1.1237091e-07
1.1208789e-07
1.1215973e-07
1.1188368e-07
1.1196382e-07
1.1169447e-07
1.1178179e-07
1.1151891e-07
1.1161239e-07
1.1135578e-07
1.1145453e-07
1.1120401e-07
1.1130723e-07
1.1106267e-07
1.1116961e-07
1.1093089e-07
1.1104092e-07
1.1080791e-07
1.1092044e-07
1.1069305e-07
1.1080754e-07
1.1058568e-07
1.1070166e-07
1.1048524e-07
1.1060228e-07
1.1039123e-07
1.1050892e-07
1.1030318e-07
1.1042115e-07
1.1022068e-07
1.1033859e-07
1.1014332e-07
1.1026086e-07
1.1007078e-07
1.1018764e-07
1.1000272e-07
1.1011711e-07
1.0994021e-07
1.1005554e-07
1.0987592e-07
1.0999502e-07
1.0981263e-07
1.0993551e-07
1.0975033e-07
1.09877e-07
1.0968905e-07
1.0981944e-07
1.096288e-07
1.0976283e-07
1.0956962e-07
1.0970721e-07
1.0951162e-07
1.0965269e-07
1.0945511e-07
1.0959981e-07
1.0940108e-07
1.0955112e-07
1.0935587e-07
1.0952519e-07
8.899032e-08
1.2397362e-07
1.2301466e-07
1.2223612e-07
1.2144535e-07
1.2082994e-07
1.2015515e-07
1.1966183e-07
1.190704e-07
1.1867221e-07
1.1814266e-07
1.1782082e-07
1.1733845e-07
1.1707929e-07
1.1663375e-07
1.1642692e-07
1.1601075e-07
1.1584818e-07
1.154559e-07
1.1533112e-07
1.1495864e-07
1.1486638e-07
1.1451063e-07
1.144465e-07
1.1410512e-07
1.1406543e-07
1.1373662e-07
1.1371821e-07
1.1340057e-07
1.1340073e-07
1.1309316e-07
1.1310954e-07
1.1281117e-07
1.1284173e-07
1.1255187e-07
1.125948e-07
1.1231291e-07
1.1236663e-07
1.1209224e-07
1.1215537e-07
1.1188812e-07
1.1195939e-07
1.1169898e-07
1.117773e-07
1.1152346e-07
1.1160785e-07
1.1136037e-07
1.1144995e-07
1.1120864e-07
1.1130262e-07
1.1106732e-07
1.1116499e-07
1.1093556e-07
1.1103628e-07
1.1081259e-07
1.109158e-07
1.1069773e-07
1.108029e-07
1.1059036e-07
1.1069702e-07
1.1048993e-07
1.1059763e-07
1.1039591e-07
1.1050427e-07
1.1030787e-07
1.1041651e-07
1.1022536e-07
1.1033393e-07
1.1014802e-07
1.102562e-07
1.1007549e-07
1.1018297e-07
1.1000744e-07
1.1011254e-07
1.0994492e-07
1.1005075e-07
1.0988085e-07
1.0999e-07
1.098178e-07
1.0993025e-07
1.0975576e-07
1.0987147e-07
1.0969473e-07
1.0981365e-07
1.0963474e-07
1.0975679e-07
1.0957582e-07
1.0970091e-07
1.0951807e-07
1.0964614e-07
1.0946182e-07
1.0959296e-07
1.0940816e-07
1.0954371e-07
1.093639e-07
1.0951965e-07
9.0774487e-08
1.2397298e-07
1.230155e-07
1.2223522e-07
1.2144646e-07
1.2082876e-07
1.2015653e-07
1.1966037e-07
1.1907207e-07
1.1867046e-07
1.1814461e-07
1.1781878e-07
1.173407e-07
1.1707696e-07
1.1663628e-07
1.1642431e-07
1.1601355e-07
1.158453e-07
1.1545896e-07
1.1532798e-07
1.1496196e-07
1.1486299e-07
1.1451419e-07
1.1444287e-07
1.1410892e-07
1.1406157e-07
1.1374063e-07
1.1371414e-07
1.1340479e-07
1.1339646e-07
1.1309757e-07
1.1310508e-07
1.1281576e-07
1.1283709e-07
1.1255664e-07
1.1259e-07
1.1231783e-07
1.1236168e-07
1.1209731e-07
1.1215027e-07
1.1189332e-07
1.1195417e-07
1.117043e-07
1.1177196e-07
1.115289e-07
1.1160241e-07
1.1136591e-07
1.1144441e-07
1.1121427e-07
1.1129699e-07
1.1107303e-07
1.1115928e-07
1.1094134e-07
1.110305e-07
1.1081844e-07
1.1090995e-07
1.1070364e-07
1.10797e-07
1.1059632e-07
1.1069107e-07
1.1049594e-07
1.1059164e-07
1.1040197e-07
1.1049824e-07
1.1031396e-07
1.1041043e-07
1.1023149e-07
1.1032783e-07
1.1015417e-07
1.1025008e-07
1.1008165e-07
1.1017684e-07
1.1001361e-07
1.1010657e-07
1.0995104e-07
1.1004453e-07
1.0988723e-07
1.0998352e-07
1.0982443e-07
1.099235e-07
1.0976265e-07
1.0986447e-07
1.0970188e-07
1.0980641e-07
1.0964212e-07
1.0974933e-07
1.0958339e-07
1.0969327e-07
1.0952581e-07
1.0963837e-07
1.0946966e-07
1.0958512e-07
1.0941602e-07
1.0953585e-07
1.0937181e-07
1.0951306e-07
9.2624976e-08
1.239723e-07
1.2301639e-07
1.2223427e-07
1.2144762e-07
1.2082752e-07
1.20158e-07
1.1965882e-07
1.1907384e-07
1.186686e-07
1.181467e-07
1.178166e-07
1.1734309e-07
1.1707447e-07
1.1663898e-07
1.1642152e-07
1.1601656e-07
1.158422e-07
1.1546226e-07
1.1532459e-07
1.1496555e-07
1.1485932e-07
1.1451806e-07
1.1443892e-07
1.1411305e-07
1.1405736e-07
1.1374502e-07
1.1370967e-07
1.1340943e-07
1.1339174e-07
1.1310245e-07
1.1310013e-07
1.1282087e-07
1.1283192e-07
1.1256196e-07
1.1258462e-07
1.1232336e-07
1.123561e-07
1.1210304e-07
1.121445e-07
1.1189923e-07
1.1194821e-07
1.1171039e-07
1.1176583e-07
1.1153515e-07
1.1159612e-07
1.1137232e-07
1.1143797e-07
1.1122082e-07
1.1129041e-07
1.1107971e-07
1.1115258e-07
1.1094815e-07
1.1102368e-07
1.1082536e-07
1.1090302e-07
1.1071066e-07
1.1078996e-07
1.1060344e-07
1.1068394e-07
1.1050314e-07
1.1058443e-07
1.1040924e-07
1.1049097e-07
1.1032129e-07
1.1040311e-07
1.1023887e-07
1.1032047e-07
1.1016158e-07
1.1024269e-07
1.1008907e-07
1.1016945e-07
1.1002103e-07
1.100994e-07
1.0995837e-07
1.1003708e-07
1.0989484e-07
1.0997578e-07
1.0983233e-07
1.0991549e-07
1.0977082e-07
1.098562e-07
1.097103e-07
1.097979e-07
1.0965077e-07
1.097406e-07
1.0959224e-07
1.0968437e-07
1.0953479e-07
1.0962939e-07
1.0947866e-07
1.0957621e-07
1.0942478e-07
1.0952742e-07
1.0937957e-07
1.0950141e-07
9.4546287e-08
1.2397159e-07
1.2301732e-07
1.2223327e-07
1.2144885e-07
1.2082621e-07
1.2015954e-07
1.196572e-07
1.190757e-07
1.1866664e-07
1.1814889e-07
1.1781431e-07
1.1734562e-07
1.1707185e-07
1.1664184e-07
1.1641856e-07
1.1601975e-07
1.1583891e-07
1.1546577e-07
1.1532098e-07
1.1496938e-07
1.1485539e-07
1.1452219e-07
1.1443469e-07
1.1411749e-07
1.1405283e-07
1.1374975e-07
1.1370485e-07
1.1341444e-07
1.1338664e-07
1.1310773e-07
1.1309476e-07
1.1282642e-07
1.1282629e-07
1.1256777e-07
1.1257873e-07
1.1232942e-07
1.1234997e-07
1.1210933e-07
1.1213813e-07
1.1190575e-07
1.1194162e-07
1.1171713e-07
1.1175903e-07
1.1154209e-07
1.1158912e-07
1.1137946e-07
1.1143078e-07
1.1122815e-07
1.1128304e-07
1.1108722e-07
1.1114503e-07
1.1095581e-07
1.1101598e-07
1.1083317e-07
1.1089517e-07
1.1071862e-07
1.1078199e-07
1.1061152e-07
1.1067585e-07
1.1051132e-07
1.1057624e-07
1.1041752e-07
1.1048269e-07
1.1032964e-07
1.1039477e-07
1.1024726e-07
1.103121e-07
1.1017e-07
1.102343e-07
1.100975e-07
1.1016107e-07
1.1002943e-07
1.1009127e-07
1.0996668e-07
1.1002865e-07
1.0990345e-07
1.0996705e-07
1.0984124e-07
1.0990646e-07
1.0978002e-07
1.0984688e-07