/*--------------------------------*- C++ -*----------------------------------*\
| =========                 |                                                 |
| \\      /  F ield         | OpenFOAM: The Open Source CFD Toolbox           |
|  \\    /   O peration     | Version:  5.x                                   |
|   \\  /    A nd           | Web:      www.OpenFOAM.org                      |
|    \\/     M anipulation  |                                                 |
\*---------------------------------------------------------------------------*/
FoamFile
{
    version     2.0;
    format      ascii;
    class       volScalarField;
    location    "5000";
    object      omega;
}
// * * * * * * * * * * * * * * * * * * * * * * * * * * * * * * * * * * * * * //

dimensions      [0 0 -1 0 0 0 0];

internalField   nonuniform List<scalar> 
209825
(
8259.5972
7576.4745
7010.2837
6535.1889
6129.3165
5780.704
5475.9847
5209.8829
4972.9809
4763.6375
4574.3737
4405.7226
4251.1819
4112.6861
3984.2257
3868.6894
3760.3114
3662.6528
3570.0665
3486.5949
3406.6511
3334.6207
3264.9567
3202.2826
3141.0914
3086.1615
3032.0381
2983.5864
2935.4217
2892.44
2849.3469
2811.0227
2772.2831
2737.9541
2702.9805
2672.1016
2640.4083
2612.5271
2583.7091
2558.447
2532.1637
2509.2017
2485.1641
2464.2316
2442.1933
2423.0593
2402.8084
2385.2749
2366.628
2350.5242
2333.3218
2318.4998
2302.6025
2288.9337
2274.2186
2261.5908
2247.9495
2236.2642
2223.6006
2212.7712
2200.9997
2190.9497
2179.9937
2170.6554
2160.4463
2151.7595
2142.2354
2134.1466
2125.2519
2117.7128
2109.3973
2102.3648
2094.6846
2088.2216
2080.8851
2074.5747
2067.3878
2061.2257
2054.1834
2048.1652
2041.2635
2035.3836
2028.6203
2022.8711
2016.247
2010.6189
2004.1356
1998.6239
1992.2665
1986.919
1980.5453
1975.7391
1968.5795
1979.7949
2107.1294
16574.82
8259.5972
7576.4746
7010.2837
6535.189
6129.3163
5780.7042
5475.9845
5209.8831
4972.9806
4763.6379
4574.3733
4405.7231
4251.1813
4112.6868
3984.225
3868.6902
3760.3105
3662.6539
3570.0654
3486.5961
3406.6497
3334.6222
3264.9551
3202.2843
3141.0896
3086.1635
3032.036
2983.5886
2935.4193
2892.4425
2849.3443
2811.0254
2772.2803
2737.9571
2702.9774
2672.1048
2640.405
2612.5306
2583.7056
2558.4507
2532.16
2509.2055
2485.1603
2464.2355
2442.1894
2423.0633
2402.8044
2385.279
2366.6239
2350.5283
2333.3177
2318.5039
2302.5984
2288.9377
2274.2146
2261.5946
2247.9457
2236.2679
2223.597
2212.7746
2200.9964
2190.9529
2179.9907
2170.6583
2160.4436
2151.762
2142.2331
2134.1487
2125.25
2117.7145
2109.3958
2102.3661
2094.6836
2088.2225
2080.8844
2074.5753
2067.3872
2061.2263
2054.1828
2048.166
2041.2624
2035.3853
2028.6179
2022.8746
2016.2424
2010.624
2004.1318
1998.6211
1992.2898
1986.8404
1980.7667
1975.1596
1970.3486
1980.8702
2158.5613
9766.2618
8259.5972
7576.4746
7010.2835
6535.1892
6129.3161
5780.7045
5475.9841
5209.8836
4972.98
4763.6386
4574.3724
4405.7242
4251.1801
4112.6881
3984.2235
3868.692
3760.3086
3662.656
3570.0631
3486.5987
3406.6469
3334.6253
3264.9518
3202.2878
3141.0858
3086.1675
3032.0317
2983.5932
2935.4145
2892.4476
2849.3389
2811.031
2772.2744
2737.9632
2702.971
2672.1114
2640.3982
2612.5376
2583.6984
2558.4581
2532.1524
2509.2132
2485.1524
2464.2435
2442.1812
2423.0715
2402.7961
2385.2873
2366.6155
2350.5367
2333.3094
2318.5123
2302.5901
2288.9459
2274.2065
2261.6026
2247.9379
2236.2755
2223.5896
2212.7818
2200.9894
2190.9595
2179.9843
2170.6643
2160.4379
2151.7673
2142.2283
2134.1531
2125.2459
2117.7181
2109.3926
2102.3689
2094.6813
2088.2245
2080.8827
2074.5767
2067.3861
2061.2273
2054.1818
2048.1673
2041.2607
2035.3878
2028.614
2022.8803
2016.2342
2010.6351
2004.1181
1998.6351
1992.2826
1986.8236
1980.846
1974.9493
1970.8724
1981.0325
2140.2571
6977.4956
8259.5971
7576.4748
7010.2834
6535.1894
6129.3158
5780.7049
5475.9835
5209.8844
4972.979
4763.6397
4574.3711
4405.7257
4251.1783
4112.6902
3984.2212
3868.6945
3760.3057
3662.6592
3570.0595
3486.6026
3406.6427
3334.6298
3264.9468
3202.2932
3141.08
3086.1736
3032.0252
2983.6001
2935.4071
2892.4553
2849.3308
2811.0395
2772.2655
2737.9724
2702.9614
2672.1214
2640.3879
2612.5482
2583.6874
2558.4693
2532.1409
2509.225
2485.1404
2464.2557
2442.1688
2423.0841
2402.7834
2385.3001
2366.6027
2350.5495
2333.2965
2318.5251
2302.5774
2288.9585
2274.194
2261.6149
2247.9258
2236.2873
2223.5781
2212.7931
2200.9786
2190.97
2179.9743
2170.6739
2160.4288
2151.7758
2142.2203
2134.1605
2125.2391
2117.7243
2109.3871
2102.3738
2094.6772
2088.2282
2080.8796
2074.5793
2067.3839
2061.229
2054.1804
2048.1685
2041.2593
2035.3896
2028.6111
2022.8852
2016.2261
2010.6485
2004.0962
1998.6716
1992.2197
1986.9381
1980.6212
1975.4231
1969.6534
1979.1372
2081.2297
4659.5362
8259.5971
7576.4749
7010.2832
6535.1898
6129.3153
5780.7055
5475.9827
5209.8853
4972.9778
4763.6412
4574.3694
4405.7277
4251.176
4112.6928
3984.2181
3868.698
3760.3018
3662.6635
3570.0548
3486.6077
3406.6371
3334.636
3264.9402
3202.3003
3141.0724
3086.1818
3032.0164
2983.6093
2935.3973
2892.4656
2849.32
2811.0509
2772.2536
2737.9848
2702.9485
2672.1347
2640.374
2612.5625
2583.6727
2558.4844
2532.1254
2509.2408
2485.1243
2464.2721
2442.1522
2423.101
2402.7663
2385.3173
2366.5854
2350.5669
2333.2791
2318.5425
2302.56
2288.9758
2274.1769
2261.6318
2247.9091
2236.3037
2223.562
2212.8087
2200.9633
2190.9848
2179.96
2170.6875
2160.4157
2151.7883
2142.2085
2134.1716
2125.2288
2117.7338
2109.3784
2102.3816
2094.6703
2088.2344
2080.8742
2074.584
2067.3802
2061.232
2054.1784
2048.1697
2041.2589
2035.3896
2028.6114
2022.8852
2016.2246
2010.6536
2004.0833
1998.7002
1992.1588
1987.065
1980.358
1975.9592
1968.3967
1972.877
2021.6341
2979.5215
8259.597
7576.4751
7010.2829
6535.1902
6129.3148
5780.7063
5475.9818
5209.8865
4972.9764
4763.6429
4574.3673
4405.7302
4251.1731
4112.6961
3984.2144
3868.7022
3760.2971
3662.6687
3570.049
3486.6141
3406.6301
3334.6436
3264.932
3202.3092
3141.0629
3086.192
3032.0056
2983.6208
2935.3852
2892.4784
2849.3065
2811.065
2772.2388
2738.0002
2702.9325
2672.1514
2640.3568
2612.5802
2583.6544
2558.5032
2532.1061
2509.2605
2485.1041
2464.2927
2442.1313
2423.1222
2402.7449
2385.339
2366.5635
2350.5889
2333.257
2318.5646
2302.5379
2288.9978
2274.155
2261.6535
2247.8876
2236.3249
2223.5411
2212.8292
2200.9432
2191.0043
2179.941
2170.706
2160.3979
2151.8054
2142.1921
2134.1872
2125.2141
2117.7477
2109.3654
2102.3936
2094.6596
2088.2443
2080.8652
2074.592
2067.3733
2061.2376
2054.1742
2048.1722
2041.2582
2035.3881
2028.6153
2022.8787
2016.2341
2010.641
2004.099
1998.6818
1992.1796
1987.0411
1980.3916
1975.886
1968.4828
1966.5362
1981.7773
2238.6714
8259.597
7576.4752
7010.2827
6535.1906
6129.3142
5780.7071
5475.9807
5209.8879
4972.9747
4763.645
4574.3648
4405.733
4251.1698
4112.7
3984.21
3868.7071
3760.2915
3662.6749
3570.0421
3486.6216
3406.6218
3334.6525
3264.9223
3202.3196
3141.0517
3086.204
3031.9928
2983.6344
2935.3708
2892.4936
2849.2905
2811.0817
2772.2214
2738.0185
2702.9135
2672.1711
2640.3364
2612.6014
2583.6326
2558.5256
2532.0831
2509.2841
2485.08
2464.3172
2442.1063
2423.1475
2402.7191
2385.365
2366.5372
2350.6154
2333.2303
2318.5913
2302.5111
2289.0246
2274.1283
2261.6802
2247.8611
2236.3512
2223.5151
2212.8549
2200.918
2191.0291
2179.9167
2170.7298
2160.3748
2151.8279
2142.1703
2134.2082
2125.1939
2117.767
2109.347
2102.4111
2094.6437
2088.2595
2080.8508
2074.6053
2067.3612
2061.2482
2054.1654
2048.1789
2041.2542
2035.3888
2028.6187
2022.8698
2016.2503
2010.6147
2004.14
1998.6178
1992.2819
1986.869
1980.7001
1975.2881
1969.7038
1963.2329
1965.5114
2038.087
8259.597
7576.4754
7010.2824
6535.191
6129.3135
5780.708
5475.9795
5209.8894
4972.9728
4763.6472
4574.3621
4405.7362
4251.166
4112.7043
3984.205
3868.7127
3760.2853
3662.6818
3570.0344
3486.6301
3406.6125
3334.6626
3264.9113
3202.3314
3141.0389
3086.2175
3031.9783
2983.6498
2935.3545
2892.5108
2849.2724
2811.1008
2772.2014
2738.0393
2702.8918
2672.1936
2640.313
2612.6255
2583.6077
2558.5512
2532.0567
2509.3111
2485.0524
2464.3454
2442.0775
2423.1768
2402.6894
2385.3951
2366.5067
2350.6462
2333.1992
2318.6226
2302.4797
2289.0562
2274.0967
2261.7118
2247.8296
2236.3826
2223.4839
2212.8859
2200.8872
2191.0596
2179.8866
2170.7594
2160.3456
2151.8565
2142.1423
2134.2356
2125.1672
2117.793
2109.3218
2102.4353
2094.621
2088.2818
2080.8292
2074.6261
2067.3414
2061.2668
2054.1483
2048.194
2041.2416
2035.3982
2028.6136
2022.8691
2016.2587
2010.5952
2004.1754
1998.5587
1992.3769
1986.7198
1980.9282
1974.9609
1970.074
1963.0687
1960.4098
1985.7658
8259.5971
7576.4755
7010.2822
6535.1914
6129.3129
5780.7088
5475.9783
5209.8909
4972.9708
4763.6496
4574.3592
4405.7397
4251.162
4112.7089
3984.1997
3868.7187
3760.2785
3662.6894
3570.026
3486.6394
3406.6024
3334.6736
3264.8993
3202.3443
3141.025
3086.2325
3031.9624
2983.6667
2935.3366
2892.5297
2849.2524
2811.1217
2772.1794
2738.0622
2702.8679
2672.2184
2640.2872
2612.6522
2583.5801
2558.5797
2532.0275
2509.3411
2485.0216
2464.3769
2442.0453
2423.2096
2402.656
2385.429
2366.4723
2350.681
2333.1641
2318.6581
2302.4439
2289.0922
2274.0604
2261.7481
2247.7932
2236.4191
2223.4474
2212.9223
2200.8509
2191.0957
2179.8506
2170.7951
2160.3102
2151.8916
2142.1076
2134.2699
2125.1333
2117.8263
2109.2891
2102.4675
2094.5903
2088.3124
2080.7987
2074.6564
2067.3113
2061.2963
2054.1194
2048.222
2041.2148
2035.4233
2028.5906
2022.8893
2016.2422
2010.6069
2004.1696
1998.558
1992.3828
1986.7153
1980.9096
1975.0582
1969.7646
1963.8158
1958.7299
1967.9808
8259.5972
7576.4755
7010.2821
6535.1917
6129.3124
5780.7096
5475.9771
5209.8924
4972.9689
4763.652
4574.3562
4405.7432
4251.1578
4112.7137
3984.1941
3868.725
3760.2713
3662.6974
3570.0171
3486.6492
3406.5916
3334.6854
3264.8866
3202.3581
3141.0102
3086.2484
3031.9454
2983.6848
2935.3174
2892.55
2849.231
2811.1442
2772.1559
2738.0869
2702.8422
2672.2452
2640.2594
2612.6809
2583.5504
2558.6104
2531.9959
2509.3736
2484.9882
2464.4111
2442.0104
2423.2452
2402.6196
2385.466
2366.4347
2350.7192
2333.1253
2318.6973
2302.4042
2289.1322
2274.0201
2261.7887
2247.7522
2236.4602
2223.4061
2212.9637
2200.8094
2191.1373
2179.809
2170.8367
2160.2686
2151.9331
2142.0661
2134.3111
2125.0922
2117.8672
2109.2484
2102.508
2094.5511
2088.3521
2080.7583
2074.6973
2067.2697
2061.3385
2054.0765
2048.2655
2041.1704
2035.4685
2028.5441
2022.9374
2016.1916
2010.6613
2004.1086
1998.6301
1992.2911
1986.841
1980.726
1975.3335
1969.3637
1964.3185
1958.3445
1961.5669
8259.5974
7576.4753
7010.2821
6535.1919
6129.3119
5780.7103
5475.9761
5209.8938
4972.967
4763.6544
4574.3533
4405.7467
4251.1536
4112.7186
3984.1885
3868.7314
3760.264
3662.7055
3570.008
3486.6592
3406.5806
3334.6974
3264.8734
3202.3723
3140.9948
3086.2648
3031.9278
2983.7035
2935.2974
2892.5711
2849.2088
2811.1676
2772.1313
2738.1125
2702.8153
2672.2731
2640.2304
2612.711
2583.5192
2558.6426
2531.9626
2509.4078
2484.9531
2464.4471
2441.9735
2423.283
2402.5811
2385.5053
2366.3946
2350.7599
2333.0839
2318.7393
2302.3616
2289.1753
2273.9764
2261.8329
2247.7076
2236.5052
2223.3607
2213.0095
2200.7633
2191.1837
2179.7624
2170.8836
2160.2215
2151.9804
2142.0186
2134.3588
2125.0443
2117.9152
2109.2001
2102.5563
2094.5038
2088.4005
2080.7085
2074.7485
2067.2169
2061.3929
2054.0199
2048.3243
2041.1089
2035.5333
2028.4752
2023.0114
2016.1107
2010.7513
2004.0059
1998.7501
1992.1474
1987.0162
1980.5122
1975.5862
1969.0908
1964.5518
1958.2686
1958.9185
8259.5978
7576.4751
7010.2822
6535.1919
6129.3117
5780.7108
5475.9753
5209.895
4972.9654
4763.6565
4574.3506
4405.7499
4251.1497
4112.7232
3984.1831
3868.7376
3760.2569
3662.7135
3569.9991
3486.6691
3406.5696
3334.7094
3264.8603
3202.3865
3140.9794
3086.2813
3031.9101
2983.7224
2935.2774
2892.5923
2849.1863
2811.1912
2772.1064
2738.1386
2702.7881
2672.3015
2640.2008
2612.7417
2583.4874
2558.6754
2531.9287
2509.4427
2484.9171
2464.4841
2441.9355
2423.3219
2402.5413
2385.546
2366.3531
2350.8023
2333.0408
2318.7832
2302.317
2289.2206
2273.9304
2261.8795
2247.6604
2236.553
2223.3123
2213.0584
2200.7138
2191.2336
2179.7119
2170.9345
2160.1701
2152.0323
2141.9663
2134.4116
2124.991
2117.969
2109.1459
2102.611
2094.45
2088.4559
2080.651
2074.8079
2067.1551
2061.4571
2053.9528
2048.3945
2041.0347
2035.6117
2028.3915
2023.1012
2016.0132
2010.8578
2003.8886
1998.88
1992.0035
1987.1736
1980.3447
1975.7551
1968.9344
1964.6817
1958.1905
1955.9674
8259.5983
7576.4746
7010.2826
6535.1916
6129.3117
5780.711
5475.9748
5209.8958
4972.9641
4763.6582
4574.3483
4405.7528
4251.1461
4112.7274
3984.1781
3868.7434
3760.2503
3662.721
3569.9906
3486.6785
3406.5591
3334.721
3264.8476
3202.4003
3140.9646
3086.2973
3031.8929
2983.7407
2935.2578
2892.6131
2849.1643
2811.2144
2772.082
2738.1641
2702.7613
2672.3294
2640.1717
2612.772
2583.4559
2558.708
2531.895
2509.4775
2484.8812
2464.5209
2441.8976
2423.3607
2402.5014
2385.5868
2366.3114
2350.8448
2332.9973
2318.8275
2302.2718
2289.2666
2273.8836
2261.927
2247.6121
2236.602
2223.2625
2213.1088
2200.6627
2191.2854
2179.6594
2170.9876
2160.1162
2152.0867
2141.9111
2134.4674
2124.9346
2118.0261
2109.0881
2102.6695
2094.3922
2088.5155
2080.5891
2074.872
2067.0884
2061.5265
2053.8802
2048.4703
2040.9551
2035.6953
2028.3033
2023.1942
2015.9148
2010.9616
2003.7794
1998.9934
1991.8876
1987.2879
1980.2376
1975.847
1968.865
1964.7294
1958.1356
1957.8289
8259.599
7576.4738
7010.2832
6535.191
6129.3121
5780.7107
5475.9747
5209.8961
4972.9633
4763.6593
4574.3466
4405.755
4251.1433
4112.7309
3984.1738
3868.7484
3760.2444
3662.7277
3569.9829
3486.6871
3406.5495
3334.7315
3264.836
3202.4129
3140.9507
3086.3122
3031.8768
2983.7579
2935.2394
2892.6326
2849.1436
2811.2363
2772.0589
2738.1884
2702.7359
2672.356
2640.1439
2612.8008
2583.4259
2558.7391
2531.8628
2509.5107
2484.8468
2464.5563
2441.8611
2423.3982
2402.4629
2385.6262
2366.2709
2350.8862
2332.955
2318.8707
2302.2277
2289.3116
2273.8378
2261.9737
2247.5645
2236.6503
2223.2133
2213.1588
2200.6119
2191.3369
2179.6071
2171.0407
2160.0624
2152.1413
2141.8558
2134.5234
2124.8778
2118.0836
2109.0298
2102.7286
2094.334
2088.5755
2080.5268
2074.9364
2067.0214
2061.5958
2053.8082
2048.5449
2040.8775
2035.7756
2028.22
2023.2802
2015.8264
2011.0515
2003.6888
1999.0827
1991.8018
1987.3667
1980.1695
1975.9
1968.8309
1964.7453
1958.0817
1958.3777
8259.6
7576.4727
7010.2842
6535.19
6129.3129
5780.7099
5475.9751
5209.8959
4972.9632
4763.6598
4574.3457
4405.7563
4251.1413
4112.7334
3984.1705
3868.7523
3760.2397
3662.7332
3569.9766
3486.6943
3406.5413
3334.7406
3264.8259
3202.424
3140.9386
3086.3253
3031.8625
2983.7732
2935.223
2892.6501
2849.1249
2811.256
2772.0381
2738.2103
2702.7128
2672.3801
2640.1187
2612.8272
2583.3985
2558.7675
2531.8332
2509.5413
2484.8152
2464.5889
2441.8275
2423.4328
2402.4273
2385.6628
2366.2334
2350.9247
2332.9156
2318.911
2302.1865
2289.3536
2273.7948
2262.0175
2247.5199
2236.6958
2223.167
2213.2059
2200.5639
2191.3857
2179.5575
2171.0909
2160.0114
2152.193
2141.8033
2134.5766
2124.8239
2118.1381
2108.9746
2102.7844
2094.2791
2088.6321
2080.4683
2074.9966
2066.9592
2061.6598
2053.7422
2048.6127
2040.8079
2035.8467
2028.1474
2023.3535
2015.7526
2011.1248
2003.6167
1999.1522
1991.7358
1987.428
1980.1131
1975.9519
1968.7802
1964.8005
1957.9902
1958.4805
8259.6012
7576.4712
7010.2856
6535.1884
6129.3143
5780.7085
5475.9763
5209.8948
4972.9639
4763.6593
4574.3457
4405.7566
4251.1404
4112.7347
3984.1686
3868.7548
3760.2365
3662.737
3569.9719
3486.6997
3406.5351
3334.7476
3264.8179
3202.4328
3140.9288
3086.3361
3031.8508
2983.7859
2935.2093
2892.6647
2849.1093
2811.2726
2772.0204
2738.229
2702.6931
2672.4008
2640.097
2612.8498
2583.3748
2558.7921
2531.8076
2509.5678
2484.7877
2464.6173
2441.7981
2423.463
2402.3961
2385.6948
2366.2004
2350.9584
2332.8809
2318.9465
2302.1501
2289.3907
2273.7568
2262.0562
2247.4803
2236.7361
2223.1259
2213.2477
2200.5214
2191.4289
2179.5136
2171.1355
2159.9661
2152.2389
2141.7568
2134.6237
2124.7763
2118.1862
2108.926
2102.8333
2094.231
2088.6814
2080.4175
2075.0486
2066.9057
2061.7144
2053.6863
2048.6696
2040.75
2035.9052
2028.0884
2023.4125
2015.6938
2011.1828
2003.5596
1999.2081
1991.681
1987.4823
1980.0581
1976.0097
1968.7162
1964.8732
1957.9032
1958.3436
8259.6028
7576.4693
7010.2875
6535.1863
6129.3163
5780.7064
5475.9783
5209.8928
4972.9656
4763.6576
4574.347
4405.7556
4251.141
4112.7344
3984.1684
3868.7555
3760.2352
3662.7388
3569.9694
3486.7028
3406.5312
3334.7521
3264.8126
3202.4389
3140.9219
3086.3437
3031.8423
2983.7951
2935.1991
2892.6757
2849.0974
2811.2853
2772.0068
2738.2434
2702.6778
2672.4169
2640.0799
2612.8676
2583.3561
2558.8116
2531.7872
2509.589
2484.7657
2464.6401
2441.7745
2423.4873
2402.371
2385.7206
2366.1738
2350.9857
2332.8528
2318.9752
2302.1207
2289.4209
2273.726
2262.0877
2247.4482
2236.7689
2223.0925
2213.2816
2200.4868
2191.464
2179.478
2171.1717
2159.9295
2152.2759
2141.7193
2134.6615
2124.738
2118.2247
2108.8872
2102.8723
2094.1929
2088.7202
2080.3776
2075.0892
2066.8642
2061.7565
2053.6434
2048.7129
2040.7062
2035.9492
2028.0442
2023.4567
2015.6496
2011.2269
2003.5155
1999.2524
1991.6358
1987.529
1980.0084
1976.0635
1968.6561
1964.9411
1957.8195
1958.1483
8259.6048
7576.4668
7010.2899
6535.1835
6129.3191
5780.7033
5475.9812
5209.8897
4972.9685
4763.6547
4574.3497
4405.7529
4251.1433
4112.7323
3984.1701
3868.754
3760.2361
3662.7382
3569.9694
3486.7031
3406.5302
3334.7536
3264.8105
3202.4415
3140.9186
3086.3476
3031.8377
2983.8003
2935.1932
2892.6822
2849.0901
2811.2932
2771.9982
2738.2526
2702.6678
2672.4275
2640.0687
2612.8795
2583.3435
2558.8248
2531.7734
2509.6034
2484.7506
2464.6558
2441.7582
2423.5043
2402.3535
2385.7387
2366.1552
2351.0049
2332.8331
2318.9955
2302.0999
2289.4421
2273.7042
2262.1099
2247.4255
2236.7919
2223.069
2213.3055
2200.4626
2191.4885
2179.453
2171.1968
2159.904
2152.3016
2141.6934
2134.6875
2124.7118
2118.251
2108.8609
2102.8986
2094.1673
2088.7462
2080.3511
2075.116
2066.837
2061.7841
2053.6155
2048.741
2040.6778
2035.9777
2028.0154
2023.4856
2015.6204
2011.2565
2003.4852
1999.2835
1991.6035
1987.5626
1979.9732
1976.1006
1968.6163
1964.9854
1957.7399
1957.9589
8259.6071
7576.4638
7010.293
6535.1799
6129.3227
5780.6993
5475.9852
5209.8854
4972.9728
4763.6502
4574.354
4405.7485
4251.1475
4112.7281
3984.174
3868.7501
3760.2397
3662.7348
3569.9725
3486.7003
3406.5326
3334.7515
3264.8121
3202.4402
3140.9194
3086.3471
3031.8377
2983.8007
2935.1923
2892.6835
2849.0883
2811.2954
2771.9955
2738.2557
2702.6642
2672.4316
2640.0641
2612.8845
2583.3381
2558.8307
2531.7671
2509.6101
2484.7435
2464.6633
2441.7503
2423.5125
2402.3448
2385.7476
2366.1459
2351.0145
2332.8231
2319.0057
2302.0893
2289.4529
2273.6932
2262.1211
2247.414
2236.8036
2223.0572
2213.3175
2200.4504
2191.5007
2179.4407
2171.2092
2159.8916
2152.314
2141.681
2134.6998
2124.6996
2118.2631
2108.8489
2102.9104
2094.1559
2088.7576
2080.3396
2075.1275
2066.8254
2061.7956
2053.6039
2048.7525
2040.6662
2035.9894
2028.0035
2023.4977
2015.6078
2011.2696
2003.4714
1999.298
1991.5883
1987.5783
1979.9576
1976.1146
1968.6066
1964.9847
1957.6767
1957.7858
8259.6099
7576.4601
7010.2967
6535.1754
6129.3272
5780.6941
5475.9904
5209.8796
4972.9785
4763.6441
4574.3602
4405.742
4251.154
4112.7214
3984.1806
3868.7434
3760.2462
3662.7282
3569.9789
3486.6939
3406.5388
3334.7454
3264.818
3202.4344
3140.925
3086.3417
3031.8428
2983.7957
2935.197
2892.679
2849.0926
2811.2913
2771.9992
2738.2521
2702.6675
2672.4284
2640.067
2612.8817
2583.3406
2558.8283
2531.7692
2509.6081
2484.7453
2464.6615
2441.7518
2423.511
2402.3462
2385.7464
2366.147
2351.0134
2332.8241
2319.0047
2302.0903
2289.4519
2273.6941
2262.1202
2247.415
2236.8025
2223.0583
2213.3162
2200.4517
2191.4993
2179.4423
2171.2074
2159.8935
2152.3119
2141.6833
2134.6973
2124.7024
2118.26
2108.8522
2102.9068
2094.1596
2088.7536
2080.344
2075.1228
2066.8305
2061.7902
2053.6096
2048.7465
2040.6724
2035.983
2028.0099
2023.4913
2015.614
2011.2636
2003.4769
1999.293
1991.5926
1987.5747
1979.9605
1976.1122
1968.6082
1964.9835
1957.6355
1957.6152
8259.6132
7576.4557
7010.3011
6535.17
6129.3328
5780.6878
5475.997
5209.8724
4972.986
4763.636
4574.3683
4405.7333
4251.1628
4112.7122
3984.1899
3868.7338
3760.256
3662.7182
3569.9889
3486.6836
3406.5491
3334.7348
3264.8285
3202.4237
3140.9356
3086.3309
3031.8535
2983.7849
2935.2077
2892.6681
2849.1034
2811.2804
2772.0101
2738.2411
2702.6785
2672.4173
2640.0781
2612.8706
2583.3518
2558.817
2531.7805
2509.5966
2484.7568
2464.6499
2441.7635
2423.4992
2402.3581
2385.7343
2366.1592
2351.001
2332.8367
2318.9919
2302.1032
2289.4387
2273.7076
2262.1064
2247.4289
2236.7882
2223.0728
2213.3013
2200.4669
2191.4837
2179.4581
2171.1912
2159.91
2152.2949
2141.7006
2134.6796
2124.7204
2118.2416
2108.8709
2102.8877
2094.1785
2088.734
2080.3643
2075.1018
2066.8522
2061.7677
2053.6329
2048.7226
2040.697
2035.9578
2028.0358
2023.465
2015.6408
2011.2365
2003.5043
1999.2656
1991.6197
1987.5484
1979.9851
1976.091
1968.6227
1964.9821
1957.6883
1957.3513
8259.6171
7576.4506
7010.3064
6535.1636
6129.3394
5780.6801
5476.0049
5209.8635
4972.9952
4763.626
4574.3787
4405.7223
4251.1742
4112.7001
3984.2023
3868.7208
3760.2692
3662.7044
3570.003
3486.6691
3406.5639
3334.7197
3264.8439
3202.4079
3140.9516
3086.3145
3031.8702
2983.7679
2935.225
2892.6505
2849.1212
2811.2623
2772.0285
2738.2224
2702.6974
2672.398
2640.0976
2612.8507
2583.3719
2558.7965
2531.8012
2509.5755
2484.7781
2464.6282
2441.7856
2423.4767
2402.3809
2385.7111
2366.1827
2350.977
2332.861
2318.9671
2302.1284
2289.4131
2273.7336
2262.0799
2247.4559
2236.7608
2223.1007
2213.273
2200.4957
2191.4545
2179.4878
2171.161
2159.9407
2152.2637
2141.7322
2134.6475
2124.7529
2118.2087
2108.9042
2102.854
2094.2117
2088.6998
2080.3996
2075.0654
2066.8899
2061.7289
2053.6729
2048.6814
2040.7395
2035.914
2028.0809
2023.4185
2015.6887
2011.1873
2003.5549
1999.2136
1991.673
1987.4938
1980.0407
1976.0346
1968.6798
1964.9232
1957.7966
1957.0783
8259.6215
7576.4447
7010.3125
6535.1562
6129.3472
5780.6711
5476.0144
5209.853
4973.0062
4763.6139
4574.3913
4405.7087
4251.1883
4112.6851
3984.2178
3868.7045
3760.286
3662.6868
3570.0211
3486.6502
3406.5832
3334.6996
3264.8644
3202.3867
3140.9732
3086.2922
3031.8929
2983.7445
2935.2488
2892.6261
2849.146
2811.2368
2772.0544
2738.1959
2702.7244
2672.3705
2640.1256
2612.8221
2583.4009
2558.7668
2531.8314
2509.5448
2484.8094
2464.5963
2441.8179
2423.4438
2402.4143
2385.6771
2366.2172
2350.9419
2332.8967
2318.9309
2302.1652
2289.3757
2273.7715
2262.0414
2247.4949
2236.7212
2223.1408
2213.2323
2200.5369
2191.4126
2179.5302
2171.1181
2159.9841
2152.2198
2141.7766
2134.6027
2124.7981
2118.163
2108.9503
2102.8075
2094.2573
2088.6529
2080.448
2075.0156
2066.9412
2061.6761
2053.7274
2048.6252
2040.7975
2035.8542
2028.1428
2023.3545
2015.755
2011.1185
2003.6265
1999.1392
1991.7509
1987.4121
1980.1272
1975.942
1968.7805
1964.8101
1957.9216
1956.8144
8259.6264
7576.4379
7010.3195
6535.1477
6129.3562
5780.6607
5476.0254
5209.8406
4973.0192
4763.5997
4574.4063
4405.6925
4251.2051
4112.6671
3984.2365
3868.6846
3760.3066
3662.6652
3570.0434
3486.6269
3406.6072
3334.6746
3264.8901
3202.3601
3141.0005
3086.264
3031.9218
2983.7148
2935.2792
2892.5948
2849.178
2811.204
2772.0878
2738.1617
2702.7592
2672.3348
2640.1619
2612.7849
2583.4387
2558.7283
2531.8706
2509.5049
2484.8499
2464.555
2441.8598
2423.4011
2402.4576
2385.633
2366.2619
2350.8965
2332.9426
2318.8842
2302.2124
2289.3278
2273.82
2261.9923
2247.5446
2236.6709
2223.1917
2213.1808
2200.5889
2191.3601
2179.5831
2171.0646
2160.038
2152.1654
2141.8313
2134.5474
2124.8537
2118.107
2109.0066
2102.7509
2094.3127
2088.5962
2080.5064
2074.9557
2067.0028
2061.6127
2053.7927
2048.5581
2040.8668
2035.7827
2028.2167
2023.2781
2015.8342
2011.0363
2003.712
1999.05
1991.8443
1987.3141
1980.2306
1975.8326
1968.8961
1964.6877
1958.0417
1956.5577
8259.632
7576.4304
7010.3273
6535.138
6129.3664
5780.6489
5476.0379
5209.8265
4973.0342
4763.5832
4574.4236
4405.6738
4251.2248
4112.6461
3984.2585
3868.6613
3760.3308
3662.6397
3570.0698
3486.5992
3406.6358
3334.6448
3264.9208
3202.3282
3141.0333
3086.2301
3031.9566
2983.6789
2935.316
2892.557
2849.2167
2811.1643
2772.1284
2738.1201
2702.8016
2672.2914
2640.2061
2612.7399
2583.4845
2558.6816
2531.9181
2509.4565
2484.899
2464.5051
2441.9105
2423.3497
2402.5097
2385.5801
2366.3154
2350.8423
2332.9975
2318.8286
2302.2686
2289.271
2273.8773
2261.9343
2247.603
2236.6119
2223.2511
2213.1209
2200.6492
2191.2994
2179.6442
2171.0031
2160.0998
2152.1033
2141.8937
2134.4848
2124.9165
2118.044
2109.0697
2102.6876
2094.3745
2088.5331
2080.5711
2074.8895
2067.0707
2061.5432
2053.864
2048.4849
2040.942
2035.7055
2028.2962
2023.1964
2015.9186
2010.9494
2003.8019
1998.957
1991.9407
1987.2141
1980.3344
1975.7249
1969.0075
1964.5723
1958.1535
1956.3081
8259.6381
7576.422
7010.336
6535.1273
6129.3778
5780.6356
5476.052
5209.8106
4973.051
4763.5646
4574.4432
4405.6525
4251.2472
4112.622
3984.2836
3868.6346
3760.3587
3662.6103
3570.1003
3486.5673
3406.6689
3334.6103
3264.9565
3202.2912
3141.0714
3086.1907
3031.9971
2983.6371
2935.3587
2892.513
2849.2617
2811.1181
2772.1755
2738.0718
2702.8508
2672.2412
2640.2572
2612.6877
2583.5375
2558.6276
2531.9728
2509.4008
2484.9555
2464.4478
2441.9685
2423.2909
2402.5691
2385.5199
2366.3762
2350.7808
2333.0595
2318.766
2302.3316
2289.2073
2273.9413
2261.8698
2247.6679
2236.5466
2223.3166
2213.055
2200.7152
2191.233
2179.7107
2170.9365
2160.1664
2152.0366
2141.9604
2134.418
2124.9832
2117.9773
2109.1363
2102.6211
2094.439
2088.4674
2080.6382
2074.8212
2067.1405
2061.4722
2053.9366
2048.411
2041.0175
2035.6285
2028.3748
2023.1162
2016.0005
2010.8658
2003.8873
1998.87
1992.0294
1987.1238
1980.4263
1975.6315
1969.102
1964.4756
1958.2457
1956.0799
8259.6448
7576.4129
7010.3456
6535.1155
6129.3903
5780.621
5476.0677
5209.793
4973.0698
4763.5439
4574.4651
4405.6287
4251.2723
4112.5952
3984.3118
3868.6047
3760.3899
3662.5773
3570.1346
3486.5313
3406.7062
3334.5715
3264.9966
3202.2496
3141.1143
3086.1463
3032.0426
2983.5902
2935.4068
2892.4635
2849.3122
2811.0663
2772.2284
2738.0178
2702.9059
2672.185
2640.3143
2612.6295
2583.5966
2558.5676
2532.0336
2509.3391
2485.0179
2464.3846
2442.0323
2423.2263
2402.6342
2385.4542
2366.4424
2350.714
2333.1267
2318.6984
2302.3995
2289.1391
2274.0098
2261.8011
2247.7367
2236.4776
2223.3857
2212.9859
2200.7844
2191.1639
2179.7797
2170.8676
2160.2351
2151.9681
2142.0286
2134.3501
2125.0508
2117.9101
2109.203
2102.5547
2094.5032
2088.4024
2080.7041
2074.7544
2067.2082
2061.4036
2054.0061
2048.3406
2041.0888
2035.5565
2028.4477
2023.0427
2016.0747
2010.7911
2003.9624
1998.7947
1992.1048
1987.0487
1980.5007
1975.5583
1969.1729
1964.4072
1958.3024
1955.9059
8259.652
7576.4029
7010.3559
6535.1027
6129.4039
5780.605
5476.0847
5209.7737
4973.0902
4763.5213
4574.4891
4405.6026
4251.2997
4112.5657
3984.3427
3868.5718
3760.4243
3662.5411
3570.1723
3486.4918
3406.7471
3334.5287
3265.0407
3202.2038
3141.1614
3086.0976
3032.0926
2983.5387
2935.4596
2892.4094
2849.3675
2811.0097
2772.2861
2737.9588
2702.9658
2672.124
2640.3762
2612.5666
2583.6603
2558.5029
2532.099
2509.273
2485.0846
2464.3171
2442.1002
2423.1578
2402.7032
2385.3848
2366.5121
2350.644
2333.1969
2318.6279
2302.4701
2289.0683
2274.0805
2261.7303
2247.8073
2236.407
2223.456
2212.9158
2200.8541
2191.0944
2179.8487
2170.7989
2160.3033
2151.9004
2142.0957
2134.2836
2125.1166
2117.8449
2109.2675
2102.491
2094.5644
2088.3406
2080.7664
2074.6917
2067.2714
2061.34
2054.0701
2048.2763
2041.1533
2035.4918
2028.5124
2022.978
2016.1393
2010.7269
2004.0262
1998.7317
1992.1669
1986.9879
1980.5601
1975.5008
1969.2276
1964.3546
1958.3458
1955.7425
8259.6597
7576.3923
7010.3671
6535.0889
6129.4186
5780.5879
5476.103
5209.753
4973.1123
4763.4969
4574.5149
4405.5745
4251.3293
4112.5339
3984.3761
3868.5363
3760.4613
3662.502
3570.213
3486.4492
3406.7913
3334.4827
3265.0881
3202.1545
3141.2121
3086.0453
3032.1463
2983.4834
2935.516
2892.3515
2849.4265
2810.9493
2772.3475
2737.8963
2703.0293
2672.0594
2640.4416
2612.5003
2583.7273
2558.4351
2532.1674
2509.2039
2485.1541
2464.2471
2442.1706
2423.087
2402.7742
2385.3135
2366.5835
2350.5725
2333.2683
2318.5564
2302.5414
2288.9972
2274.1514
2261.6597
2247.8776
2236.3371
2223.5254
2212.8468
2200.9225
2191.0266
2179.9158
2170.7324
2160.3689
2151.8354
2142.1598
2134.2203
2125.1789
2117.7835
2109.3279
2102.4316
2094.6212
2088.2836
2080.8236
2074.6343
2067.3289
2061.2826
2054.1275
2048.219
2041.2105
2035.4349
2028.569
2022.9219
2016.1949
2010.672
2004.0804
1998.6784
1992.2192
1986.9367
1980.61
1975.4521
1969.2746
1964.3079
1958.3863
1955.5829
8259.6679
7576.381
7010.3789
6535.0743
6129.4342
5780.5697
5476.1224
5209.731
4973.1357
4763.471
4574.5424
4405.5447
4251.3608
4112.5001
3984.4115
3868.4986
3760.5007
3662.4605
3570.2561
3486.404
3406.838
3334.4341
3265.1383
3202.1026
3141.2655
3085.9902
3032.2027
2983.4255
2935.5752
2892.2909
2849.4882
2810.8864
2772.4114
2737.8312
2703.0951
2671.9925
2640.5091
2612.432
2583.7962
2558.3656
2532.2373
2509.1334
2485.2249
2464.176
2442.2418
2423.0156
2402.8456
2385.2421
2366.6548
2350.5013
2333.3393
2318.4857
2302.6117
2288.9272
2274.2208
2261.5907
2247.9459
2236.2694
2223.5924
2212.7805
2200.988
2190.9619
2179.9796
2170.6695
2160.4309
2151.7744
2142.2197
2134.1614
2125.2367
2117.7267
2109.3835
2102.3771
2094.6731
2088.2317
2080.8754
2074.5826
2067.3804
2061.2311
2054.1787
2048.1681
2041.261
2035.3848
2028.6188
2022.8726
2016.2436
2010.6238
2004.1279
1998.6315
1992.2655
1986.8911
1980.6551
1975.4076
1969.3184
1964.2636
1958.425
1955.4308
8259.6765
7576.3692
7010.3912
6535.059
6129.4505
5780.5506
5476.1428
5209.708
4973.1603
4763.4439
4574.5711
4405.5134
4251.3937
4112.4648
3984.4486
3868.4592
3760.5417
3662.4173
3570.301
3486.357
3406.8865
3334.3836
3265.1903
3202.0487
3141.3207
3085.9333
3032.2608
2983.3658
2935.636
2892.2287
2849.5514
2810.822
2772.4766
2737.765
2703.162
2671.9248
2640.5774
2612.363
2583.8656
2558.2957
2532.3074
2509.063
2485.2953
2464.1053
2442.3124
2422.945
2402.9159
2385.1718
2366.7246
2350.4317
2333.4083
2318.4171
2302.6797
2288.8597
2274.2875
2261.5246
2248.0111
2236.2049
2223.6559
2212.7178
2201.0497
2190.9011
2180.0393
2170.6108
2160.4885
2151.7179
2142.2751