/*--------------------------------*- C++ -*----------------------------------*\
| =========                 |                                                 |
| \\      /  F ield         | OpenFOAM: The Open Source CFD Toolbox           |
|  \\    /   O peration     | Version:  5.x                                   |
|   \\  /    A nd           | Web:      www.OpenFOAM.org                      |
|    \\/     M anipulation  |                                                 |
\*---------------------------------------------------------------------------*/
FoamFile
{
    version     2.0;
    format      ascii;
    class       volScalarField;
    location    "5000";
    object      p;
}
// * * * * * * * * * * * * * * * * * * * * * * * * * * * * * * * * * * * * * //

dimensions      [0 2 -2 0 0 0 0];

internalField   nonuniform List<scalar> 
209825
(
19.683192
19.687513
19.698208
19.714336
19.734995
19.759837
19.788716
19.821459
19.857861
19.897734
19.94092
19.987283
20.0367
20.08906
20.144263
20.20222
20.262851
20.326086
20.391863
20.460126
20.530826
20.60392
20.679372
20.75715
20.837228
20.919584
21.0042
21.091066
21.180171
21.271511
21.365087
21.460901
21.55896
21.659277
21.761865
21.866743
21.973934
22.083464
22.195365
22.309669
22.426417
22.545652
22.667421
22.791776
22.918777
23.048484
23.180967
23.3163
23.454563
23.595844
23.740237
23.887844
24.038775
24.19315
24.351097
24.512756
24.678277
24.847823
25.02157
25.199709
25.382448
25.570011
25.762643
25.960611
26.164204
26.373739
26.589564
26.812059
27.041643
27.278771
27.523961
27.777745
28.037409
28.305809
28.590569
28.893772
29.217831
29.56544
29.939788
30.344753
30.785085
31.266653
31.796798
32.384878
33.042978
33.787216
34.639043
35.629695
36.800173
38.226087
39.983164
42.353576
45.353344
50.915247
57.159942
90.116604
19.683192
19.687513
19.698208
19.714336
19.734995
19.759837
19.788716
19.821459
19.857861
19.897734
19.94092
19.987283
20.0367
20.08906
20.144263
20.20222
20.262851
20.326086
20.391863
20.460126
20.530826
20.60392
20.679372
20.75715
20.837228
20.919583
21.0042
21.091066
21.180171
21.271511
21.365087
21.460901
21.55896
21.659277
21.761865
21.866743
21.973934
22.083464
22.195364
22.309669
22.426417
22.545652
22.667421
22.791776
22.918776
23.048484
23.180966
23.316299
23.454562
23.595843
23.740236
23.887843
24.038775
24.19315
24.351097
24.512756
24.678277
24.847822
25.021569
25.199708
25.382447
25.57001
25.762642
25.960609
26.164202
26.373738
26.589563
26.812057
27.04164
27.278768
27.523959
27.777742
28.037405
28.305805
28.590564
28.893767
29.217826
29.565434
29.93978
30.344744
30.785075
31.266641
31.796784
32.38486
33.042957
33.787189
34.639008
35.629648
36.800109
38.225989
39.983026
42.353289
45.352954
50.912711
57.138744
89.473739
19.683192
19.687513
19.698208
19.714336
19.734995
19.759837
19.788716
19.821459
19.857861
19.897734
19.94092
19.987283
20.0367
20.08906
20.144263
20.20222
20.262851
20.326086
20.391863
20.460126
20.530826
20.60392
20.679372
20.75715
20.837227
20.919583
21.0042
21.091066
21.180171
21.271511
21.365087
21.460901
21.55896
21.659276
21.761864
21.866742
21.973933
22.083464
22.195364
22.309669
22.426417
22.545651
22.66742
22.791776
22.918776
23.048483
23.180966
23.316299
23.454562
23.595842
23.740235
23.887842
24.038774
24.193148
24.351096
24.512754
24.678275
24.847821
25.021568
25.199707
25.382445
25.570008
25.76264
25.960607
26.164199
26.373734
26.589559
26.812053
27.041636
27.278763
27.523953
27.777736
28.037399
28.305798
28.590556
28.893758
29.217815
29.565422
29.939766
30.344728
30.785056
31.266618
31.796756
32.384827
33.042916
33.787137
34.638941
35.629559
36.799987
38.225808
39.98276
42.352781
45.352168
50.908605
57.115964
88.697105
19.683192
19.687513
19.698208
19.714336
19.734995
19.759837
19.788716
19.821459
19.857861
19.897734
19.94092
19.987283
20.0367
20.08906
20.144263
20.202219
20.262851
20.326086
20.391863
20.460126
20.530825
20.60392
20.679372
20.75715
20.837227
20.919583
21.0042
21.091065
21.18017
21.271511
21.365086
21.4609
21.55896
21.659276
21.761864
21.866742
21.973933
22.083463
22.195364
22.309668
22.426416
22.545651
22.667419
22.791775
22.918775
23.048482
23.180965
23.316297
23.454561
23.595841
23.740234
23.887841
24.038772
24.193147
24.351094
24.512752
24.678273
24.847818
25.021565
25.199704
25.382442
25.570005
25.762636
25.960603
26.164195
26.37373
26.589554
26.812047
27.041629
27.278756
27.523945
27.777727
28.037388
28.305787
28.590543
28.893743
29.217799
29.565403
29.939745
30.344703
30.785027
31.266583
31.796714
32.384776
33.042852
33.787057
34.638837
35.629421
36.799797
38.225528
39.982347
42.352001
45.350981
50.902755
57.095637
87.9284
19.683192
19.687513
19.698208
19.714336
19.734995
19.759837
19.788716
19.821458
19.857861
19.897734
19.94092
19.987283
20.0367
20.08906
20.144263
20.202219
20.262851
20.326086
20.391863
20.460125
20.530825
20.603919
20.679371
20.757149
20.837227
20.919583
21.0042
21.091065
21.18017
21.271511
21.365086
21.4609
21.558959
21.659276
21.761863
21.866741
21.973932
22.083463
22.195363
22.309667
22.426415
22.54565
22.667418
22.791774
22.918774
23.048481
23.180964
23.316296
23.454559
23.59584
23.740232
23.887839
24.03877
24.193145
24.351091
24.51275
24.67827
24.847815
25.021562
25.1997
25.382438
25.57
25.762631
25.960597
26.164189
26.373723
26.589546
26.812039
27.04162
27.278746
27.523934
27.777714
28.037374
28.305771
28.590526
28.893723
29.217776
29.565377
29.939715
30.344668
30.784986
31.266535
31.796657
32.384706
33.042765
33.786947
34.638695
35.629231
36.799537
38.225143
39.981782
42.350932
45.349379
50.895133
57.075717
87.172587
19.683192
19.687513
19.698208
19.714335
19.734995
19.759837
19.788715
19.821458
19.857861
19.897733
19.94092
19.987283
20.0367
20.08906
20.144262
20.202219
20.26285
20.326086
20.391863
20.460125
20.530825
20.603919
20.679371
20.757149
20.837227
20.919582
21.004199
21.091065
21.18017
21.27151
21.365085
21.460899
21.558959
21.659275
21.761863
21.866741
21.973932
22.083462
22.195362
22.309667
22.426414
22.545649
22.667417
22.791773
22.918772
23.048479
23.180962
23.316294
23.454557
23.595837
23.74023
23.887836
24.038767
24.193142
24.351088
24.512746
24.678266
24.847811
25.021557
25.199695
25.382432
25.569994
25.762625
25.96059
26.164181
26.373714
26.589537
26.812029
27.041609
27.278733
27.52392
27.777698
28.037356
28.305751
28.590503
28.893698
29.217747
29.565344
29.939677
30.344624
30.784934
31.266473
31.796583
32.384615
33.042654
33.786806
34.638513
35.628987
36.799203
38.22465
39.981056
42.349562
45.347335
50.885639
57.053498
86.420371
19.683191
19.687513
19.698208
19.714335
19.734995
19.759837
19.788715
19.821458
19.85786
19.897733
19.940919
19.987282
20.0367
20.089059
20.144262
20.202219
20.26285
20.326085
20.391862
20.460125
20.530825
20.603919
20.679371
20.757149
20.837226
20.919582
21.004199
21.091064
21.180169
21.271509
21.365085
21.460899
21.558958
21.659274
21.761862
21.86674
21.973931
22.083461
22.195361
22.309665
22.426413
22.545647
22.667416
22.791771
22.918771
23.048477
23.18096
23.316292
23.454555
23.595835
23.740227
23.887833
24.038764
24.193138
24.351084
24.512742
24.678262
24.847806
25.021551
25.199689
25.382426
25.569987
25.762617
25.960581
26.164171
26.373703
26.589525
26.812016
27.041594
27.278717
27.523902
27.777679
28.037334
28.305726
28.590476
28.893667
29.217712
29.565304
29.93963
30.344569
30.78487
31.266397
31.796491
32.384504
33.042516
33.786631
34.638288
35.628686
36.798791
38.224042
39.980161
42.347876
45.344819
50.874148
57.027778
85.669102
19.683191
19.687513
19.698207
19.714335
19.734995
19.759836
19.788715
19.821458
19.85786
19.897733
19.940919
19.987282
20.036699
20.089059
20.144262
20.202218
20.26285
20.326085
20.391862
20.460124
20.530824
20.603918
20.67937
20.757148
20.837226
20.919581
21.004198
21.091063
21.180168
21.271509
21.365084
21.460898
21.558957
21.659273
21.761861
21.866739
21.973929
22.08346
22.195359
22.309664
22.426411
22.545645
22.667414
22.791769
22.918768
23.048475
23.180957
23.316289
23.454552
23.595832
23.740224
23.88783
24.03876
24.193134
24.351079
24.512737
24.678256
24.8478
25.021545
25.199682
25.382418
25.569978
25.762607
25.960571
26.16416
26.373691
26.589511
26.812
27.041577
27.278698
27.52388
27.777655
28.037308
28.305697
28.590443
28.893629
29.217669
29.565255
29.939574
30.344504
30.784793
31.266306
31.796382
32.384371
33.042351
33.786423
34.638018
35.628326
36.798297
38.223314
39.97909
42.345858
45.341805
50.860571
56.99836
84.918178
19.683191
19.687512
19.698207
19.714335
19.734994
19.759836
19.788715
19.821458
19.85786
19.897733
19.940919
19.987282
20.036699
20.089059
20.144262
20.202218
20.262849
20.326085
20.391861
20.460124
20.530824
20.603918
20.67937
20.757147
20.837225
20.919581
21.004198
21.091063
21.180168
21.271508
21.365083
21.460897
21.558956
21.659272
21.76186
21.866737
21.973928
22.083458
22.195358
22.309662
22.42641
22.545643
22.667412
22.791767
22.918766
23.048472
23.180954
23.316286
23.454548
23.595828
23.74022
23.887825
24.038755
24.193128
24.351074
24.512731
24.678249
24.847793
25.021537
25.199673
25.382408
25.569968
25.762596
25.960558
26.164146
26.373676
26.589494
26.811982
27.041557
27.278675
27.523855
27.777627
28.037276
28.305662
28.590404
28.893585
29.217619
29.565197
29.939508
30.344427
30.784703
31.266199
31.796253
32.384214
33.042157
33.786178
34.637701
35.627903
36.797718
38.222459
39.977833
42.343493
45.338262
50.844852
56.965273
84.167412
19.683191
19.687512
19.698207
19.714335
19.734994
19.759836
19.788714
19.821457
19.85786
19.897732
19.940918
19.987282
20.036699
20.089058
20.144261
20.202218
20.262849
20.326084
20.391861
20.460124
20.530823
20.603917
20.679369
20.757147
20.837224
20.91958
21.004197
21.091062
21.180167
21.271507
21.365082
21.460896
21.558955
21.659271
21.761858
21.866736
21.973926
22.083456
22.195356
22.30966
22.426407
22.545641
22.667409
22.791764
22.918763
23.048469
23.180951
23.316283
23.454544
23.595824
23.740215
23.88782
24.03875
24.193123
24.351068
24.512724
24.678242
24.847784
25.021528
25.199663
25.382398
25.569956
25.762583
25.960544
26.16413
26.373658
26.589475
26.811961
27.041533
27.278649
27.523827
27.777595
28.03724
28.305622
28.590359
28.893534
29.217561
29.565131
29.939431
30.344338
30.784599
31.266075
31.796105
32.384033
33.041932
33.785894
34.637336
35.627414
36.797049
38.221472
39.976381
42.340764
45.334162
50.826949
56.928483
83.416933
19.68319
19.687512
19.698207
19.714334
19.734994
19.759836
19.788714
19.821457
19.857859
19.897732
19.940918
19.987281
20.036698
20.089058
20.144261
20.202217
20.262848
20.326084
20.39186
20.460123
20.530822
20.603917
20.679368
20.757146
20.837224
20.919579
21.004196
21.091061
21.180166
21.271506
21.365081
21.460894
21.558953
21.659269
21.761857
21.866734
21.973925
22.083454
22.195354
22.309658
22.426405
22.545639
22.667406
22.791761
22.91876
23.048466
23.180947
23.316278
23.45454
23.595819
23.74021
23.887815
24.038744
24.193116
24.35106
24.512716
24.678233
24.847775
25.021518
25.199652
25.382385
25.569942
25.762568
25.960528
26.164112
26.373639
26.589453
26.811937
27.041507
27.27862
27.523794
27.777558
28.037199
28.305576
28.590307
28.893476
29.217495
29.565055
29.939344
30.344237
30.78448
31.265934
31.795935
32.383827
33.041677
33.785571
34.636918
35.626857
36.796285
38.220346
39.974724
42.337654
45.329476
50.806819
56.887901
82.667026
19.68319
19.687512
19.698206
19.714334
19.734994
19.759835
19.788714
19.821457
19.857859
19.897732
19.940918
19.987281
20.036698
20.089058
20.14426
20.202217
20.262848
20.326083
20.39186
20.460122
20.530822
20.603916
20.679367
20.757145
20.837223
20.919578
21.004195
21.09106
21.180164
21.271504
21.365079
21.460893
21.558952
21.659268
21.761855
21.866732
21.973923
22.083452
22.195351
22.309655
22.426402
22.545636
22.667403
22.791757
22.918756
23.048462
23.180943
23.316274
23.454535
23.595813
23.740204
23.887808
24.038737
24.193108
24.351052
24.512707
24.678223
24.847764
25.021506
25.199639
25.382371
25.569927
25.762551
25.960509
26.164092
26.373616
26.589429
26.811909
27.041476
27.278586
27.523756
27.777517
28.037153
28.305524
28.590249
28.89341
29.21742
29.56497
29.939245
30.344122
30.784345
31.265775
31.795744
32.383593
33.041388
33.785206
34.636446
35.626227
36.795422
38.219074
39.972851
42.334146
45.324171
50.784417
56.84342
81.918
19.68319
19.687511
19.698206
19.714334
19.734993
19.759835
19.788713
19.821456
19.857858
19.897731
19.940917
19.98728
20.036697
20.089057
20.14426
20.202216
20.262847
20.326082
20.391859
20.460121
20.530821
20.603915
20.679366
20.757144
20.837222
20.919577
21.004194
21.091058
21.180163
21.271503
21.365078
21.460891
21.55895
21.659266
21.761853
21.86673
21.97392
22.08345
22.195349
22.309652
22.426399
22.545632
22.6674
22.791754
22.918752
23.048457
23.180938
23.316268
23.454529
23.595807
23.740197
23.887801
24.038729
24.1931
24.351043
24.512697
24.678212
24.847752
25.021493
25.199625
25.382356
25.56991
25.762532
25.960489
26.164069
26.373591
26.589401
26.811879
27.041442
27.278549
27.523714
27.77747
28.0371
28.305466
28.590184
28.893337
29.217336
29.564874
29.939135
30.343994
30.784194
31.265596
31.795529
32.383332
33.041064
33.784796
34.635917
35.625521
36.794456
38.21765
39.970754
42.330222
45.318217
50.759698
56.794928
81.170148
19.683189
19.687511
19.698205
19.714333
19.734993
19.759834
19.788713
19.821456
19.857858
19.897731
19.940917
19.98728
20.036697
20.089056
20.144259
20.202215
20.262846
20.326082
20.391858
20.460121
20.53082
20.603914
20.679365
20.757143
20.83722
20.919576
21.004192
21.091057
21.180161
21.271501
21.365076
21.460889
21.558948
21.659264
21.76185
21.866728
21.973918
22.083447
22.195346
22.309649
22.426396
22.545629
22.667396
22.791749
22.918747
23.048452
23.180933
23.316263
23.454523
23.5958
23.74019
23.887793
24.03872
24.19309
24.351032
24.512685
24.6782
24.847739
25.021478
25.199609
25.382338
25.569891
25.762511
25.960466
26.164044
26.373563
26.58937
26.811845
27.041405
27.278507
27.523668
27.777418
28.037042
28.305401
28.590111
28.893255
29.217243
29.564767
29.939012
30.343851
30.784027
31.265397
31.79529
32.38304
33.040703
33.784341
34.635329
35.624735
36.793379
38.216065
39.96842
42.325863
45.311579
50.732619
56.742318
80.423752
19.683189
19.68751
19.698205
19.714333
19.734992
19.759834
19.788712
19.821455
19.857857
19.89773
19.940916
19.987279
20.036696
20.089056
20.144258
20.202215
20.262846
20.326081
20.391857
20.46012
20.530819
20.603913
20.679364
20.757142
20.837219
20.919574
21.004191
21.091055
21.18016
21.2715
21.365074
21.460887
21.558946
21.659261
21.761848
21.866725
21.973915
22.083444
22.195343
22.309646
22.426392
22.545624
22.667391
22.791744
22.918742
23.048447
23.180927
23.316256
23.454516
23.595793
23.740182
23.887784
24.03871
24.19308
24.351021
24.512673
24.678187
24.847724
25.021462
25.199591
25.382319
25.56987
25.762488
25.96044
26.164016
26.373532
26.589336
26.811807
27.041363
27.278461
27.523616
27.777361
28.036978
28.30533
28.590031
28.893164
29.21714
29.564649
29.938876
30.343693
30.783841
31.265177
31.795025
32.382718
33.040304
33.783837
34.634678
35.623867
36.792189
38.214313
39.965839
42.321051
45.304224
50.703136
56.685483
79.679091
19.683188
19.68751
19.698204
19.714332
19.734992
19.759833
19.788712
19.821455
19.857857
19.897729
19.940915
19.987278
20.036695
20.089055
20.144257
20.202214
20.262845
20.32608
20.391856
20.460119
20.530818
20.603912
20.679363
20.757141
20.837218
20.919573
21.004189
21.091054
21.180158
21.271498
21.365072
21.460885
21.558944
21.659259
21.761845
21.866722
21.973912
22.08344
22.195339
22.309642
22.426388
22.54562
22.667386
22.791739
22.918736
23.048441
23.18092
23.316249
23.454508
23.595784
23.740173
23.887774
24.0387
24.193068
24.351008
24.512659
24.678172
24.847708
25.021444
25.199572
25.382298
25.569847
25.762463
25.960412
26.163985
26.373499
26.589299
26.811766
27.041317
27.27841
27.52356
27.777298
28.036908
28.305251
28.589943
28.893064
29.217026
29.564519
29.938726
30.343519
30.783637
31.264934
31.794734
32.382364
33.039865
33.783282
34.633961
35.62291
36.790879
38.212385
39.962998
42.315765
45.296115
50.671208
56.624322
78.93644
19.683188
19.68751
19.698204
19.714332
19.734991
19.759833
19.788711
19.821454
19.857856
19.897729
19.940915
19.987278
20.036694
20.089054
20.144257
20.202213
20.262844
20.326079
20.391855
20.460117
20.530817
20.60391
20.679362
20.757139
20.837216
20.919571
21.004187
21.091052
21.180156
21.271496
21.36507
21.460883
21.558941
21.659256
21.761842
21.866719
21.973908
22.083437
22.195335
22.309637
22.426383
22.545615
22.667381
22.791733
22.91873
23.048434
23.180913
23.316241
23.4545
23.595775
23.740163
23.887763
24.038688
24.193056
24.350995
24.512644
24.678155
24.84769
25.021425
25.199551
25.382275
25.569821
25.762435
25.960381
26.163951
26.373461
26.589258
26.81172
27.041267
27.278354
27.523498
27.777229
28.03683
28.305164
28.589846
28.892954
29.216902
29.564377
29.938562
30.343328
30.783413
31.264669
31.794415
32.381975
33.039384
33.782674
34.633176
35.621862
36.789444
38.210273
39.959886
42.309987
45.287217
50.636793
56.558739
78.19607
19.683187
19.687509
19.698203
19.714331
19.734991
19.759832
19.788711
19.821453
19.857855
19.897728
19.940914
19.987277
20.036694
20.089053
20.144256
20.202212
20.262843
20.326078
20.391854
20.460116
20.530815
20.603909
20.67936
20.757138
20.837214
20.919569
21.004185
21.09105
21.180154
21.271493
21.365067
21.46088
21.558938
21.659253
21.761839
21.866715
21.973904
22.083433
22.195331
22.309633
22.426378
22.54561
22.667375
22.791727
22.918723
23.048426
23.180905
23.316233
23.45449
23.595765
23.740152
23.887752
24.038675
24.193042
24.35098
24.512628
24.678137
24.847671
25.021404
25.199528
25.382249
25.569793
25.762404
25.960348
26.163915
26.373421
26.589213
26.811671
27.041212
27.278293
27.52343
27.777153
28.036746
28.30507
28.58974
28.892835
29.216766
29.564221
29.938383
30.343119
30.783168
31.264378
31.794067
32.381551
33.038858
33.78201
34.632319
35.620719
36.787878
38.20797
39.95649
42.303694
45.27749
50.599847
56.488646
77.458245
19.683186
19.687508
19.698202
19.71433
19.73499
19.759831
19.78871
19.821453
19.857854
19.897727
19.940913
19.987276
20.036693
20.089052
20.144255
20.202211
20.262842
20.326077
20.391853
20.460115
20.530814
20.603908
20.679359
20.757136
20.837213
20.919568
21.004183
21.091048
21.180151
21.271491
21.365065
21.460877
21.558935
21.659249
21.761835
21.866712
21.9739
22.083428
22.195326
22.309628
22.426373
22.545604
22.667369
22.79172
22.918716
23.048419
23.180896
23.316223
23.45448
23.595754
23.74014
23.887739
24.038661
24.193027
24.350963
24.51261
24.678118
24.84765
25.021381
25.199502
25.382222
25.569763
25.762371
25.960311
26.163874
26.373376
26.589164
26.811617
27.041152
27.278226
27.523356
27.777071
28.036654
28.304968
28.589625
28.892705
29.216618
29.564052
29.938188
30.342893
30.782902
31.264063
31.793688
32.381089
33.038287
33.781288
34.631387
35.619475
36.786174
38.205466
39.952797
42.296866
45.266895
50.560329
56.413961
76.723226
19.683186
19.687508
19.698202
19.714329
19.734989
19.759831
19.788709
19.821452
19.857854
19.897726
19.940912
19.987275
20.036692
20.089051
20.144253
20.20221
20.26284
20.326075
20.391851
20.460113
20.530812
20.603906
20.679357
20.757134
20.837211
20.919565
21.004181
21.091045
21.180149
21.271488
21.365062
21.460874
21.558932
21.659246
21.761832
21.866707
21.973896
22.083423
22.195321
22.309622
22.426367
22.545597
22.667362
22.791713
22.918708
23.04841
23.180887
23.316213
23.454469
23.595743
23.740127
23.887725
24.038646
24.19301
24.350945
24.512591
24.678097
24.847627
25.021356
25.199475
25.382192
25.56973
25.762335
25.960272
26.163831
26.373328
26.589111
26.811558
27.041087
27.278154
27.523276
27.776982
28.036554
28.304856
28.589501
28.892564
29.216457
29.563869
29.937976
30.342647
30.782614
31.263721
31.793277
32.380588
33.037667
33.780505
34.630376
35.618126
36.784327
38.202752
39.948794
42.289481
45.25539
50.5182
56.334606
75.991271
19.683185
19.687507
19.698201
19.714329
19.734988
19.75983
19.788708
19.821451
19.857853
19.897725
19.940911
19.987274
20.036691
20.08905
20.144252
20.202208
20.262839
20.326074
20.39185
20.460112
20.530811
20.603904
20.679355
20.757132
20.837208
20.919563
21.004179
21.091043
21.180146
21.271485
21.365059
21.460871
21.558928
21.659242
21.761827
21.866703
21.973891
22.083418
22.195315
22.309616
22.42636
22.54559
22.667354
22.791705
22.918699
23.048401
23.180877
23.316202
23.454458
23.59573
23.740113
23.88771
24.03863
24.192993
24.350926
24.51257
24.678074
24.847602
25.021329
25.199445
25.382159
25.569695
25.762296
25.960229
26.163784
26.373277
26.589054
26.811495
27.041017
27.278077
27.523189
27.776885
28.036446
28.304736
28.589366
28.892411
29.216284
29.56367
29.937748
30.342381
30.782301
31.26335
31.792832
32.380047
33.036997
33.779659
34.629282
35.616668
36.782329
38.19982
39.944466
42.281516
45.242935
50.473421
56.250504
75.262633
19.683184
19.687506
19.6982
19.714328
19.734987
19.759829
19.788707
19.82145
19.857852
19.897724
19.94091
19.987273
20.036689
20.089049
20.144251
20.202207
20.262838
20.326072
20.391848
20.46011
20.530809
20.603902
20.679353
20.75713
20.837206
20.919561
21.004176
21.09104
21.180143
21.271482
21.365055
21.460867
21.558924
21.659238
21.761823
21.866698
21.973886
22.083413
22.195309
22.30961
22.426353
22.545583
22.667346
22.791696
22.91869
23.04839
23.180866
23.316191
23.454445
23.595716
23.740098
23.887694
24.038613
24.192974
24.350905
24.512547
24.67805
24.847575
25.021299
25.199413
25.382124
25.569656
25.762254
25.960183
26.163733
26.373221
26.588992
26.811426
27.040941
27.277993
27.523096
27.776781
28.036329
28.304606
28.58922
28.892246
29.216097
29.563456
29.937501
30.342094
30.781965
31.262951
31.792353
32.379463
33.036274
33.778745
34.628103
35.615095
36.780175
38.196659
39.9398
42.272949
45.229485
50.425954
56.161586
74.537566
19.683183
19.687506
19.698199
19.714327
19.734986
19.759828
19.788706
19.821449
19.857851
19.897723
19.940909
19.987271
20.036688
20.089047
20.144249
20.202205
20.262836
20.326071
20.391847
20.460108
20.530807
20.6039
20.679351
20.757127
20.837204
20.919558
21.004173
21.091037
21.18014
21.271478
21.365052
21.460863
21.55892
21.659233
21.761818
21.866693
21.97388
22.083407
22.195303
22.309603
22.426346
22.545575
22.667338
22.791687
22.91868
23.04838
23.180854
23.316178
23.454431
23.595701
23.740082
23.887676
24.038594
24.192953
24.350883
24.512523
24.678023
24.847546
25.021268
25.199379
25.382087
25.569615
25.762209
25.960133
26.163678
26.37316
26.588925
26.811353
27.04086
27.277902
27.522995
27.776669
28.036204
28.304466
28.589063
28.892069
29.215895
29.563226
29.937235
30.341785
30.781602
31.262521
31.791836
32.378834
33.035495
33.777762
34.626833
35.613402
36.777857
38.193259
39.934779
42.263756
45.214997
50.375761
56.067784
73.816316
19.683182
19.687505
19.698198
19.714326
19.734985
19.759827
19.788705
19.821448
19.857849
19.897722
19.940908
19.98727
20.036687
20.089046
20.144248
20.202204
20.262834
20.326069
20.391845
20.460106
20.530805
20.603898
20.679348
20.757125
20.837201
20.919555
21.00417
21.091033
21.180136
21.271475
21.365048
21.460859
21.558915
21.659228
21.761813
21.866687
21.973874
22.0834
22.195296
22.309595
22.426338
22.545566
22.667328
22.791677
22.918669
23.048368
23.180842
23.316164
23.454417
23.595685
23.740065
23.887658
24.038573
24.192931
24.350859
24.512497
24.677995
24.847515
25.021234
25.199342
25.382046
25.569571
25.76216
25.96008
26.163619
26.373095
26.588854
26.811274
27.040772
27.277805
27.522887
27.776549
28.036069
28.304316
28.588895
28.891879
29.215678
29.562978
29.936949
30.341453
30.781213
31.262059
31.791282
32.378158
33.034659
33.776706
34.62547
35.611585
36.775368
38.18961
39.929389
42.253912
45.199426
50.322809
55.969038
73.099125
19.683181
19.687504
19.698197
19.714325
19.734984
19.759826
19.788704
19.821446
19.857848
19.897721
19.940906
19.987269
20.036685
20.089044
20.144246
20.202202
20.262833
20.326067
20.391843
20.460104
20.530803
20.603895
20.679346
20.757122
20.837198
20.919552
21.004167
21.09103
21.180133
21.271471
21.365043
21.460854
21.55891
21.659223
21.761807
21.866681
21.973868
22.083393
22.195288
22.309587
22.426329
22.545557
22.667318
22.791666
22.918658
23.048355
23.180828
23.31615
23.454401
23.595668
23.740047
23.887638
24.038552
24.192907
24.350833
24.512469
24.677964
24.847482
25.021198
25.199302
25.382003
25.569523
25.762108
25.960022
26.163556
26.373026
26.588777
26.811189
27.040678
27.277701
27.522771
27.77642
28.035925
28.304155
28.588714
28.891675
29.215446
29.562712
29.936643
30.341097
30.780795
31.261564
31.790687
32.377434
33.033762
33.775573
34.624008
35.609636
36.7727
38.185701
39.923613
42.243393
45.182726
50.267063
55.865292
72.386232
19.68318
19.687503
19.698195
19.714324
19.734983
19.759825
19.788703
19.821445
19.857847
19.897719
19.940905
19.987267
20.036684
20.089043
20.144245
20.2022
20.262831
20.326065
20.39184
20.460102
20.5308
20.603893
20.679343
20.757119
20.837195
20.919549
21.004163
21.091026
21.180129
21.271466
21.365039
21.460849
21.558905
21.659218
21.761801
21.866675
21.973861
22.083386
22.19528
22.309579
22.42632
22.545547
22.667308
22.791655
22.918645
23.048342
23.180814
23.316134
23.454384
23.59565
23.740027
23.887616
24.038528
24.192882
24.350806
24.512439
24.677932
24.847446
25.021159
25.19926
25.381956
25.569472
25.762052
25.959961
26.163489
26.372952
26.588695
26.811098
27.040578
27.277589
27.522647
27.776282
28.03577
28.303982
28.588521
28.891456
29.215198
29.562428
29.936315
30.340716
30.780348
31.261033
31.79005
32.376659
33.032802
33.774362
34.622444
35.607551
36.769846
38.181521
39.917436
42.232173
45.164851
50.208489
55.756496
71.677867
19.683178
19.687502
19.698194
19.714322
19.734982
19.759823
19.788701
19.821444
19.857846
19.897718
19.940903
19.987266
20.036682
20.089041
20.144243
20.202198
20.262829
20.326063
20.391838
20.460099
20.530798
20.60389
20.67934
20.757116
20.837192
20.919545
21.00416
21.091022
21.180124
21.271462
21.365034
21.460844
21.5589
21.659212
21.761795
21.866668
21.973854
22.083378
22.195272
22.30957
22.42631
22.545537
22.667296
22.791642
22.918632
23.048328
23.180798
23.316117
23.454366
23.59563
23.740006
23.887593
24.038503
24.192855
24.350777
24.512407
24.677897
24.847408
25.021117
25.199214
25.381907
25.569418
25.761992
25.959896
26.163417
26.372872
26.588607
26.811001
27.04047
27.27747
27.522515
27.776134
28.035605
28.303798
28.588314
28.891222
29.214932
29.562124
29.935965
30.340309
30.77987
31.260467
31.78937
32.37583
33.031777
33.773067
34.620773
35.605324
36.766797
38.17706
39.910839
42.220226
45.145752
50.147057
55.642605
70.974256
19.683177
19.687501
19.698193
19.714321
19.734981
19.759822
19.7887
19.821442
19.857844
19.897716
19.940902
19.987264
20.03668
20.089039
20.144241
20.202196
20.262826
20.32606
20.391836
20.460097
20.530795
20.603887
20.679337
20.757113
20.837188
20.919542
21.004156
21.091018
21.18012
21.271457
21.365029
21.460839
21.558894
21.659205
21.761788
21.866661
21.973846
22.08337
22.195263
22.30956
22.4263
22.545525
22.667284
22.791629
22.918618
23.048313
23.180782
23.3161
23.454346
23.59561
23.739983
23.887569
24.038477
24.192826
24.350745
24.512373
24.67786
24.847368
25.021073
25.199166
25.381854
25.56936
25.761929
25.959826
26.16334
26.372787
26.588514
26.810898
27.040356
27.277343
27.522373
27.775976
28.035428
28.303601
28.588093
28.890973
29.214648
29.561799
29.935591
30.339874
30.77936
31.259862
31.788644
32.374946
33.030683
33.771685
34.618989
35.602949
36.763545
38.172304
39.903805
42.207526
45.125382
50.082737
55.523582
70.275619
19.683176
19.687499
19.698191
19.71432
19.734979
19.75982
19.788698
19.821441
19.857842
19.897715
19.9409
19.987262
20.036678
20.089037
20.144239
20.202194
20.262824
20.326058
20.391833
20.460094
20.530792
20.603884
20.679334
20.757109
20.837184
20.919538
21.004151
21.091013
21.180115
21.271452
21.365023
21.460833
21.558887
21.659198
21.761781
21.866653
21.973837
22.083361
22.195253
22.30955
22.426288
22.545513
22.667271
22.791615
22.918603
23.048296
23.180764
23.316081
23.454326
23.595587
23.739959
23.887543
24.038448
24.192795
24.350712
24.512336
24.67782
24.847324
25.021026
25.199114
25.381797
25.569298
25.761861
25.959751
26.163258
26.372697
26.588414
26.810787
27.040233
27.277207
27.522222
27.775808
28.03524
28.303391
28.587858
28.890707
29.214346
29.561454
29.935193
30.339411
30.778817
31.259217
31.78787
32.374004
33.029516
33.770213
34.617089
35.600418
36.760081
38.167241
39.896316
42.194045
45.103692
50.015501
55.399393
69.582167
19.683174
19.687498
19.69819
19.714318
19.734978
19.759819
19.788697
19.821439
19.857841
19.897713
19.940898
19.98726
20.036676
20.089035
20.144236
20.202192
20.262822
20.326055
20.39183
20.460091
20.530789
20.603881
20.67933
20.757106
20.83718
20.919533
21.004147
21.091009
21.18011
21.271446
21.365017
21.460826
21.558881
21.659191
21.761773
21.866644
21.973828
22.083351
22.195243
22.309538
22.426277
22.5455
22.667257
22.7916
22.918587
23.048279
23.180745
23.31606
23.454304
23.595564
23.739933
23.887515
24.038418
24.192762
24.350676
24.512298
24.677778
24.847278
25.020975
25.199059
25.381737
25.569232
25.761788
25.959671
26.16317
26.372601
26.588308
26.81067
27.040103
27.277063
27.522062
27.77563
28.03504
28.303168
28.587607
28.890424
29.214024
29.561086
29.934769
30.338918
30.778238
31.258531
31.787046
32.373001
33.028275
33.768646
34.615068
35.597726
36.756396
38.16186
39.888353
42.179756
45.080632
49.94532
55.270015
68.894106
19.683173
19.687497
19.698188
19.714316
19.734976
19.759817
19.788695
19.821437
19.857839
19.897711
19.940896
19.987258
20.036674
20.089033
20.144234
20.202189
20.262819
20.326052
20.391827
20.460088
20.530785
20.603877
20.679326
20.757102
20.837176
20.919529
21.004142
21.091003
21.180104
21.27144
21.365011
21.46082
21.558873
21.659183
21.761765
21.866636
21.973819
22.083341
22.195232
22.309527
22.426264
22.545487
22.667243
22.791585
22.91857
23.048261
23.180726
23.316039
23.454281
23.595538
23.739906
23.887485
24.038386
24.192728
24.350638
24.512256
24.677733
24.847229
25.020922
25.199001
25.381673
25.569162
25.761712
25.959587
26.163077
26.372498
26.588195
26.810545
27.039965
27.276909