# vtk DataFile Version 2.0
outlet
ASCII
DATASET POLYDATA
POINTS 182 float
0.1 0.02 0 0.1 0.0207299 0 0.1 0.0207299 0.001 0.1 0.02
0.001 0.1 0.021488 0 0.1 0.021488 0.001 0.1 0.0222754 0
0.1 0.0222754 0.001 0.1 0.0230932 0 0.1 0.0230932 0.001 0.1
0.0239425 0 0.1 0.0239425 0.001 0.1 0.0248247 0 0.1 0.0248247
0.001 0.1 0.0257409 0 0.1 0.0257409 0.001 0.1 0.0266925 0
0.1 0.0266925 0.001 0.1 0.0276808 0 0.1 0.0276808 0.001 0.1
0.0287073 0 0.1 0.0287073 0.001 0.1 0.0297734 0 0.1 0.0297734
0.001 0.1 0.0308807 0 0.1 0.0308807 0.001 0.1 0.0320307 0
0.1 0.0320307 0.001 0.1 0.0332251 0 0.1 0.0332251 0.001 0.1
0.0344656 0 0.1 0.0344656 0.001 0.1 0.0357541 0 0.1 0.0357541
0.001 0.1 0.0370923 0 0.1 0.0370923 0.001 0.1 0.0384821 0
0.1 0.0384821 0.001 0.1 0.0399257 0 0.1 0.0399257 0.001 0.1
0.0414249 0 0.1 0.0414249 0.001 0.1 0.042982 0 0.1 0.042982
0.001 0.1 0.0445993 0 0.1 0.0445993 0.001 0.1 0.046279 0
0.1 0.046279 0.001 0.1 0.0480236 0 0.1 0.0480236 0.001 0.1
0.0498355 0 0.1 0.0498355 0.001 0.1 0.0517173 0 0.1 0.0517173
0.001 0.1 0.0536719 0 0.1 0.0536719 0.001 0.1 0.0557019 0
0.1 0.0557019 0.001 0.1 0.0578102 0 0.1 0.0578102 0.001 0.1
0.06 0 0.1 0.06 0.001 0.1 0 0 0.1 8.46956e-05
0 0.1 8.46956e-05 0.001 0.1 0 0.001 0.1 0.000172762 0
0.1 0.000172762 0.001 0.1 0.000264333 0 0.1 0.000264333 0.001 0.1
0.000359549 0 0.1 0.000359549 0.001 0.1 0.000458554 0 0.1 0.000458554
0.001 0.1 0.0005615 0 0.1 0.0005615 0.001 0.1 0.000668542 0
0.1 0.000668542 0.001 0.1 0.000779845 0 0.1 0.000779845 0.001 0.1
0.000895577 0 0.1 0.000895577 0.001 0.1 0.00101591 0 0.1 0.00101591
0.001 0.1 0.00114104 0 0.1 0.00114104 0.001 0.1 0.00127115 0
0.1 0.00127115 0.001 0.1 0.00140644 0 0.1 0.00140644 0.001 0.1
0.0015471 0 0.1 0.0015471 0.001 0.1 0.00169337 0 0.1 0.00169337
0.001 0.1 0.00184546 0 0.1 0.00184546 0.001 0.1 0.0020036 0
0.1 0.0020036 0.001 0.1 0.00216804 0 0.1 0.00216804 0.001 0.1
0.00233902 0 0.1 0.00233902 0.001 0.1 0.00251681 0 0.1 0.00251681
0.001 0.1 0.00270167 0 0.1 0.00270167 0.001 0.1 0.00289388 0
0.1 0.00289388 0.001 0.1 0.00309375 0 0.1 0.00309375 0.001 0.1
0.00330157 0 0.1 0.00330157 0.001 0.1 0.00351767 0 0.1 0.00351767
0.001 0.1 0.00374236 0 0.1 0.00374236 0.001 0.1 0.00397599 0
0.1 0.00397599 0.001 0.1 0.00421893 0 0.1 0.00421893 0.001 0.1
0.00447153 0 0.1 0.00447153 0.001 0.1 0.00473419 0 0.1 0.00473419
0.001 0.1 0.0050073 0 0.1 0.0050073 0.001 0.1 0.00529127 0
0.1 0.00529127 0.001 0.1 0.00558655 0 0.1 0.00558655 0.001 0.1
0.00589359 0 0.1 0.00589359 0.001 0.1 0.00621284 0 0.1 0.00621284
0.001 0.1 0.00654479 0 0.1 0.00654479 0.001 0.1 0.00688996 0
0.1 0.00688996 0.001 0.1 0.00724887 0 0.1 0.00724887 0.001 0.1
0.00762206 0 0.1 0.00762206 0.001 0.1 0.0080101 0 0.1 0.0080101
0.001 0.1 0.00841358 0 0.1 0.00841358 0.001 0.1 0.00883312 0
0.1 0.00883312 0.001 0.1 0.00926936 0 0.1 0.00926936 0.001 0.1
0.00972297 0 0.1 0.00972297 0.001 0.1 0.0101946 0 0.1 0.0101946
0.001 0.1 0.010685 0 0.1 0.010685 0.001 0.1 0.011195 0
0.1 0.011195 0.001 0.1 0.0117252 0 0.1 0.0117252 0.001 0.1
0.0122766 0 0.1 0.0122766 0.001 0.1 0.0128499 0 0.1 0.0128499
0.001 0.1 0.013446 0 0.1 0.013446 0.001 0.1 0.0140658 0
0.1 0.0140658 0.001 0.1 0.0147103 0 0.1 0.0147103 0.001 0.1
0.0153804 0 0.1 0.0153804 0.001 0.1 0.0160772 0 0.1 0.0160772
0.001 0.1 0.0168018 0 0.1 0.0168018 0.001 0.1 0.0175551 0
0.1 0.0175551 0.001 0.1 0.0183385 0 0.1 0.0183385 0.001 0.1
0.019153 0 0.1 0.019153 0.001 
POLYGONS 90 450
4 0 1 2 3 4 1 4 5 2 4
4 6 7 5 4 6 8 9 7 4
8 10 11 9 4 10 12 13 11 4
12 14 15 13 4 14 16 17 15 4
16 18 19 17 4 18 20 21 19 4
20 22 23 21 4 22 24 25 23 4
24 26 27 25 4 26 28 29 27 4
28 30 31 29 4 30 32 33 31 4
32 34 35 33 4 34 36 37 35 4
36 38 39 37 4 38 40 41 39 4
40 42 43 41 4 42 44 45 43 4
44 46 47 45 4 46 48 49 47 4
48 50 51 49 4 50 52 53 51 4
52 54 55 53 4 54 56 57 55 4
56 58 59 57 4 58 60 61 59 4
62 63 64 65 4 63 66 67 64 4
66 68 69 67 4 68 70 71 69 4
70 72 73 71 4 72 74 75 73 4
74 76 77 75 4 76 78 79 77 4
78 80 81 79 4 80 82 83 81 4
82 84 85 83 4 84 86 87 85 4
86 88 89 87 4 88 90 91 89 4
90 92 93 91 4 92 94 95 93 4
94 96 97 95 4 96 98 99 97 4
98 100 101 99 4 100 102 103 101 4
102 104 105 103 4 104 106 107 105 4
106 108 109 107 4 108 110 111 109 4
110 112 113 111 4 112 114 115 113 4
114 116 117 115 4 116 118 119 117 4
118 120 121 119 4 120 122 123 121 4
122 124 125 123 4 124 126 127 125 4
126 128 129 127 4 128 130 131 129 4
130 132 133 131 4 132 134 135 133 4
134 136 137 135 4 136 138 139 137 4
138 140 141 139 4 140 142 143 141 4
142 144 145 143 4 144 146 147 145 4
146 148 149 147 4 148 150 151 149 4
150 152 153 151 4 152 154 155 153 4
154 156 157 155 4 156 158 159 157 4
158 160 161 159 4 160 162 163 161 4
162 164 165 163 4 164 166 167 165 4
166 168 169 167 4 168 170 171 169 4
170 172 173 171 4 172 174 175 173 4
174 176 177 175 4 176 178 179 177 4
178 180 181 179 4 180 0 3 181 
CELL_DATA 90
FIELD attributes 3
patchID 1 90 float
2 2 2 2 2 2 2 2 2 2 2
2 2 2 2 2 2 2 2 2 2
2 2 2 2 2 2 2 2 2 2
2 2 2 2 2 2 2 2 2 2
2 2 2 2 2 2 2 2 2 2
2 2 2 2 2 2 2 2 2 2
2 2 2 2 2 2 2 2 2 2
2 2 2 2 2 2 2 2 2 2
2 2 2 2 2 2 2 2 2 
p 1 90 float
0 0 0 0 0 0 0 0 0 0 0
0 0 0 0 0 0 0 0 0 0
0 0 0 0 0 0 0 0 0 0
0 0 0 0 0 0 0 0 0 0
0 0 0 0 0 0 0 0 0 0
0 0 0 0 0 0 0 0 0 0
0 0 0 0 0 0 0 0 0 0
0 0 0 0 0 0 0 0 0 0
0 0 0 0 0 0 0 0 0 
U 3 90 float
1.01003 0.00199129 0 1.0097 0.00201223 0 1.0094 0.00194764 0 1.00912 0.00191965
0 1.00886 0.0018816 0 1.00862 0.00183946 0 1.0084 0.00179686 0
1.00819 0.0017523 0 1.008 0.00170606 0 1.00783 0.00165733 0 1.00767
0.00160644 0 1.00752 0.00155311 0 1.00738 0.00149733 0 1.00726 0.001439
0 1.00714 0.00137793 0 1.00703 0.00131396 0 1.00692 0.00124723 0
1.00683 0.0011773 0 1.00674 0.00110409 0 1.00666 0.00102786 0 1.00658
0.000947915 0 1.00651 0.000864488 0 1.00644 0.000777389 0 1.00639 0.000686511
0 1.00633 0.000591529 0 1.00629 0.000492603 0 1.00625 0.000389665 0
1.00622 0.000282069 0 1.0062 0.000169326 0 1.00609 5.58611e-05 0 0.0456519
5.12477e-06 0 0.138587 4.14499e-05 0 0.234734 0.000128385 0 0.333398 0.000262336
0 0.433305 0.000444264 0 0.532504 0.000673185 0 0.628357 0.000943088 0
0.717709 0.00124184 0 0.797291 0.00155123 0 0.864343 0.00184908 0 0.91727
0.00211349 0 0.95607 0.00232824 0 0.982293 0.00248658 0 0.998533 0.00259177
0 1.00771 0.00265411 0 1.01242 0.0026865 0 1.01461 0.00270053 0
1.01553 0.00270463 0 1.01586 0.0027039 0 1.01596 0.00270098 0 1.01596
0.00269704 0 1.01593 0.00269254 0 1.01588 0.00268761 0 1.01583 0.00268231
0 1.01577 0.00267662 0 1.01571 0.00267056 0 1.01565 0.0026641 0
1.01558 0.00265725 0 1.01552 0.00264998 0 1.01546 0.00264229 0 1.0154
0.00263417 0 1.01534 0.00262558 0 1.01529 0.00261653 0 1.01524 0.00260698
0 1.01519 0.00259692 0 1.01514 0.00258633 0 1.0151 0.00257516 0
1.01505 0.0025634 0 1.015 0.00255101 0 1.01495 0.00253794 0 1.01489
0.00252422 0 1.01482 0.00250965 0 1.01475 0.0024944 0 1.01467 0.00247838
0 1.01458 0.00246122 0 1.01447 0.00244326 0 1.01435 0.00242457 0
1.01422 0.00240524 0 1.01407 0.00238572 0 1.0139 0.00235133 0 1.0137
0.00236143 0 1.01348 0.00227548 0 1.01324 0.00233791 0 1.01295 0.00221139
0 1.01264 0.00226601 0 1.01229 0.002188 0 1.0119 0.00215719 0
1.01145 0.00217044 0 1.01092 0.0020461 0 1.01042 0.00211577 0 
POINT_DATA  182
FIELD attributes 2
p 1 182 float
0 0 0 0 0 0 0 0 0 0 0
0 0 0 0 0 0 0 0 0 0
0 0 0 0 0 0 0 0 0 0
0 0 0 0 0 0 0 0 0 0
0 0 0 0 0 0 0 0 0 0
0 0 0 0 0 0 0 0 0 0
0 0 0 0 0 0 0 0 0 0
0 0 0 0 0 0 0 0 0 0
0 0 0 0 0 0 0 0 0 0
0 0 0 0 0 0 0 0 0 0
0 0 0 0 0 0 0 0 0 0
0 0 0 0 0 0 0 0 0 0
0 0 0 0 0 0 0 0 0 0
0 0 0 0 0 0 0 0 0 0
0 0 0 0 0 0 0 0 0 0
0 0 0 0 0 0 0 0 0 0
0 0 0 0 0 0 0 0 0 0
0 0 0 0 0 0 0 0 0 0
0 
U 3 182 float
1.01022 0.00205176 0 1.00987 0.00200169 0 1.00987 0.00200169 0 1.01022 0.00205176
0 1.00955 0.00198016 0 1.00955 0.00198016 0 1.00926 0.00193375 0
1.00926 0.00193375 0 1.00899 0.00190077 0 1.00899 0.00190077 0 1.00874
0.0018607 0 1.00874 0.0018607 0 1.00851 0.00181834 0 1.00851 0.00181834
0 1.0083 0.00177478 0 1.0083 0.00177478 0 1.0081 0.00172939 0
1.0081 0.00172939 0 1.00792 0.00168193 0 1.00792 0.00168193 0 1.00775
0.00163214 0 1.00775 0.00163214 0 1.0076 0.00158005 0 1.0076 0.00158005
0 1.00745 0.00152552 0 1.00745 0.00152552 0 1.00732 0.00146848 0
1.00732 0.00146848 0 1.0072 0.00140881 0 1.0072 0.00140881 0 1.00709
0.00134632 0 1.00709 0.00134632 0 1.00698 0.00128099 0 1.00698 0.00128099
0 1.00688 0.0012127 0 1.00688 0.0012127 0 1.00679 0.00114116 0
1.00679 0.00114116 0 1.0067 0.00106647 0 1.0067 0.00106647 0 1.00662
0.000988418 0 1.00662 0.000988418 0 1.00655 0.000906767 0 1.00655 0.000906767
0 1.00648 0.000821541 0 1.00648 0.000821541 0 1.00642 0.000732592 0
1.00642 0.000732592 0 1.00636 0.000639703 0 1.00636 0.000639703 0 1.00631
0.00054279 0 1.00631 0.00054279 0 1.00627 0.0004419 0 1.00627 0.0004419
0 1.00624 0.000336681 0 1.00624 0.000336681 0 1.00621 0.000226563 0
1.00621 0.000226563 0 1.00615 0.000113477 0 1.00615 0.000113477 0 1.00609
5.58611e-05 0 1.00609 5.58611e-05 0 0.0456519 5.12477e-06 0 0.0921127 2.32847e-05
0 0.0921127 2.32847e-05 0 0.0456519 5.12477e-06 0 0.186653 8.49107e-05 0
0.186653 8.49107e-05 0 0.284058 0.000195349 0 0.284058 0.000195349 0 0.383342
0.000353283 0 0.383342 0.000353283 0 0.482895 0.000558702 0 0.482895 0.000558702
0 0.58042 0.000808108 0 0.58042 0.000808108 0 0.673023 0.00109243 0
0.673023 0.00109243 0 0.75749 0.0013965 0 0.75749 0.0013965 0 0.830808
0.00170012 0 0.830808 0.00170012 0 0.890799 0.00198125 0 0.890799 0.00198125
0 0.936664 0.00222083 0 0.936664 0.00222083 0 0.969177 0.00240738 0
0.969177 0.00240738 0 0.99041 0.00253916 0 0.99041 0.00253916 0 1.00312
0.00262293 0 1.00312 0.00262293 0 1.01006 0.0026703 0 1.01006 0.0026703
0 1.01351 0.00269351 0 1.01351 0.00269351 0 1.01507 0.00270258 0
1.01507 0.00270258 0 1.01569 0.00270427 0 1.01569 0.00270427 0 1.01591
0.00270244 0 1.01591 0.00270244 0 1.01596 0.00269901 0 1.01596 0.00269901
0 1.01594 0.00269479 0 1.01594 0.00269479 0 1.01591 0.00269008 0
1.01591 0.00269008 0 1.01586 0.00268496 0 1.01586 0.00268496 0 1.0158
0.00267947 0 1.0158 0.00267947 0 1.01574 0.00267359 0 1.01574 0.00267359
0 1.01568 0.00266733 0 1.01568 0.00266733 0 1.01561 0.00266068 0
1.01561 0.00266068 0 1.01555 0.00265362 0 1.01555 0.00265362 0 1.01549
0.00264614 0 1.01549 0.00264614 0 1.01543 0.00263824 0 1.01543 0.00263824
0 1.01537 0.00262988 0 1.01537 0.00262988 0 1.01532 0.00262106 0
1.01532 0.00262106 0 1.01526 0.00261176 0 1.01526 0.00261176 0 1.01522
0.00260196 0 1.01522 0.00260196 0 1.01517 0.00259163 0 1.01517 0.00259163
0 1.01512 0.00258076 0 1.01512 0.00258076 0 1.01508 0.00256929 0
1.01508 0.00256929 0 1.01503 0.00255722 0 1.01503 0.00255722 0 1.01498
0.00254449 0 1.01498 0.00254449 0 1.01492 0.0025311 0 1.01492 0.0025311
0 1.01486 0.00251696 0 1.01486 0.00251696 0 1.01479 0.00250205 0
1.01479 0.00250205 0 1.01471 0.00248642 0 1.01471 0.00248642 0 1.01463
0.00246983 0 1.01463 0.00246983 0 1.01453 0.00245227 0 1.01453 0.00245227
0 1.01441 0.00243395 0 1.01441 0.00243395 0 1.01429 0.00241495 0
1.01429 0.00241495 0 1.01415 0.00239552 0 1.01415 0.00239552 0 1.01399
0.00236861 0 1.01399 0.00236861 0 1.0138 0.00235635 0 1.0138 0.00235635
0 1.01359 0.00231868 0 1.01359 0.00231868 0 1.01336 0.00230652 0
1.01336 0.00230652 0 1.0131 0.00227502 0 1.0131 0.00227502 0 1.0128
0.00223853 0 1.0128 0.00223853 0 1.01247 0.00222726 0 1.01247 0.00222726
0 1.0121 0.0021727 0 1.0121 0.0021727 0 1.01168 0.00216377 0
1.01168 0.00216377 0 1.01119 0.00210874 0 1.01119 0.00210874 0 1.01067
0.00208066 0 1.01067 0.00208066 0 
