# vtk DataFile Version 2.0
outlet
ASCII
DATASET POLYDATA
POINTS 182 float
0.1 0.02 0 0.1 0.0207299 0 0.1 0.0207299 0.001 0.1 0.02
0.001 0.1 0.021488 0 0.1 0.021488 0.001 0.1 0.0222754 0
0.1 0.0222754 0.001 0.1 0.0230932 0 0.1 0.0230932 0.001 0.1
0.0239425 0 0.1 0.0239425 0.001 0.1 0.0248247 0 0.1 0.0248247
0.001 0.1 0.0257409 0 0.1 0.0257409 0.001 0.1 0.0266925 0
0.1 0.0266925 0.001 0.1 0.0276808 0 0.1 0.0276808 0.001 0.1
0.0287073 0 0.1 0.0287073 0.001 0.1 0.0297734 0 0.1 0.0297734
0.001 0.1 0.0308807 0 0.1 0.0308807 0.001 0.1 0.0320307 0
0.1 0.0320307 0.001 0.1 0.0332251 0 0.1 0.0332251 0.001 0.1
0.0344656 0 0.1 0.0344656 0.001 0.1 0.0357541 0 0.1 0.0357541
0.001 0.1 0.0370923 0 0.1 0.0370923 0.001 0.1 0.0384821 0
0.1 0.0384821 0.001 0.1 0.0399257 0 0.1 0.0399257 0.001 0.1
0.0414249 0 0.1 0.0414249 0.001 0.1 0.042982 0 0.1 0.042982
0.001 0.1 0.0445993 0 0.1 0.0445993 0.001 0.1 0.046279 0
0.1 0.046279 0.001 0.1 0.0480236 0 0.1 0.0480236 0.001 0.1
0.0498355 0 0.1 0.0498355 0.001 0.1 0.0517173 0 0.1 0.0517173
0.001 0.1 0.0536719 0 0.1 0.0536719 0.001 0.1 0.0557019 0
0.1 0.0557019 0.001 0.1 0.0578102 0 0.1 0.0578102 0.001 0.1
0.06 0 0.1 0.06 0.001 0.1 0 0 0.1 8.46956e-05
0 0.1 8.46956e-05 0.001 0.1 0 0.001 0.1 0.000172762 0
0.1 0.000172762 0.001 0.1 0.000264333 0 0.1 0.000264333 0.001 0.1
0.000359549 0 0.1 0.000359549 0.001 0.1 0.000458554 0 0.1 0.000458554
0.001 0.1 0.0005615 0 0.1 0.0005615 0.001 0.1 0.000668542 0
0.1 0.000668542 0.001 0.1 0.000779845 0 0.1 0.000779845 0.001 0.1
0.000895577 0 0.1 0.000895577 0.001 0.1 0.00101591 0 0.1 0.00101591
0.001 0.1 0.00114104 0 0.1 0.00114104 0.001 0.1 0.00127115 0
0.1 0.00127115 0.001 0.1 0.00140644 0 0.1 0.00140644 0.001 0.1
0.0015471 0 0.1 0.0015471 0.001 0.1 0.00169337 0 0.1 0.00169337
0.001 0.1 0.00184546 0 0.1 0.00184546 0.001 0.1 0.0020036 0
0.1 0.0020036 0.001 0.1 0.00216804 0 0.1 0.00216804 0.001 0.1
0.00233902 0 0.1 0.00233902 0.001 0.1 0.00251681 0 0.1 0.00251681
0.001 0.1 0.00270167 0 0.1 0.00270167 0.001 0.1 0.00289388 0
0.1 0.00289388 0.001 0.1 0.00309375 0 0.1 0.00309375 0.001 0.1
0.00330157 0 0.1 0.00330157 0.001 0.1 0.00351767 0 0.1 0.00351767
0.001 0.1 0.00374236 0 0.1 0.00374236 0.001 0.1 0.00397599 0
0.1 0.00397599 0.001 0.1 0.00421893 0 0.1 0.00421893 0.001 0.1
0.00447153 0 0.1 0.00447153 0.001 0.1 0.00473419 0 0.1 0.00473419
0.001 0.1 0.0050073 0 0.1 0.0050073 0.001 0.1 0.00529127 0
0.1 0.00529127 0.001 0.1 0.00558655 0 0.1 0.00558655 0.001 0.1
0.00589359 0 0.1 0.00589359 0.001 0.1 0.00621284 0 0.1 0.00621284
0.001 0.1 0.00654479 0 0.1 0.00654479 0.001 0.1 0.00688996 0
0.1 0.00688996 0.001 0.1 0.00724887 0 0.1 0.00724887 0.001 0.1
0.00762206 0 0.1 0.00762206 0.001 0.1 0.0080101 0 0.1 0.0080101
0.001 0.1 0.00841358 0 0.1 0.00841358 0.001 0.1 0.00883312 0
0.1 0.00883312 0.001 0.1 0.00926936 0 0.1 0.00926936 0.001 0.1
0.00972297 0 0.1 0.00972297 0.001 0.1 0.0101946 0 0.1 0.0101946
0.001 0.1 0.010685 0 0.1 0.010685 0.001 0.1 0.011195 0
0.1 0.011195 0.001 0.1 0.0117252 0 0.1 0.0117252 0.001 0.1
0.0122766 0 0.1 0.0122766 0.001 0.1 0.0128499 0 0.1 0.0128499
0.001 0.1 0.013446 0 0.1 0.013446 0.001 0.1 0.0140658 0
0.1 0.0140658 0.001 0.1 0.0147103 0 0.1 0.0147103 0.001 0.1
0.0153804 0 0.1 0.0153804 0.001 0.1 0.0160772 0 0.1 0.0160772
0.001 0.1 0.0168018 0 0.1 0.0168018 0.001 0.1 0.0175551 0
0.1 0.0175551 0.001 0.1 0.0183385 0 0.1 0.0183385 0.001 0.1
0.019153 0 0.1 0.019153 0.001 
POLYGONS 90 450
4 0 1 2 3 4 1 4 5 2 4
4 6 7 5 4 6 8 9 7 4
8 10 11 9 4 10 12 13 11 4
12 14 15 13 4 14 16 17 15 4
16 18 19 17 4 18 20 21 19 4
20 22 23 21 4 22 24 25 23 4
24 26 27 25 4 26 28 29 27 4
28 30 31 29 4 30 32 33 31 4
32 34 35 33 4 34 36 37 35 4
36 38 39 37 4 38 40 41 39 4
40 42 43 41 4 42 44 45 43 4
44 46 47 45 4 46 48 49 47 4
48 50 51 49 4 50 52 53 51 4
52 54 55 53 4 54 56 57 55 4
56 58 59 57 4 58 60 61 59 4
62 63 64 65 4 63 66 67 64 4
66 68 69 67 4 68 70 71 69 4
70 72 73 71 4 72 74 75 73 4
74 76 77 75 4 76 78 79 77 4
78 80 81 79 4 80 82 83 81 4
82 84 85 83 4 84 86 87 85 4
86 88 89 87 4 88 90 91 89 4
90 92 93 91 4 92 94 95 93 4
94 96 97 95 4 96 98 99 97 4
98 100 101 99 4 100 102 103 101 4
102 104 105 103 4 104 106 107 105 4
106 108 109 107 4 108 110 111 109 4
110 112 113 111 4 112 114 115 113 4
114 116 117 115 4 116 118 119 117 4
118 120 121 119 4 120 122 123 121 4
122 124 125 123 4 124 126 127 125 4
126 128 129 127 4 128 130 131 129 4
130 132 133 131 4 132 134 135 133 4
134 136 137 135 4 136 138 139 137 4
138 140 141 139 4 140 142 143 141 4
142 144 145 143 4 144 146 147 145 4
146 148 149 147 4 148 150 151 149 4
150 152 153 151 4 152 154 155 153 4
154 156 157 155 4 156 158 159 157 4
158 160 161 159 4 160 162 163 161 4
162 164 165 163 4 164 166 167 165 4
166 168 169 167 4 168 170 171 169 4
170 172 173 171 4 172 174 175 173 4
174 176 177 175 4 176 178 179 177 4
178 180 181 179 4 180 0 3 181 
CELL_DATA 90
FIELD attributes 3
patchID 1 90 float
2 2 2 2 2 2 2 2 2 2 2
2 2 2 2 2 2 2 2 2 2
2 2 2 2 2 2 2 2 2 2
2 2 2 2 2 2 2 2 2 2
2 2 2 2 2 2 2 2 2 2
2 2 2 2 2 2 2 2 2 2
2 2 2 2 2 2 2 2 2 2
2 2 2 2 2 2 2 2 2 2
2 2 2 2 2 2 2 2 2 
p 1 90 float
0 0 0 0 0 0 0 0 0 0 0
0 0 0 0 0 0 0 0 0 0
0 0 0 0 0 0 0 0 0 0
0 0 0 0 0 0 0 0 0 0
0 0 0 0 0 0 0 0 0 0
0 0 0 0 0 0 0 0 0 0
0 0 0 0 0 0 0 0 0 0
0 0 0 0 0 0 0 0 0 0
0 0 0 0 0 0 0 0 0 
U 3 90 float
1.01004 0.00198895 0 1.00971 0.00200744 0 1.00939 0.00194457 0 1.00911 0.00191555
0 1.00884 0.00187756 0 1.0086 0.00183566 0 1.00837 0.00179312 0
1.00817 0.00174851 0 1.00798 0.00170232 0 1.0078 0.0016536 0 1.00764
0.00160284 0 1.00749 0.00154963 0 1.00735 0.001494 0 1.00722 0.00143581
0 1.00711 0.00137492 0 1.007 0.00131109 0 1.00689 0.00124452 0
1.0068 0.00117479 0 1.00671 0.00110176 0 1.00662 0.0010257 0 1.00655
0.000945927 0 1.00648 0.000862648 0 1.00641 0.000775695 0 1.00636 0.000685017
0 1.0063 0.000590264 0 1.00626 0.000491563 0 1.00622 0.000388844 0
1.00619 0.000281476 0 1.00617 0.000168963 0 1.00606 5.57394e-05 0 0.0456333
5.12379e-06 0 0.138568 4.14364e-05 0 0.234719 0.000128339 0 0.333386 0.00026224
0 0.433294 0.000444105 0 0.532493 0.000672953 0 0.628345 0.000942777 0
0.717694 0.00124144 0 0.797274 0.00155076 0 0.864323 0.00184853 0 0.917246
0.00211287 0 0.956043 0.00232759 0 0.982263 0.00248597 0 0.998502 0.00259126
0 1.00768 0.00265375 0 1.01239 0.00268628 0 1.01458 0.00270041 0
1.01549 0.00270455 0 1.01582 0.00270381 0 1.01592 0.00270083 0 1.01592
0.0026968 0 1.01589 0.00269218 0 1.01585 0.00268712 0 1.01579 0.00268167
0 1.01574 0.00267583 0 1.01568 0.00266962 0 1.01562 0.002663 0
1.01555 0.00265599 0 1.01549 0.00264858 0 1.01543 0.00264074 0 1.01537
0.00263247 0 1.01531 0.00262375 0 1.01526 0.00261456 0 1.01521 0.00260489
0 1.01516 0.00259471 0 1.01511 0.002584 0 1.01507 0.00257273 0
1.01502 0.00256086 0 1.01497 0.00254838 0 1.01492 0.00253522 0 1.01486
0.00252142 0 1.0148 0.00250677 0 1.01472 0.00249145 0 1.01464 0.00247534
0 1.01455 0.00245812 0 1.01445 0.00244018 0 1.01433 0.00242136 0
1.0142 0.00240196 0 1.01405 0.00238227 0 1.01388 0.00234841 0 1.01369
0.00235739 0 1.01347 0.00227295 0 1.01323 0.00233349 0 1.01296 0.00220862
0 1.01265 0.00226209 0 1.01231 0.00218453 0 1.01193 0.0021538 0
1.0115 0.00216613 0 1.01097 0.00204391 0 1.01045 0.00211044 0 
POINT_DATA  182
FIELD attributes 2
p 1 182 float
0 0 0 0 0 0 0 0 0 0 0
0 0 0 0 0 0 0 0 0 0
0 0 0 0 0 0 0 0 0 0
0 0 0 0 0 0 0 0 0 0
0 0 0 0 0 0 0 0 0 0
0 0 0 0 0 0 0 0 0 0
0 0 0 0 0 0 0 0 0 0
0 0 0 0 0 0 0 0 0 0
0 0 0 0 0 0 0 0 0 0
0 0 0 0 0 0 0 0 0 0
0 0 0 0 0 0 0 0 0 0
0 0 0 0 0 0 0 0 0 0
0 0 0 0 0 0 0 0 0 0
0 0 0 0 0 0 0 0 0 0
0 0 0 0 0 0 0 0 0 0
0 0 0 0 0 0 0 0 0 0
0 0 0 0 0 0 0 0 0 0
0 0 0 0 0 0 0 0 0 0
0 
U 3 182 float
1.01024 0.00204797 0 1.00988 0.00199813 0 1.00988 0.00199813 0 1.01024 0.00204797
0 1.00955 0.00197623 0 1.00955 0.00197623 0 1.00925 0.00193017 0
1.00925 0.00193017 0 1.00898 0.0018967 0 1.00898 0.0018967 0 1.00872
0.00185678 0 1.00872 0.00185678 0 1.00849 0.00181457 0 1.00849 0.00181457
0 1.00827 0.00177101 0 1.00827 0.00177101 0 1.00808 0.00172563 0
1.00808 0.00172563 0 1.00789 0.00167819 0 1.00789 0.00167819 0 1.00772
0.00162847 0 1.00772 0.00162847 0 1.00757 0.00157651 0 1.00757 0.00157651
0 1.00742 0.00152211 0 1.00742 0.00152211 0 1.00729 0.00146522 0
1.00729 0.00146522 0 1.00717 0.00140571 0 1.00717 0.00140571 0 1.00706
0.00134338 0 1.00706 0.00134338 0 1.00695 0.0012782 0 1.00695 0.0012782
0 1.00685 0.00121008 0 1.00685 0.00121008 0 1.00676 0.00113874 0
1.00676 0.00113874 0 1.00667 0.00106422 0 1.00667 0.00106422 0 1.00659
0.000986342 0 1.00659 0.000986342 0 1.00652 0.000904852 0 1.00652 0.000904852
0 1.00645 0.000819773 0 1.00645 0.000819773 0 1.00639 0.000730996 0
1.00639 0.000730996 0 1.00633 0.000638322 0 1.00633 0.000638322 0 1.00628
0.000541636 0 1.00628 0.000541636 0 1.00624 0.000440968 0 1.00624 0.000440968
0 1.00621 0.000335972 0 1.00621 0.000335972 0 1.00618 0.000226083 0
1.00618 0.000226083 0 1.00612 0.000113233 0 1.00612 0.000113233 0 1.00606
5.57394e-05 0 1.00606 5.57394e-05 0 0.0456333 5.12379e-06 0 0.0920939 2.32775e-05
0 0.0920939 2.32775e-05 0 0.0456333 5.12379e-06 0 0.186636 8.48809e-05 0
0.186636 8.48809e-05 0 0.284044 0.000195278 0 0.284044 0.000195278 0 0.383331
0.000353156 0 0.383331 0.000353156 0 0.482884 0.000558506 0 0.482884 0.000558506
0 0.580409 0.000807836 0 0.580409 0.000807836 0 0.673009 0.00109207 0
0.673009 0.00109207 0 0.757474 0.00139606 0 0.757474 0.00139606 0 0.83079
0.00169961 0 0.83079 0.00169961 0 0.890777 0.00198066 0 0.890777 0.00198066
0 0.936638 0.0022202 0 0.936638 0.0022202 0 0.969149 0.00240675 0
0.969149 0.00240675 0 0.99038 0.0025386 0 0.99038 0.0025386 0 1.00309
0.00262249 0 1.00309 0.00262249 0 1.01003 0.00267001 0 1.01003 0.00267001
0 1.01348 0.00269334 0 1.01348 0.00269334 0 1.01503 0.00270248 0
1.01503 0.00270248 0 1.01565 0.00270418 0 1.01565 0.00270418 0 1.01587
0.00270232 0 1.01587 0.00270232 0 1.01592 0.00269882 0 1.01592 0.00269882
0 1.01591 0.00269449 0 1.01591 0.00269449 0 1.01587 0.00268965 0
1.01587 0.00268965 0 1.01582 0.0026844 0 1.01582 0.0026844 0 1.01577
0.00267875 0 1.01577 0.00267875 0 1.01571 0.00267273 0 1.01571 0.00267273
0 1.01565 0.00266631 0 1.01565 0.00266631 0 1.01559 0.0026595 0
1.01559 0.0026595 0 1.01552 0.00265229 0 1.01552 0.00265229 0 1.01546
0.00264466 0 1.01546 0.00264466 0 1.0154 0.00263661 0 1.0154 0.00263661
0 1.01534 0.00262812 0 1.01534 0.00262812 0 1.01529 0.00261916 0
1.01529 0.00261916 0 1.01524 0.00260973 0 1.01524 0.00260973 0 1.01518
0.00259981 0 1.01518 0.00259981 0 1.01514 0.00258937 0 1.01514 0.00258937
0 1.01509 0.00257838 0 1.01509 0.00257838 0 1.01505 0.00256681 0
1.01505 0.00256681 0 1.015 0.00255463 0 1.015 0.00255463 0 1.01495
0.00254182 0 1.01495 0.00254182 0 1.01489 0.00252834 0 1.01489 0.00252834
0 1.01483 0.00251412 0 1.01483 0.00251412 0 1.01476 0.00249913 0
1.01476 0.00249913 0 1.01468 0.00248342 0 1.01468 0.00248342 0 1.0146
0.00246676 0 1.0146 0.00246676 0 1.0145 0.00244918 0 1.0145 0.00244918
0 1.01439 0.00243081 0 1.01439 0.00243081 0 1.01427 0.0024117 0
1.01427 0.0024117 0 1.01413 0.00239216 0 1.01413 0.00239216 0 1.01397
0.00236542 0 1.01397 0.00236542 0 1.01379 0.00235288 0 1.01379 0.00235288
0 1.01358 0.00231539 0 1.01358 0.00231539 0 1.01335 0.00230305 0
1.01335 0.00230305 0 1.0131 0.00227142 0 1.0131 0.00227142 0 1.01281
0.00223519 0 1.01281 0.00223519 0 1.01248 0.00222356 0 1.01248 0.00222356
0 1.01212 0.00216927 0 1.01212 0.00216927 0 1.01172 0.00215992 0
1.01172 0.00215992 0 1.01124 0.00210548 0 1.01124 0.00210548 0 1.01071
0.00207691 0 1.01071 0.00207691 0 
