# vtk DataFile Version 2.0
outlet
ASCII
DATASET POLYDATA
POINTS 182 float
0.1 0.02 0 0.1 0.0207299 0 0.1 0.0207299 0.001 0.1 0.02
0.001 0.1 0.021488 0 0.1 0.021488 0.001 0.1 0.0222754 0
0.1 0.0222754 0.001 0.1 0.0230932 0 0.1 0.0230932 0.001 0.1
0.0239425 0 0.1 0.0239425 0.001 0.1 0.0248247 0 0.1 0.0248247
0.001 0.1 0.0257409 0 0.1 0.0257409 0.001 0.1 0.0266925 0
0.1 0.0266925 0.001 0.1 0.0276808 0 0.1 0.0276808 0.001 0.1
0.0287073 0 0.1 0.0287073 0.001 0.1 0.0297734 0 0.1 0.0297734
0.001 0.1 0.0308807 0 0.1 0.0308807 0.001 0.1 0.0320307 0
0.1 0.0320307 0.001 0.1 0.0332251 0 0.1 0.0332251 0.001 0.1
0.0344656 0 0.1 0.0344656 0.001 0.1 0.0357541 0 0.1 0.0357541
0.001 0.1 0.0370923 0 0.1 0.0370923 0.001 0.1 0.0384821 0
0.1 0.0384821 0.001 0.1 0.0399257 0 0.1 0.0399257 0.001 0.1
0.0414249 0 0.1 0.0414249 0.001 0.1 0.042982 0 0.1 0.042982
0.001 0.1 0.0445993 0 0.1 0.0445993 0.001 0.1 0.046279 0
0.1 0.046279 0.001 0.1 0.0480236 0 0.1 0.0480236 0.001 0.1
0.0498355 0 0.1 0.0498355 0.001 0.1 0.0517173 0 0.1 0.0517173
0.001 0.1 0.0536719 0 0.1 0.0536719 0.001 0.1 0.0557019 0
0.1 0.0557019 0.001 0.1 0.0578102 0 0.1 0.0578102 0.001 0.1
0.06 0 0.1 0.06 0.001 0.1 0 0 0.1 8.46956e-05
0 0.1 8.46956e-05 0.001 0.1 0 0.001 0.1 0.000172762 0
0.1 0.000172762 0.001 0.1 0.000264333 0 0.1 0.000264333 0.001 0.1
0.000359549 0 0.1 0.000359549 0.001 0.1 0.000458554 0 0.1 0.000458554
0.001 0.1 0.0005615 0 0.1 0.0005615 0.001 0.1 0.000668542 0
0.1 0.000668542 0.001 0.1 0.000779845 0 0.1 0.000779845 0.001 0.1
0.000895577 0 0.1 0.000895577 0.001 0.1 0.00101591 0 0.1 0.00101591
0.001 0.1 0.00114104 0 0.1 0.00114104 0.001 0.1 0.00127115 0
0.1 0.00127115 0.001 0.1 0.00140644 0 0.1 0.00140644 0.001 0.1
0.0015471 0 0.1 0.0015471 0.001 0.1 0.00169337 0 0.1 0.00169337
0.001 0.1 0.00184546 0 0.1 0.00184546 0.001 0.1 0.0020036 0
0.1 0.0020036 0.001 0.1 0.00216804 0 0.1 0.00216804 0.001 0.1
0.00233902 0 0.1 0.00233902 0.001 0.1 0.00251681 0 0.1 0.00251681
0.001 0.1 0.00270167 0 0.1 0.00270167 0.001 0.1 0.00289388 0
0.1 0.00289388 0.001 0.1 0.00309375 0 0.1 0.00309375 0.001 0.1
0.00330157 0 0.1 0.00330157 0.001 0.1 0.00351767 0 0.1 0.00351767
0.001 0.1 0.00374236 0 0.1 0.00374236 0.001 0.1 0.00397599 0
0.1 0.00397599 0.001 0.1 0.00421893 0 0.1 0.00421893 0.001 0.1
0.00447153 0 0.1 0.00447153 0.001 0.1 0.00473419 0 0.1 0.00473419
0.001 0.1 0.0050073 0 0.1 0.0050073 0.001 0.1 0.00529127 0
0.1 0.00529127 0.001 0.1 0.00558655 0 0.1 0.00558655 0.001 0.1
0.00589359 0 0.1 0.00589359 0.001 0.1 0.00621284 0 0.1 0.00621284
0.001 0.1 0.00654479 0 0.1 0.00654479 0.001 0.1 0.00688996 0
0.1 0.00688996 0.001 0.1 0.00724887 0 0.1 0.00724887 0.001 0.1
0.00762206 0 0.1 0.00762206 0.001 0.1 0.0080101 0 0.1 0.0080101
0.001 0.1 0.00841358 0 0.1 0.00841358 0.001 0.1 0.00883312 0
0.1 0.00883312 0.001 0.1 0.00926936 0 0.1 0.00926936 0.001 0.1
0.00972297 0 0.1 0.00972297 0.001 0.1 0.0101946 0 0.1 0.0101946
0.001 0.1 0.010685 0 0.1 0.010685 0.001 0.1 0.011195 0
0.1 0.011195 0.001 0.1 0.0117252 0 0.1 0.0117252 0.001 0.1
0.0122766 0 0.1 0.0122766 0.001 0.1 0.0128499 0 0.1 0.0128499
0.001 0.1 0.013446 0 0.1 0.013446 0.001 0.1 0.0140658 0
0.1 0.0140658 0.001 0.1 0.0147103 0 0.1 0.0147103 0.001 0.1
0.0153804 0 0.1 0.0153804 0.001 0.1 0.0160772 0 0.1 0.0160772
0.001 0.1 0.0168018 0 0.1 0.0168018 0.001 0.1 0.0175551 0
0.1 0.0175551 0.001 0.1 0.0183385 0 0.1 0.0183385 0.001 0.1
0.019153 0 0.1 0.019153 0.001 
POLYGONS 90 450
4 0 1 2 3 4 1 4 5 2 4
4 6 7 5 4 6 8 9 7 4
8 10 11 9 4 10 12 13 11 4
12 14 15 13 4 14 16 17 15 4
16 18 19 17 4 18 20 21 19 4
20 22 23 21 4 22 24 25 23 4
24 26 27 25 4 26 28 29 27 4
28 30 31 29 4 30 32 33 31 4
32 34 35 33 4 34 36 37 35 4
36 38 39 37 4 38 40 41 39 4
40 42 43 41 4 42 44 45 43 4
44 46 47 45 4 46 48 49 47 4
48 50 51 49 4 50 52 53 51 4
52 54 55 53 4 54 56 57 55 4
56 58 59 57 4 58 60 61 59 4
62 63 64 65 4 63 66 67 64 4
66 68 69 67 4 68 70 71 69 4
70 72 73 71 4 72 74 75 73 4
74 76 77 75 4 76 78 79 77 4
78 80 81 79 4 80 82 83 81 4
82 84 85 83 4 84 86 87 85 4
86 88 89 87 4 88 90 91 89 4
90 92 93 91 4 92 94 95 93 4
94 96 97 95 4 96 98 99 97 4
98 100 101 99 4 100 102 103 101 4
102 104 105 103 4 104 106 107 105 4
106 108 109 107 4 108 110 111 109 4
110 112 113 111 4 112 114 115 113 4
114 116 117 115 4 116 118 119 117 4
118 120 121 119 4 120 122 123 121 4
122 124 125 123 4 124 126 127 125 4
126 128 129 127 4 128 130 131 129 4
130 132 133 131 4 132 134 135 133 4
134 136 137 135 4 136 138 139 137 4
138 140 141 139 4 140 142 143 141 4
142 144 145 143 4 144 146 147 145 4
146 148 149 147 4 148 150 151 149 4
150 152 153 151 4 152 154 155 153 4
154 156 157 155 4 156 158 159 157 4
158 160 161 159 4 160 162 163 161 4
162 164 165 163 4 164 166 167 165 4
166 168 169 167 4 168 170 171 169 4
170 172 173 171 4 172 174 175 173 4
174 176 177 175 4 176 178 179 177 4
178 180 181 179 4 180 0 3 181 
CELL_DATA 90
FIELD attributes 3
patchID 1 90 float
2 2 2 2 2 2 2 2 2 2 2
2 2 2 2 2 2 2 2 2 2
2 2 2 2 2 2 2 2 2 2
2 2 2 2 2 2 2 2 2 2
2 2 2 2 2 2 2 2 2 2
2 2 2 2 2 2 2 2 2 2
2 2 2 2 2 2 2 2 2 2
2 2 2 2 2 2 2 2 2 2
2 2 2 2 2 2 2 2 2 
p 1 90 float
0 0 0 0 0 0 0 0 0 0 0
0 0 0 0 0 0 0 0 0 0
0 0 0 0 0 0 0 0 0 0
0 0 0 0 0 0 0 0 0 0
0 0 0 0 0 0 0 0 0 0
0 0 0 0 0 0 0 0 0 0
0 0 0 0 0 0 0 0 0 0
0 0 0 0 0 0 0 0 0 0
0 0 0 0 0 0 0 0 0 
U 3 90 float
1.01008 0.00198087 0 1.00976 0.00200246 0 1.00946 0.00193787 0 1.00918 0.00191069
0 1.00892 0.00187263 0 1.00868 0.00183121 0 1.00846 0.00178883 0
1.00826 0.0017448 0 1.00807 0.00169872 0 1.0079 0.00165069 0 1.00774
0.00159994 0 1.00759 0.00154706 0 1.00745 0.00149171 0 1.00733 0.00143361
0 1.00721 0.00137296 0 1.0071 0.00130931 0 1.00699 0.00124292 0
1.0069 0.00117328 0 1.00681 0.00110044 0 1.00673 0.0010245 0 1.00665
0.000944863 0 1.00658 0.000861751 0 1.00651 0.000774967 0 1.00645 0.000684391
0 1.0064 0.000589724 0 1.00636 0.000491114 0 1.00632 0.000388504 0
1.00629 0.00028122 0 1.00627 0.000168818 0 1.00616 5.5685e-05 0 0.0456492
5.12088e-06 0 0.138641 4.14364e-05 0 0.234803 0.00012836 0 0.333468 0.0002623
0 0.433375 0.000444219 0 0.532574 0.000673133 0 0.628428 0.000943034 0
0.71778 0.00124179 0 0.797364 0.00155117 0 0.864416 0.00184893 0 0.917341
0.00211311 0 0.956136 0.00232747 0 0.982353 0.00248542 0 0.99859 0.00259039
0 1.00777 0.00265276 0 1.01248 0.00268536 0 1.01467 0.00269963 0
1.0156 0.00270385 0 1.01593 0.00270303 0 1.01603 0.00269982 0 1.01604
0.00269543 0 1.01601 0.00269037 0 1.01596 0.00268485 0 1.01591 0.00267892
0 1.01585 0.00267263 0 1.01579 0.00266597 0 1.01573 0.00265894 0
1.01566 0.00265154 0 1.0156 0.00264377 0 1.01554 0.0026356 0 1.01548
0.00262702 0 1.01542 0.00261804 0 1.01537 0.0026086 0 1.01532 0.00259871
0 1.01527 0.00258833 0 1.01522 0.00257742 0 1.01517 0.00256599 0
1.01513 0.00255396 0 1.01508 0.00254131 0 1.01502 0.00252803 0 1.01496
0.00251406 0 1.0149 0.00249933 0 1.01483 0.00248384 0 1.01474 0.00246771
0 1.01465 0.0024504 0 1.01455 0.00243223 0 1.01443 0.00241359 0
1.01429 0.00239402 0 1.01414 0.00237461 0 1.01396 0.00234 0 1.01377
0.00235033 0 1.01354 0.00226417 0 1.0133 0.00232689 0 1.01301 0.0022002
0 1.0127 0.00225506 0 1.01234 0.00217697 0 1.01193 0.00214617 0
1.01147 0.00215953 0 1.01095 0.00203519 0 1.01047 0.00210532 0 
POINT_DATA  182
FIELD attributes 2
p 1 182 float
0 0 0 0 0 0 0 0 0 0 0
0 0 0 0 0 0 0 0 0 0
0 0 0 0 0 0 0 0 0 0
0 0 0 0 0 0 0 0 0 0
0 0 0 0 0 0 0 0 0 0
0 0 0 0 0 0 0 0 0 0
0 0 0 0 0 0 0 0 0 0
0 0 0 0 0 0 0 0 0 0
0 0 0 0 0 0 0 0 0 0
0 0 0 0 0 0 0 0 0 0
0 0 0 0 0 0 0 0 0 0
0 0 0 0 0 0 0 0 0 0
0 0 0 0 0 0 0 0 0 0
0 0 0 0 0 0 0 0 0 0
0 0 0 0 0 0 0 0 0 0
0 0 0 0 0 0 0 0 0 0
0 0 0 0 0 0 0 0 0 0
0 0 0 0 0 0 0 0 0 0
0 
U 3 182 float
1.01027 0.00204133 0 1.00992 0.00199159 0 1.00992 0.00199159 0 1.01027 0.00204133
0 1.00961 0.00197039 0 1.00961 0.00197039 0 1.00932 0.00192438 0
1.00932 0.00192438 0 1.00905 0.00189181 0 1.00905 0.00189181 0 1.0088
0.00185209 0 1.0088 0.00185209 0 1.00857 0.0018102 0 1.00857 0.0018102
0 1.00836 0.00176701 0 1.00836 0.00176701 0 1.00817 0.00172197 0
1.00817 0.00172197 0 1.00799 0.00167493 0 1.00799 0.00167493 0 1.00782
0.00162557 0 1.00782 0.00162557 0 1.00767 0.00157377 0 1.00767 0.00157377
0 1.00752 0.00151968 0 1.00752 0.00151968 0 1.00739 0.00146298 0
1.00739 0.00146298 0 1.00727 0.00140363 0 1.00727 0.00140363 0 1.00716
0.00134151 0 1.00716 0.00134151 0 1.00705 0.00127651 0 1.00705 0.00127651
0 1.00695 0.00120853 0 1.00695 0.00120853 0 1.00686 0.00113732 0
1.00686 0.00113732 0 1.00677 0.00106296 0 1.00677 0.00106296 0 1.00669
0.000985209 0 1.00669 0.000985209 0 1.00662 0.00090387 0 1.00662 0.00090387
0 1.00655 0.00081896 0 1.00655 0.00081896 0 1.00648 0.000730318 0
1.00648 0.000730318 0 1.00643 0.000637739 0 1.00643 0.000637739 0 1.00638
0.000541141 0 1.00638 0.000541141 0 1.00634 0.000440573 0 1.00634 0.000440573
0 1.00631 0.000335673 0 1.00631 0.000335673 0 1.00628 0.000225882 0
1.00628 0.000225882 0 1.00622 0.000113132 0 1.00622 0.000113132 0 1.00616
5.5685e-05 0 1.00616 5.5685e-05 0 0.0456492 5.12088e-06 0 0.0921384 2.3276e-05
0 0.0921384 2.3276e-05 0 0.0456492 5.12088e-06 0 0.186714 8.48914e-05 0
0.186714 8.48914e-05 0 0.284127 0.000195319 0 0.284127 0.000195319 0 0.383412
0.000353243 0 0.383412 0.000353243 0 0.482965 0.000558653 0 0.482965 0.000558653
0 0.580491 0.000808055 0 0.580491 0.000808055 0 0.673094 0.00109238 0
0.673094 0.00109238 0 0.757562 0.00139644 0 0.757562 0.00139644 0 0.830881
0.00170001 0 0.830881 0.00170001 0 0.890871 0.00198098 0 0.890871 0.00198098
0 0.936732 0.00222026 0 0.936732 0.00222026 0 0.96924 0.00240642 0
0.96924 0.00240642 0 0.990469 0.00253789 0 0.990469 0.00253789 0 1.00318
0.00262156 0 1.00318 0.00262156 0 1.01012 0.00266905 0 1.01012 0.00266905
0 1.01357 0.00269249 0 1.01357 0.00269249 0 1.01513 0.00270174 0
1.01513 0.00270174 0 1.01576 0.00270344 0 1.01576 0.00270344 0 1.01598
0.00270143 0 1.01598 0.00270143 0 1.01603 0.00269763 0 1.01603 0.00269763
0 1.01603 0.0026929 0 1.01603 0.0026929 0 1.01599 0.00268761 0
1.01599 0.00268761 0 1.01594 0.00268189 0 1.01594 0.00268189 0 1.01588
0.00267578 0 1.01588 0.00267578 0 1.01582 0.0026693 0 1.01582 0.0026693
0 1.01576 0.00266246 0 1.01576 0.00266246 0 1.0157 0.00265524 0
1.0157 0.00265524 0 1.01563 0.00264766 0 1.01563 0.00264766 0 1.01557
0.00263969 0 1.01557 0.00263969 0 1.01551 0.00263132 0 1.01551 0.00263132
0 1.01545 0.00262254 0 1.01545 0.00262254 0 1.0154 0.00261333 0
1.0154 0.00261333 0 1.01535 0.00260366 0 1.01535 0.00260366 0 1.0153
0.00259353 0 1.0153 0.00259353 0 1.01525 0.00258289 0 1.01525 0.00258289
0 1.0152 0.00257172 0 1.0152 0.00257172 0 1.01515 0.00255999 0
1.01515 0.00255999 0 1.01511 0.00254765 0 1.01511 0.00254765 0 1.01505
0.00253469 0 1.01505 0.00253469 0 1.01499 0.00252106 0 1.01499 0.00252106
0 1.01493 0.00250672 0 1.01493 0.00250672 0 1.01487 0.00249161 0
1.01487 0.00249161 0 1.01479 0.0024758 0 1.01479 0.0024758 0 1.0147
0.00245908 0 1.0147 0.00245908 0 1.0146 0.00244135 0 1.0146 0.00244135
0 1.01449 0.00242295 0 1.01449 0.00242295 0 1.01436 0.00240385 0
1.01436 0.00240385 0 1.01422 0.00238436 0 1.01422 0.00238436 0 1.01405
0.00235739 0 1.01405 0.00235739 0 1.01387 0.00234514 0 1.01387 0.00234514
0 1.01366 0.00230748 0 1.01366 0.00230748 0 1.01342 0.00229536 0
1.01342 0.00229536 0 1.01316 0.00226392 0 1.01316 0.00226392 0 1.01286
0.00222746 0 1.01286 0.00222746 0 1.01252 0.00221627 0 1.01252 0.00221627
0 1.01214 0.00216168 0 1.01214 0.00216168 0 1.0117 0.0021528 0
1.0117 0.0021528 0 1.01121 0.00209783 0 1.01121 0.00209783 0 1.01071
0.00206998 0 1.01071 0.00206998 0 
