# vtk DataFile Version 2.0
outlet
ASCII
DATASET POLYDATA
POINTS 182 float
0.1 0.02 0 0.1 0.0207299 0 0.1 0.0207299 0.001 0.1 0.02
0.001 0.1 0.021488 0 0.1 0.021488 0.001 0.1 0.0222754 0
0.1 0.0222754 0.001 0.1 0.0230932 0 0.1 0.0230932 0.001 0.1
0.0239425 0 0.1 0.0239425 0.001 0.1 0.0248247 0 0.1 0.0248247
0.001 0.1 0.0257409 0 0.1 0.0257409 0.001 0.1 0.0266925 0
0.1 0.0266925 0.001 0.1 0.0276808 0 0.1 0.0276808 0.001 0.1
0.0287073 0 0.1 0.0287073 0.001 0.1 0.0297734 0 0.1 0.0297734
0.001 0.1 0.0308807 0 0.1 0.0308807 0.001 0.1 0.0320307 0
0.1 0.0320307 0.001 0.1 0.0332251 0 0.1 0.0332251 0.001 0.1
0.0344656 0 0.1 0.0344656 0.001 0.1 0.0357541 0 0.1 0.0357541
0.001 0.1 0.0370923 0 0.1 0.0370923 0.001 0.1 0.0384821 0
0.1 0.0384821 0.001 0.1 0.0399257 0 0.1 0.0399257 0.001 0.1
0.0414249 0 0.1 0.0414249 0.001 0.1 0.042982 0 0.1 0.042982
0.001 0.1 0.0445993 0 0.1 0.0445993 0.001 0.1 0.046279 0
0.1 0.046279 0.001 0.1 0.0480236 0 0.1 0.0480236 0.001 0.1
0.0498355 0 0.1 0.0498355 0.001 0.1 0.0517173 0 0.1 0.0517173
0.001 0.1 0.0536719 0 0.1 0.0536719 0.001 0.1 0.0557019 0
0.1 0.0557019 0.001 0.1 0.0578102 0 0.1 0.0578102 0.001 0.1
0.06 0 0.1 0.06 0.001 0.1 0 0 0.1 8.46956e-05
0 0.1 8.46956e-05 0.001 0.1 0 0.001 0.1 0.000172762 0
0.1 0.000172762 0.001 0.1 0.000264333 0 0.1 0.000264333 0.001 0.1
0.000359549 0 0.1 0.000359549 0.001 0.1 0.000458554 0 0.1 0.000458554
0.001 0.1 0.0005615 0 0.1 0.0005615 0.001 0.1 0.000668542 0
0.1 0.000668542 0.001 0.1 0.000779845 0 0.1 0.000779845 0.001 0.1
0.000895577 0 0.1 0.000895577 0.001 0.1 0.00101591 0 0.1 0.00101591
0.001 0.1 0.00114104 0 0.1 0.00114104 0.001 0.1 0.00127115 0
0.1 0.00127115 0.001 0.1 0.00140644 0 0.1 0.00140644 0.001 0.1
0.0015471 0 0.1 0.0015471 0.001 0.1 0.00169337 0 0.1 0.00169337
0.001 0.1 0.00184546 0 0.1 0.00184546 0.001 0.1 0.0020036 0
0.1 0.0020036 0.001 0.1 0.00216804 0 0.1 0.00216804 0.001 0.1
0.00233902 0 0.1 0.00233902 0.001 0.1 0.00251681 0 0.1 0.00251681
0.001 0.1 0.00270167 0 0.1 0.00270167 0.001 0.1 0.00289388 0
0.1 0.00289388 0.001 0.1 0.00309375 0 0.1 0.00309375 0.001 0.1
0.00330157 0 0.1 0.00330157 0.001 0.1 0.00351767 0 0.1 0.00351767
0.001 0.1 0.00374236 0 0.1 0.00374236 0.001 0.1 0.00397599 0
0.1 0.00397599 0.001 0.1 0.00421893 0 0.1 0.00421893 0.001 0.1
0.00447153 0 0.1 0.00447153 0.001 0.1 0.00473419 0 0.1 0.00473419
0.001 0.1 0.0050073 0 0.1 0.0050073 0.001 0.1 0.00529127 0
0.1 0.00529127 0.001 0.1 0.00558655 0 0.1 0.00558655 0.001 0.1
0.00589359 0 0.1 0.00589359 0.001 0.1 0.00621284 0 0.1 0.00621284
0.001 0.1 0.00654479 0 0.1 0.00654479 0.001 0.1 0.00688996 0
0.1 0.00688996 0.001 0.1 0.00724887 0 0.1 0.00724887 0.001 0.1
0.00762206 0 0.1 0.00762206 0.001 0.1 0.0080101 0 0.1 0.0080101
0.001 0.1 0.00841358 0 0.1 0.00841358 0.001 0.1 0.00883312 0
0.1 0.00883312 0.001 0.1 0.00926936 0 0.1 0.00926936 0.001 0.1
0.00972297 0 0.1 0.00972297 0.001 0.1 0.0101946 0 0.1 0.0101946
0.001 0.1 0.010685 0 0.1 0.010685 0.001 0.1 0.011195 0
0.1 0.011195 0.001 0.1 0.0117252 0 0.1 0.0117252 0.001 0.1
0.0122766 0 0.1 0.0122766 0.001 0.1 0.0128499 0 0.1 0.0128499
0.001 0.1 0.013446 0 0.1 0.013446 0.001 0.1 0.0140658 0
0.1 0.0140658 0.001 0.1 0.0147103 0 0.1 0.0147103 0.001 0.1
0.0153804 0 0.1 0.0153804 0.001 0.1 0.0160772 0 0.1 0.0160772
0.001 0.1 0.0168018 0 0.1 0.0168018 0.001 0.1 0.0175551 0
0.1 0.0175551 0.001 0.1 0.0183385 0 0.1 0.0183385 0.001 0.1
0.019153 0 0.1 0.019153 0.001 
POLYGONS 90 450
4 0 1 2 3 4 1 4 5 2 4
4 6 7 5 4 6 8 9 7 4
8 10 11 9 4 10 12 13 11 4
12 14 15 13 4 14 16 17 15 4
16 18 19 17 4 18 20 21 19 4
20 22 23 21 4 22 24 25 23 4
24 26 27 25 4 26 28 29 27 4
28 30 31 29 4 30 32 33 31 4
32 34 35 33 4 34 36 37 35 4
36 38 39 37 4 38 40 41 39 4
40 42 43 41 4 42 44 45 43 4
44 46 47 45 4 46 48 49 47 4
48 50 51 49 4 50 52 53 51 4
52 54 55 53 4 54 56 57 55 4
56 58 59 57 4 58 60 61 59 4
62 63 64 65 4 63 66 67 64 4
66 68 69 67 4 68 70 71 69 4
70 72 73 71 4 72 74 75 73 4
74 76 77 75 4 76 78 79 77 4
78 80 81 79 4 80 82 83 81 4
82 84 85 83 4 84 86 87 85 4
86 88 89 87 4 88 90 91 89 4
90 92 93 91 4 92 94 95 93 4
94 96 97 95 4 96 98 99 97 4
98 100 101 99 4 100 102 103 101 4
102 104 105 103 4 104 106 107 105 4
106 108 109 107 4 108 110 111 109 4
110 112 113 111 4 112 114 115 113 4
114 116 117 115 4 116 118 119 117 4
118 120 121 119 4 120 122 123 121 4
122 124 125 123 4 124 126 127 125 4
126 128 129 127 4 128 130 131 129 4
130 132 133 131 4 132 134 135 133 4
134 136 137 135 4 136 138 139 137 4
138 140 141 139 4 140 142 143 141 4
142 144 145 143 4 144 146 147 145 4
146 148 149 147 4 148 150 151 149 4
150 152 153 151 4 152 154 155 153 4
154 156 157 155 4 156 158 159 157 4
158 160 161 159 4 160 162 163 161 4
162 164 165 163 4 164 166 167 165 4
166 168 169 167 4 168 170 171 169 4
170 172 173 171 4 172 174 175 173 4
174 176 177 175 4 176 178 179 177 4
178 180 181 179 4 180 0 3 181 
CELL_DATA 90
FIELD attributes 3
patchID 1 90 float
2 2 2 2 2 2 2 2 2 2 2
2 2 2 2 2 2 2 2 2 2
2 2 2 2 2 2 2 2 2 2
2 2 2 2 2 2 2 2 2 2
2 2 2 2 2 2 2 2 2 2
2 2 2 2 2 2 2 2 2 2
2 2 2 2 2 2 2 2 2 2
2 2 2 2 2 2 2 2 2 2
2 2 2 2 2 2 2 2 2 
p 1 90 float
0 0 0 0 0 0 0 0 0 0 0
0 0 0 0 0 0 0 0 0 0
0 0 0 0 0 0 0 0 0 0
0 0 0 0 0 0 0 0 0 0
0 0 0 0 0 0 0 0 0 0
0 0 0 0 0 0 0 0 0 0
0 0 0 0 0 0 0 0 0 0
0 0 0 0 0 0 0 0 0 0
0 0 0 0 0 0 0 0 0 
U 3 90 float
1.00648 0.000567933 0 1.00646 0.000577008 0 1.00644 0.000585323 0 1.00641 0.000592738
0 1.00639 0.000599159 0 1.00637 0.000604454 0 1.00634 0.000608489 0
1.00631 0.000611131 0 1.00628 0.000612235 0 1.00626 0.000611652 0 1.00623
0.00060923 0 1.0062 0.000604812 0 1.00617 0.000598239 0 1.00613 0.000589349
0 1.0061 0.000577982 0 1.00607 0.000563978 0 1.00604 0.000547182 0
1.00601 0.000527443 0 1.00598 0.000504619 0 1.00595 0.000478578 0 1.00592
0.000449201 0 1.00589 0.000416388 0 1.00586 0.00038006 0 1.00584 0.000340162
0 1.00582 0.000296674 0 1.0058 0.000249613 0 1.00578 0.000199 0
1.00576 0.000145204 0 1.00575 8.74134e-05 0 1.00561 2.86039e-05 0 0.0766303
-5.22828e-09 0 0.229875 -1.62085e-08 0 0.380132 -1.15847e-08 0 0.52112 5.0563e-08
0 0.647052 2.32487e-07 0 0.753561 6.28396e-07 0 0.838382 1.36213e-06 0
0.901619 2.57644e-06 0 0.945494 4.41101e-06 0 0.973656 6.96379e-06 0 0.99028
1.02567e-05 0 0.999255 1.42316e-05 0 1.00366 1.87801e-05 0 1.00562 2.37871e-05
0 1.00641 2.91608e-05 0 1.00669 3.48427e-05 0 1.00678 4.08026e-05 0
1.00681 4.70289e-05 0 1.00682 5.35193e-05 0 1.00682 6.02767e-05 0 1.00682
6.73058e-05 0 1.00682 7.46124e-05 0 1.00682 8.22029e-05 0 1.00682 9.00841e-05
0 1.00682 9.8263e-05 0 1.00681 0.000106747 0 1.00681 0.000115542 0
1.00681 0.000124656 0 1.00681 0.000134096 0 1.00681 0.000143867 0 1.00681
0.000153976 0 1.0068 0.000164429 0 1.0068 0.00017523 0 1.0068 0.000186382
0 1.00679 0.000197888 0 1.00679 0.000209751 0 1.00679 0.00022197 0
1.00678 0.000234544 0 1.00678 0.000247469 0 1.00677 0.00026074 0 1.00677
0.000274349 0 1.00676 0.000288286 0 1.00675 0.000302538 0 1.00674 0.000317087
0 1.00674 0.000331913 0 1.00673 0.000346991 0 1.00672 0.000362293 0
1.00671 0.000377783 0 1.0067 0.000393423 0 1.00668 0.000409166 0 1.00667
0.000424962 0 1.00666 0.000440752 0 1.00664 0.000456469 0 1.00662 0.000472041
0 1.00661 0.000487384 0 1.00659 0.00050241 0 1.00657 0.000517021 0
1.00655 0.000531094 0 1.00653 0.000544546 0 1.0065 0.000557204 0 
POINT_DATA  182
FIELD attributes 2
p 1 182 float
0 0 0 0 0 0 0 0 0 0 0
0 0 0 0 0 0 0 0 0 0
0 0 0 0 0 0 0 0 0 0
0 0 0 0 0 0 0 0 0 0
0 0 0 0 0 0 0 0 0 0
0 0 0 0 0 0 0 0 0 0
0 0 0 0 0 0 0 0 0 0
0 0 0 0 0 0 0 0 0 0
0 0 0 0 0 0 0 0 0 0
0 0 0 0 0 0 0 0 0 0
0 0 0 0 0 0 0 0 0 0
0 0 0 0 0 0 0 0 0 0
0 0 0 0 0 0 0 0 0 0
0 0 0 0 0 0 0 0 0 0
0 0 0 0 0 0 0 0 0 0
0 0 0 0 0 0 0 0 0 0
0 0 0 0 0 0 0 0 0 0
0 0 0 0 0 0 0 0 0 0
0 
U 3 182 float
1.00649 0.000562721 0 1.00647 0.00057244 0 1.00647 0.00057244 0 1.00649 0.000562721
0 1.00645 0.000581136 0 1.00645 0.000581136 0 1.00643 0.000589003 0
1.00643 0.000589003 0 1.0064 0.000595924 0 1.0064 0.000595924 0 1.00638
0.000601785 0 1.00638 0.000601785 0 1.00636 0.000606454 0 1.00636 0.000606454
0 1.00633 0.000609798 0 1.00633 0.000609798 0 1.0063 0.000611678 0
1.0063 0.000611678 0 1.00627 0.000611946 0 1.00627 0.000611946 0 1.00625
0.000610453 0 1.00625 0.000610453 0 1.00622 0.000607044 0 1.00622 0.000607044
0 1.00619 0.00060156 0 1.00619 0.00060156 0 1.00615 0.000593843 0
1.00615 0.000593843 0 1.00612 0.00058373 0 1.00612 0.00058373 0 1.00609
0.000571062 0 1.00609 0.000571062 0 1.00606 0.000555681 0 1.00606 0.000555681
0 1.00603 0.000537434 0 1.00603 0.000537434 0 1.006 0.000516175 0
1.006 0.000516175 0 1.00597 0.000491767 0 1.00597 0.000491767 0 1.00594
0.000464084 0 1.00594 0.000464084 0 1.00591 0.000433017 0 1.00591 0.000433017
0 1.00588 0.000398475 0 1.00588 0.000398475 0 1.00585 0.000360393 0
1.00585 0.000360393 0 1.00583 0.000318731 0 1.00583 0.000318731 0 1.00581
0.000273488 0 1.00581 0.000273488 0 1.00579 0.000224683 0 1.00579 0.000224683
0 1.00577 0.000172509 0 1.00577 0.000172509 0 1.00576 0.000116752 0
1.00576 0.000116752 0 1.00568 5.84664e-05 0 1.00568 5.84664e-05 0 1.00561
2.86039e-05 0 1.00561 2.86039e-05 0 0.0766303 -5.22828e-09 0 0.153242 -1.07176e-08
0 0.153242 -1.07176e-08 0 0.0766303 -5.22828e-09 0 0.304992 -1.3897e-08 0
0.304992 -1.3897e-08 0 0.450614 1.94839e-08 0 0.450614 1.94839e-08 0 0.584074
1.41508e-07 0 0.584074 1.41508e-07 0 0.700296 4.30403e-07 0 0.700296 4.30403e-07
0 0.795962 9.95185e-07 0 0.795962 9.95185e-07 0 0.869993 1.96915e-06 0
0.869993 1.96915e-06 0 0.923551 3.4935e-06 0 0.923551 3.4935e-06 0 0.959571
5.68706e-06 0 0.959571 5.68706e-06 0 0.981966 8.60977e-06 0 0.981966 8.60977e-06
0 0.994766 1.22435e-05 0 0.994766 1.22435e-05 0 1.00146 1.65051e-05 0
1.00146 1.65051e-05 0 1.00464 2.12827e-05 0 1.00464 2.12827e-05 0 1.00601
2.64729e-05 0 1.00601 2.64729e-05 0 1.00655 3.20005e-05 0 1.00655 3.20005e-05
0 1.00673 3.78213e-05 0 1.00673 3.78213e-05 0 1.0068 4.39142e-05 0
1.0068 4.39142e-05 0 1.00681 5.02724e-05 0 1.00681 5.02724e-05 0 1.00682
5.68961e-05 0 1.00682 5.68961e-05 0 1.00682 6.37891e-05 0 1.00682 6.37891e-05
0 1.00682 7.09567e-05 0 1.00682 7.09567e-05 0 1.00682 7.84049e-05 0
1.00682 7.84049e-05 0 1.00682 8.61404e-05 0 1.00682 8.61404e-05 0 1.00682
9.41701e-05 0 1.00682 9.41701e-05 0 1.00681 0.000102501 0 1.00681 0.000102501
0 1.00681 0.00011114 0 1.00681 0.00011114 0 1.00681 0.000120094 0
1.00681 0.000120094 0 1.00681 0.000129371 0 1.00681 0.000129371 0 1.00681
0.000138976 0 1.00681 0.000138976 0 1.00681 0.000148915 0 1.00681 0.000148915
0 1.00681 0.000159195 0 1.00681 0.000159195 0 1.0068 0.000169821 0
1.0068 0.000169821 0 1.0068 0.000180797 0 1.0068 0.000180797 0 1.0068
0.000192125 0 1.0068 0.000192125 0 1.00679 0.000203808 0 1.00679 0.000203808
0 1.00679 0.000215848 0 1.00679 0.000215848 0 1.00679 0.000228243 0
1.00679 0.000228243 0 1.00678 0.000240992 0 1.00678 0.000240992 0 1.00678
0.000254088 0 1.00678 0.000254088 0 1.00677 0.000267527 0 1.00677 0.000267527
0 1.00677 0.000281298 0 1.00677 0.000281298 0 1.00675 0.00029539 0
1.00675 0.00029539 0 1.00674 0.000309789 0 1.00674 0.000309789 0 1.00674
0.000324475 0 1.00674 0.000324475 0 1.00673 0.000339424 0 1.00673 0.000339424
0 1.00673 0.000354612 0 1.00673 0.000354612 0 1.00672 0.000370006 0
1.00672 0.000370006 0 1.00671 0.000385568 0 1.00671 0.000385568 0 1.00669
0.000401258 0 1.00669 0.000401258 0 1.00668 0.000417025 0 1.00668 0.000417025
0 1.00666 0.000432815 0 1.00666 0.000432815 0 1.00665 0.000448567 0
1.00665 0.000448567 0 1.00663 0.000464209 0 1.00663 0.000464209 0 1.00662
0.000479665 0 1.00662 0.000479665 0 1.0066 0.000494848 0 1.0066 0.000494848
0 1.00658 0.000509665 0 1.00658 0.000509665 0 1.00656 0.000524007 0
1.00656 0.000524007 0 1.00654 0.000537769 0 1.00654 0.000537769 0 1.00652
0.000550825 0 1.00652 0.000550825 0 
