# vtk DataFile Version 2.0
outlet
ASCII
DATASET POLYDATA
POINTS 182 float
0.1 0.02 0 0.1 0.0207299 0 0.1 0.0207299 0.001 0.1 0.02
0.001 0.1 0.021488 0 0.1 0.021488 0.001 0.1 0.0222754 0
0.1 0.0222754 0.001 0.1 0.0230932 0 0.1 0.0230932 0.001 0.1
0.0239425 0 0.1 0.0239425 0.001 0.1 0.0248247 0 0.1 0.0248247
0.001 0.1 0.0257409 0 0.1 0.0257409 0.001 0.1 0.0266925 0
0.1 0.0266925 0.001 0.1 0.0276808 0 0.1 0.0276808 0.001 0.1
0.0287073 0 0.1 0.0287073 0.001 0.1 0.0297734 0 0.1 0.0297734
0.001 0.1 0.0308807 0 0.1 0.0308807 0.001 0.1 0.0320307 0
0.1 0.0320307 0.001 0.1 0.0332251 0 0.1 0.0332251 0.001 0.1
0.0344656 0 0.1 0.0344656 0.001 0.1 0.0357541 0 0.1 0.0357541
0.001 0.1 0.0370923 0 0.1 0.0370923 0.001 0.1 0.0384821 0
0.1 0.0384821 0.001 0.1 0.0399257 0 0.1 0.0399257 0.001 0.1
0.0414249 0 0.1 0.0414249 0.001 0.1 0.042982 0 0.1 0.042982
0.001 0.1 0.0445993 0 0.1 0.0445993 0.001 0.1 0.046279 0
0.1 0.046279 0.001 0.1 0.0480236 0 0.1 0.0480236 0.001 0.1
0.0498355 0 0.1 0.0498355 0.001 0.1 0.0517173 0 0.1 0.0517173
0.001 0.1 0.0536719 0 0.1 0.0536719 0.001 0.1 0.0557019 0
0.1 0.0557019 0.001 0.1 0.0578102 0 0.1 0.0578102 0.001 0.1
0.06 0 0.1 0.06 0.001 0.1 0 0 0.1 8.46956e-05
0 0.1 8.46956e-05 0.001 0.1 0 0.001 0.1 0.000172762 0
0.1 0.000172762 0.001 0.1 0.000264333 0 0.1 0.000264333 0.001 0.1
0.000359549 0 0.1 0.000359549 0.001 0.1 0.000458554 0 0.1 0.000458554
0.001 0.1 0.0005615 0 0.1 0.0005615 0.001 0.1 0.000668542 0
0.1 0.000668542 0.001 0.1 0.000779845 0 0.1 0.000779845 0.001 0.1
0.000895577 0 0.1 0.000895577 0.001 0.1 0.00101591 0 0.1 0.00101591
0.001 0.1 0.00114104 0 0.1 0.00114104 0.001 0.1 0.00127115 0
0.1 0.00127115 0.001 0.1 0.00140644 0 0.1 0.00140644 0.001 0.1
0.0015471 0 0.1 0.0015471 0.001 0.1 0.00169337 0 0.1 0.00169337
0.001 0.1 0.00184546 0 0.1 0.00184546 0.001 0.1 0.0020036 0
0.1 0.0020036 0.001 0.1 0.00216804 0 0.1 0.00216804 0.001 0.1
0.00233902 0 0.1 0.00233902 0.001 0.1 0.00251681 0 0.1 0.00251681
0.001 0.1 0.00270167 0 0.1 0.00270167 0.001 0.1 0.00289388 0
0.1 0.00289388 0.001 0.1 0.00309375 0 0.1 0.00309375 0.001 0.1
0.00330157 0 0.1 0.00330157 0.001 0.1 0.00351767 0 0.1 0.00351767
0.001 0.1 0.00374236 0 0.1 0.00374236 0.001 0.1 0.00397599 0
0.1 0.00397599 0.001 0.1 0.00421893 0 0.1 0.00421893 0.001 0.1
0.00447153 0 0.1 0.00447153 0.001 0.1 0.00473419 0 0.1 0.00473419
0.001 0.1 0.0050073 0 0.1 0.0050073 0.001 0.1 0.00529127 0
0.1 0.00529127 0.001 0.1 0.00558655 0 0.1 0.00558655 0.001 0.1
0.00589359 0 0.1 0.00589359 0.001 0.1 0.00621284 0 0.1 0.00621284
0.001 0.1 0.00654479 0 0.1 0.00654479 0.001 0.1 0.00688996 0
0.1 0.00688996 0.001 0.1 0.00724887 0 0.1 0.00724887 0.001 0.1
0.00762206 0 0.1 0.00762206 0.001 0.1 0.0080101 0 0.1 0.0080101
0.001 0.1 0.00841358 0 0.1 0.00841358 0.001 0.1 0.00883312 0
0.1 0.00883312 0.001 0.1 0.00926936 0 0.1 0.00926936 0.001 0.1
0.00972297 0 0.1 0.00972297 0.001 0.1 0.0101946 0 0.1 0.0101946
0.001 0.1 0.010685 0 0.1 0.010685 0.001 0.1 0.011195 0
0.1 0.011195 0.001 0.1 0.0117252 0 0.1 0.0117252 0.001 0.1
0.0122766 0 0.1 0.0122766 0.001 0.1 0.0128499 0 0.1 0.0128499
0.001 0.1 0.013446 0 0.1 0.013446 0.001 0.1 0.0140658 0
0.1 0.0140658 0.001 0.1 0.0147103 0 0.1 0.0147103 0.001 0.1
0.0153804 0 0.1 0.0153804 0.001 0.1 0.0160772 0 0.1 0.0160772
0.001 0.1 0.0168018 0 0.1 0.0168018 0.001 0.1 0.0175551 0
0.1 0.0175551 0.001 0.1 0.0183385 0 0.1 0.0183385 0.001 0.1
0.019153 0 0.1 0.019153 0.001 
POLYGONS 90 450
4 0 1 2 3 4 1 4 5 2 4
4 6 7 5 4 6 8 9 7 4
8 10 11 9 4 10 12 13 11 4
12 14 15 13 4 14 16 17 15 4
16 18 19 17 4 18 20 21 19 4
20 22 23 21 4 22 24 25 23 4
24 26 27 25 4 26 28 29 27 4
28 30 31 29 4 30 32 33 31 4
32 34 35 33 4 34 36 37 35 4
36 38 39 37 4 38 40 41 39 4
40 42 43 41 4 42 44 45 43 4
44 46 47 45 4 46 48 49 47 4
48 50 51 49 4 50 52 53 51 4
52 54 55 53 4 54 56 57 55 4
56 58 59 57 4 58 60 61 59 4
62 63 64 65 4 63 66 67 64 4
66 68 69 67 4 68 70 71 69 4
70 72 73 71 4 72 74 75 73 4
74 76 77 75 4 76 78 79 77 4
78 80 81 79 4 80 82 83 81 4
82 84 85 83 4 84 86 87 85 4
86 88 89 87 4 88 90 91 89 4
90 92 93 91 4 92 94 95 93 4
94 96 97 95 4 96 98 99 97 4
98 100 101 99 4 100 102 103 101 4
102 104 105 103 4 104 106 107 105 4
106 108 109 107 4 108 110 111 109 4
110 112 113 111 4 112 114 115 113 4
114 116 117 115 4 116 118 119 117 4
118 120 121 119 4 120 122 123 121 4
122 124 125 123 4 124 126 127 125 4
126 128 129 127 4 128 130 131 129 4
130 132 133 131 4 132 134 135 133 4
134 136 137 135 4 136 138 139 137 4
138 140 141 139 4 140 142 143 141 4
142 144 145 143 4 144 146 147 145 4
146 148 149 147 4 148 150 151 149 4
150 152 153 151 4 152 154 155 153 4
154 156 157 155 4 156 158 159 157 4
158 160 161 159 4 160 162 163 161 4
162 164 165 163 4 164 166 167 165 4
166 168 169 167 4 168 170 171 169 4
170 172 173 171 4 172 174 175 173 4
174 176 177 175 4 176 178 179 177 4
178 180 181 179 4 180 0 3 181 
CELL_DATA 90
FIELD attributes 3
patchID 1 90 float
2 2 2 2 2 2 2 2 2 2 2
2 2 2 2 2 2 2 2 2 2
2 2 2 2 2 2 2 2 2 2
2 2 2 2 2 2 2 2 2 2
2 2 2 2 2 2 2 2 2 2
2 2 2 2 2 2 2 2 2 2
2 2 2 2 2 2 2 2 2 2
2 2 2 2 2 2 2 2 2 2
2 2 2 2 2 2 2 2 2 
p 1 90 float
0 0 0 0 0 0 0 0 0 0 0
0 0 0 0 0 0 0 0 0 0
0 0 0 0 0 0 0 0 0 0
0 0 0 0 0 0 0 0 0 0
0 0 0 0 0 0 0 0 0 0
0 0 0 0 0 0 0 0 0 0
0 0 0 0 0 0 0 0 0 0
0 0 0 0 0 0 0 0 0 0
0 0 0 0 0 0 0 0 0 
U 3 90 float
1.0102 0.0019836 0 1.00985 0.00199935 0 1.00953 0.00193866 0 1.00923 0.00190925
0 1.00896 0.00187105 0 1.00872 0.00183046 0 1.00849 0.00178813 0
1.00828 0.00174389 0 1.00809 0.00169792 0 1.00791 0.00164994 0 1.00775
0.00159926 0 1.0076 0.00154651 0 1.00746 0.00149098 0 1.00733 0.00143294
0 1.00722 0.00137211 0 1.0071 0.00130836 0 1.007 0.00124186 0
1.00691 0.00117222 0 1.00682 0.00109933 0 1.00673 0.00102338 0 1.00666
0.00094384 0 1.00659 0.000860808 0 1.00652 0.000774134 0 1.00647 0.000683605
0 1.00641 0.000589068 0 1.00637 0.000490568 0 1.00633 0.000388003 0
1.0063 0.000280883 0 1.00628 0.000168624 0 1.00617 5.56186e-05 0 0.0456979
5.10682e-06 0 0.13873 4.12904e-05 0 0.234919 0.000127883 0 0.333605 0.00026132
0 0.433525 0.000442592 0 0.532728 0.000670755 0 0.628575 0.000939851 0
0.717914 0.0012378 0 0.797479 0.00154645 0 0.86451 0.00184358 0 0.917414
0.00210723 0 0.956191 0.00232114 0 0.982392 0.00247865 0 0.998617 0.00258318
0 1.00778 0.00264513 0 1.01249 0.00267738 0 1.01468 0.0026914 0
1.0156 0.0026955 0 1.01594 0.00269468 0 1.01604 0.00269157 0 1.01604
0.00268736 0 1.01601 0.00268254 0 1.01597 0.00267728 0 1.01592 0.00267164
0 1.01586 0.00266565 0 1.0158 0.0026593 0 1.01574 0.00265259 0
1.01568 0.00264552 0 1.01561 0.00263807 0 1.01555 0.00263022 0 1.01549
0.00262197 0 1.01543 0.0026133 0 1.01538 0.00260417 0 1.01533 0.00259457
0 1.01528 0.00258449 0 1.01523 0.00257386 0 1.01518 0.0025627 0
1.01514 0.00255095 0 1.01509 0.00253854 0 1.01504 0.00252552 0 1.01498
0.00251177 0 1.01491 0.00249728 0 1.01484 0.00248207 0 1.01476 0.00246593
0 1.01467 0.00244903 0 1.01457 0.00243109 0 1.01445 0.00241246 0
1.01432 0.00239313 0 1.01417 0.00237352 0 1.014 0.00234045 0 1.01381
0.00234844 0 1.0136 0.00226603 0 1.01336 0.00232466 0 1.01309 0.00220204
0 1.01279 0.00225441 0 1.01246 0.0021777 0 1.01208 0.00214753 0
1.01166 0.00215873 0 1.01116 0.00203869 0 1.01063 0.00210128 0 
POINT_DATA  182
FIELD attributes 2
p 1 182 float
0 0 0 0 0 0 0 0 0 0 0
0 0 0 0 0 0 0 0 0 0
0 0 0 0 0 0 0 0 0 0
0 0 0 0 0 0 0 0 0 0
0 0 0 0 0 0 0 0 0 0
0 0 0 0 0 0 0 0 0 0
0 0 0 0 0 0 0 0 0 0
0 0 0 0 0 0 0 0 0 0
0 0 0 0 0 0 0 0 0 0
0 0 0 0 0 0 0 0 0 0
0 0 0 0 0 0 0 0 0 0
0 0 0 0 0 0 0 0 0 0
0 0 0 0 0 0 0 0 0 0
0 0 0 0 0 0 0 0 0 0
0 0 0 0 0 0 0 0 0 0
0 0 0 0 0 0 0 0 0 0
0 0 0 0 0 0 0 0 0 0
0 0 0 0 0 0 0 0 0 0
0 
U 3 182 float
1.01041 0.00204077 0 1.01003 0.00199142 0 1.01003 0.00199142 0 1.01041 0.00204077
0 1.00969 0.00196922 0 1.00969 0.00196922 0 1.00938 0.00192406 0
1.00938 0.00192406 0 1.0091 0.0018903 0 1.0091 0.0018903 0 1.00884
0.00185092 0 1.00884 0.00185092 0 1.00861 0.00180947 0 1.00861 0.00180947
0 1.00839 0.00176621 0 1.00839 0.00176621 0 1.00819 0.00172112 0
1.00819 0.00172112 0 1.008 0.00167416 0 1.008 0.00167416 0 1.00783
0.00162485 0 1.00783 0.00162485 0 1.00768 0.00157316 0 1.00768 0.00157316
0 1.00753 0.00151904 0 1.00753 0.00151904 0 1.0074 0.00146228 0
1.0074 0.00146228 0 1.00728 0.00140287 0 1.00728 0.00140287 0 1.00716
0.00134061 0 1.00716 0.00134061 0 1.00705 0.00127551 0 1.00705 0.00127551
0 1.00696 0.00120747 0 1.00696 0.00120747 0 1.00687 0.00113624 0
1.00687 0.00113624 0 1.00678 0.00106185 0 1.00678 0.00106185 0 1.0067
0.000984137 0 1.0067 0.000984137 0 1.00663 0.000902887 0 1.00663 0.000902887
0 1.00656 0.000818071 0 1.00656 0.000818071 0 1.0065 0.000729509 0
1.0065 0.000729509 0 1.00644 0.000637017 0 1.00644 0.000637017 0 1.00639
0.000540539 0 1.00639 0.000540539 0 1.00635 0.000440049 0 1.00635 0.000440049
0 1.00632 0.000335253 0 1.00632 0.000335253 0 1.00629 0.000225615 0
1.00629 0.000225615 0 1.00623 0.000113001 0 1.00623 0.000113001 0 1.00617
5.56186e-05 0 1.00617 5.56186e-05 0 0.0456979 5.10682e-06 0 0.0922072 2.3196e-05
0 0.0922072 2.3196e-05 0 0.0456979 5.10682e-06 0 0.186817 8.45799e-05 0
0.186817 8.45799e-05 0 0.284254 0.00019459 0 0.284254 0.00019459 0 0.383556
0.000351939 0 0.383556 0.000351939 0 0.483117 0.000556651 0 0.483117 0.000556651
0 0.580641 0.000805274 0 0.580641 0.000805274 0 0.673234 0.00108879 0
0.673234 0.00108879 0 0.757687 0.00139209 0 0.757687 0.00139209 0 0.830985
0.00169498 0 0.830985 0.00169498 0 0.890954 0.00197537 0 0.890954 0.00197537
0 0.936796 0.00221415 0 0.936796 0.00221415 0 0.969287 0.00239987 0
0.969287 0.00239987 0 0.990502 0.0025309 0 0.990502 0.0025309 0 1.0032
0.00261414 0 1.0032 0.00261414 0 1.01013 0.00266125 0 1.01013 0.00266125
0 1.01358 0.00268439 0 1.01358 0.00268439 0 1.01514 0.00269345 0
1.01514 0.00269345 0 1.01577 0.00269509 0 1.01577 0.00269509 0 1.01599
0.00269313 0 1.01599 0.00269313 0 1.01604 0.00268947 0 1.01604 0.00268947
0 1.01603 0.00268495 0 1.01603 0.00268495 0 1.01599 0.00267991 0
1.01599 0.00267991 0 1.01595 0.00267446 0 1.01595 0.00267446 0 1.01589
0.00266865 0 1.01589 0.00266865 0 1.01583 0.00266248 0 1.01583 0.00266248
0 1.01577 0.00265595 0 1.01577 0.00265595 0 1.01571 0.00264906 0
1.01571 0.00264906 0 1.01565 0.0026418 0 1.01565 0.0026418 0 1.01558
0.00263415 0 1.01558 0.00263415 0 1.01552 0.0026261 0 1.01552 0.0026261
0 1.01546 0.00261764 0 1.01546 0.00261764 0 1.01541 0.00260874 0
1.01541 0.00260874 0 1.01535 0.00259938 0 1.01535 0.00259938 0 1.01531
0.00258954 0 1.01531 0.00258954 0 1.01526 0.00257918 0 1.01526 0.00257918
0 1.01521 0.00256829 0 1.01521 0.00256829 0 1.01516 0.00255684 0
1.01516 0.00255684 0 1.01512 0.00254476 0 1.01512 0.00254476 0 1.01507
0.00253205 0 1.01507 0.00253205 0 1.01501 0.00251866 0 1.01501 0.00251866
0 1.01495 0.00250455 0 1.01495 0.00250455 0 1.01488 0.0024897 0
1.01488 0.0024897 0 1.0148 0.00247403 0 1.0148 0.00247403 0 1.01472
0.00245751 0 1.01472 0.00245751 0 1.01462 0.00244009 0 1.01462 0.00244009
0 1.01451 0.00242181 0 1.01451 0.00242181 0 1.01439 0.00240284 0
1.01439 0.00240284 0 1.01425 0.00238337 0 1.01425 0.00238337 0 1.01409
0.00235706 0 1.01409 0.00235706 0 1.01391 0.00234443 0 1.01391 0.00234443
0 1.01371 0.00230745 0 1.01371 0.00230745 0 1.01348 0.00229518 0
1.01348 0.00229518 0 1.01323 0.00226371 0 1.01323 0.00226371 0 1.01294
0.00222806 0 1.01294 0.00222806 0 1.01263 0.00221631 0 1.01263 0.00221631
0 1.01227 0.00216272 0 1.01227 0.00216272 0 1.01187 0.00215309 0
1.01187 0.00215309 0 1.01141 0.00209917 0 1.01141 0.00209917 0 1.0109
0.00206974 0 1.0109 0.00206974 0 
