# vtk DataFile Version 2.0
outlet
ASCII
DATASET POLYDATA
POINTS 182 float
0.1 0.02 0 0.1 0.0207299 0 0.1 0.0207299 0.001 0.1 0.02
0.001 0.1 0.021488 0 0.1 0.021488 0.001 0.1 0.0222754 0
0.1 0.0222754 0.001 0.1 0.0230932 0 0.1 0.0230932 0.001 0.1
0.0239425 0 0.1 0.0239425 0.001 0.1 0.0248247 0 0.1 0.0248247
0.001 0.1 0.0257409 0 0.1 0.0257409 0.001 0.1 0.0266925 0
0.1 0.0266925 0.001 0.1 0.0276808 0 0.1 0.0276808 0.001 0.1
0.0287073 0 0.1 0.0287073 0.001 0.1 0.0297734 0 0.1 0.0297734
0.001 0.1 0.0308807 0 0.1 0.0308807 0.001 0.1 0.0320307 0
0.1 0.0320307 0.001 0.1 0.0332251 0 0.1 0.0332251 0.001 0.1
0.0344656 0 0.1 0.0344656 0.001 0.1 0.0357541 0 0.1 0.0357541
0.001 0.1 0.0370923 0 0.1 0.0370923 0.001 0.1 0.0384821 0
0.1 0.0384821 0.001 0.1 0.0399257 0 0.1 0.0399257 0.001 0.1
0.0414249 0 0.1 0.0414249 0.001 0.1 0.042982 0 0.1 0.042982
0.001 0.1 0.0445993 0 0.1 0.0445993 0.001 0.1 0.046279 0
0.1 0.046279 0.001 0.1 0.0480236 0 0.1 0.0480236 0.001 0.1
0.0498355 0 0.1 0.0498355 0.001 0.1 0.0517173 0 0.1 0.0517173
0.001 0.1 0.0536719 0 0.1 0.0536719 0.001 0.1 0.0557019 0
0.1 0.0557019 0.001 0.1 0.0578102 0 0.1 0.0578102 0.001 0.1
0.06 0 0.1 0.06 0.001 0.1 0 0 0.1 8.46956e-05
0 0.1 8.46956e-05 0.001 0.1 0 0.001 0.1 0.000172762 0
0.1 0.000172762 0.001 0.1 0.000264333 0 0.1 0.000264333 0.001 0.1
0.000359549 0 0.1 0.000359549 0.001 0.1 0.000458554 0 0.1 0.000458554
0.001 0.1 0.0005615 0 0.1 0.0005615 0.001 0.1 0.000668542 0
0.1 0.000668542 0.001 0.1 0.000779845 0 0.1 0.000779845 0.001 0.1
0.000895577 0 0.1 0.000895577 0.001 0.1 0.00101591 0 0.1 0.00101591
0.001 0.1 0.00114104 0 0.1 0.00114104 0.001 0.1 0.00127115 0
0.1 0.00127115 0.001 0.1 0.00140644 0 0.1 0.00140644 0.001 0.1
0.0015471 0 0.1 0.0015471 0.001 0.1 0.00169337 0 0.1 0.00169337
0.001 0.1 0.00184546 0 0.1 0.00184546 0.001 0.1 0.0020036 0
0.1 0.0020036 0.001 0.1 0.00216804 0 0.1 0.00216804 0.001 0.1
0.00233902 0 0.1 0.00233902 0.001 0.1 0.00251681 0 0.1 0.00251681
0.001 0.1 0.00270167 0 0.1 0.00270167 0.001 0.1 0.00289388 0
0.1 0.00289388 0.001 0.1 0.00309375 0 0.1 0.00309375 0.001 0.1
0.00330157 0 0.1 0.00330157 0.001 0.1 0.00351767 0 0.1 0.00351767
0.001 0.1 0.00374236 0 0.1 0.00374236 0.001 0.1 0.00397599 0
0.1 0.00397599 0.001 0.1 0.00421893 0 0.1 0.00421893 0.001 0.1
0.00447153 0 0.1 0.00447153 0.001 0.1 0.00473419 0 0.1 0.00473419
0.001 0.1 0.0050073 0 0.1 0.0050073 0.001 0.1 0.00529127 0
0.1 0.00529127 0.001 0.1 0.00558655 0 0.1 0.00558655 0.001 0.1
0.00589359 0 0.1 0.00589359 0.001 0.1 0.00621284 0 0.1 0.00621284
0.001 0.1 0.00654479 0 0.1 0.00654479 0.001 0.1 0.00688996 0
0.1 0.00688996 0.001 0.1 0.00724887 0 0.1 0.00724887 0.001 0.1
0.00762206 0 0.1 0.00762206 0.001 0.1 0.0080101 0 0.1 0.0080101
0.001 0.1 0.00841358 0 0.1 0.00841358 0.001 0.1 0.00883312 0
0.1 0.00883312 0.001 0.1 0.00926936 0 0.1 0.00926936 0.001 0.1
0.00972297 0 0.1 0.00972297 0.001 0.1 0.0101946 0 0.1 0.0101946
0.001 0.1 0.010685 0 0.1 0.010685 0.001 0.1 0.011195 0
0.1 0.011195 0.001 0.1 0.0117252 0 0.1 0.0117252 0.001 0.1
0.0122766 0 0.1 0.0122766 0.001 0.1 0.0128499 0 0.1 0.0128499
0.001 0.1 0.013446 0 0.1 0.013446 0.001 0.1 0.0140658 0
0.1 0.0140658 0.001 0.1 0.0147103 0 0.1 0.0147103 0.001 0.1
0.0153804 0 0.1 0.0153804 0.001 0.1 0.0160772 0 0.1 0.0160772
0.001 0.1 0.0168018 0 0.1 0.0168018 0.001 0.1 0.0175551 0
0.1 0.0175551 0.001 0.1 0.0183385 0 0.1 0.0183385 0.001 0.1
0.019153 0 0.1 0.019153 0.001 
POLYGONS 90 450
4 0 1 2 3 4 1 4 5 2 4
4 6 7 5 4 6 8 9 7 4
8 10 11 9 4 10 12 13 11 4
12 14 15 13 4 14 16 17 15 4
16 18 19 17 4 18 20 21 19 4
20 22 23 21 4 22 24 25 23 4
24 26 27 25 4 26 28 29 27 4
28 30 31 29 4 30 32 33 31 4
32 34 35 33 4 34 36 37 35 4
36 38 39 37 4 38 40 41 39 4
40 42 43 41 4 42 44 45 43 4
44 46 47 45 4 46 48 49 47 4
48 50 51 49 4 50 52 53 51 4
52 54 55 53 4 54 56 57 55 4
56 58 59 57 4 58 60 61 59 4
62 63 64 65 4 63 66 67 64 4
66 68 69 67 4 68 70 71 69 4
70 72 73 71 4 72 74 75 73 4
74 76 77 75 4 76 78 79 77 4
78 80 81 79 4 80 82 83 81 4
82 84 85 83 4 84 86 87 85 4
86 88 89 87 4 88 90 91 89 4
90 92 93 91 4 92 94 95 93 4
94 96 97 95 4 96 98 99 97 4
98 100 101 99 4 100 102 103 101 4
102 104 105 103 4 104 106 107 105 4
106 108 109 107 4 108 110 111 109 4
110 112 113 111 4 112 114 115 113 4
114 116 117 115 4 116 118 119 117 4
118 120 121 119 4 120 122 123 121 4
122 124 125 123 4 124 126 127 125 4
126 128 129 127 4 128 130 131 129 4
130 132 133 131 4 132 134 135 133 4
134 136 137 135 4 136 138 139 137 4
138 140 141 139 4 140 142 143 141 4
142 144 145 143 4 144 146 147 145 4
146 148 149 147 4 148 150 151 149 4
150 152 153 151 4 152 154 155 153 4
154 156 157 155 4 156 158 159 157 4
158 160 161 159 4 160 162 163 161 4
162 164 165 163 4 164 166 167 165 4
166 168 169 167 4 168 170 171 169 4
170 172 173 171 4 172 174 175 173 4
174 176 177 175 4 176 178 179 177 4
178 180 181 179 4 180 0 3 181 
CELL_DATA 90
FIELD attributes 3
patchID 1 90 float
2 2 2 2 2 2 2 2 2 2 2
2 2 2 2 2 2 2 2 2 2
2 2 2 2 2 2 2 2 2 2
2 2 2 2 2 2 2 2 2 2
2 2 2 2 2 2 2 2 2 2
2 2 2 2 2 2 2 2 2 2
2 2 2 2 2 2 2 2 2 2
2 2 2 2 2 2 2 2 2 2
2 2 2 2 2 2 2 2 2 
p 1 90 float
0 0 0 0 0 0 0 0 0 0 0
0 0 0 0 0 0 0 0 0 0
0 0 0 0 0 0 0 0 0 0
0 0 0 0 0 0 0 0 0 0
0 0 0 0 0 0 0 0 0 0
0 0 0 0 0 0 0 0 0 0
0 0 0 0 0 0 0 0 0 0
0 0 0 0 0 0 0 0 0 0
0 0 0 0 0 0 0 0 0 
U 3 90 float
1.00913 0.00111191 0 1.00896 0.00109857 0 1.0088 0.00109537 0 1.00864 0.00108574
0 1.00848 0.00107229 0 1.00832 0.0010635 0 1.00817 0.00104478 0
1.00801 0.00103075 0 1.00786 0.00101043 0 1.00771 0.000989754 0 1.00757
0.000966494 0 1.00742 0.000940811 0 1.00728 0.000912844 0 1.00715 0.00088266
0 1.00702 0.000849631 0 1.0069 0.000814482 0 1.00678 0.000776547 0
1.00666 0.000735989 0 1.00655 0.000693045 0 1.00645 0.000647036 0 1.00635
0.000598608 0 1.00626 0.000547439 0 1.00618 0.000492942 0 1.00611 0.000436622
0 1.00604 0.000375952 0 1.00599 0.000314074 0 1.00594 0.000247873 0
1.0059 0.00017914 0 1.00587 0.000107514 0 1.00572 3.36193e-05 0 0.0544065
1.16499e-06 0 0.164562 8.26588e-06 0 0.276278 2.50332e-05 0 0.387331 5.23544e-05
0 0.495278 9.32702e-05 0 0.597532 0.000151265 0 0.69148 0.000228628 0
0.774649 0.000324618 0 0.844998 0.000433948 0 0.901305 0.000546925 0 0.943526
0.000651966 0 0.972914 0.000739446 0 0.991756 0.000804691 0 1.00282 0.000848494
0 1.00873 0.000875369 0 1.0116 0.000890968 0 1.01286 0.000900135 0
1.01336 0.000906115 0 1.01352 0.000910696 0 1.01355 0.000914703 0 1.01352
0.000918467 0 1.01348 0.000922115 0 1.01343 0.000925705 0 1.01337 0.00092928
0 1.01331 0.000932883 0 1.01324 0.000936558 0 1.01317 0.000940351 0
1.0131 0.000944307 0 1.01303 0.000948465 0 1.01296 0.000952864 0 1.01288
0.000957531 0 1.01281 0.000962483 0 1.01274 0.000967734 0 1.01266 0.000973281
0 1.01259 0.000979121 0 1.01252 0.000985244 0 1.01244 0.000991635 0
1.01237 0.000998277 0 1.01229 0.00100515 0 1.0122 0.00101223 0 1.01212
0.00101949 0 1.01202 0.0010269 0 1.01193 0.0010344 0 1.01182 0.00104198
0 1.01171 0.00104956 0 1.0116 0.00105714 0 1.01147 0.00106464 0
1.01134 0.00107199 0 1.01121 0.00107919 0 1.01106 0.00108622 0 1.01091
0.00109233 0 1.01075 0.00109954 0 1.01059 0.00110281 0 1.01042 0.00111109
0 1.01024 0.00111026 0 1.01006 0.00111781 0 1.00987 0.00111606 0
1.00969 0.00111615 0 1.00949 0.0011192 0 1.0093 0.0011071 0 
POINT_DATA  182
FIELD attributes 2
p 1 182 float
0 0 0 0 0 0 0 0 0 0 0
0 0 0 0 0 0 0 0 0 0
0 0 0 0 0 0 0 0 0 0
0 0 0 0 0 0 0 0 0 0
0 0 0 0 0 0 0 0 0 0
0 0 0 0 0 0 0 0 0 0
0 0 0 0 0 0 0 0 0 0
0 0 0 0 0 0 0 0 0 0
0 0 0 0 0 0 0 0 0 0
0 0 0 0 0 0 0 0 0 0
0 0 0 0 0 0 0 0 0 0
0 0 0 0 0 0 0 0 0 0
0 0 0 0 0 0 0 0 0 0
0 0 0 0 0 0 0 0 0 0
0 0 0 0 0 0 0 0 0 0
0 0 0 0 0 0 0 0 0 0
0 0 0 0 0 0 0 0 0 0
0 0 0 0 0 0 0 0 0 0
0 
U 3 182 float
1.00921 0.00110957 0 1.00905 0.00110529 0 1.00905 0.00110529 0 1.00921 0.00110957
0 1.00888 0.00109698 0 1.00888 0.00109698 0 1.00872 0.00109059 0
1.00872 0.00109059 0 1.00856 0.00107907 0 1.00856 0.00107907 0 1.0084
0.00106793 0 1.0084 0.00106793 0 1.00825 0.00105422 0 1.00825 0.00105422
0 1.00809 0.00103783 0 1.00809 0.00103783 0 1.00794 0.00102068 0
1.00794 0.00102068 0 1.00779 0.00100019 0 1.00779 0.00100019 0 1.00764
0.000978239 0 1.00764 0.000978239 0 1.0075 0.000953784 0 1.0075 0.000953784
0 1.00735 0.000926976 0 1.00735 0.000926976 0 1.00722 0.000897917 0
1.00722 0.000897917 0 1.00709 0.000866332 0 1.00709 0.000866332 0 1.00696
0.000832261 0 1.00696 0.000832261 0 1.00684 0.000795742 0 1.00684 0.000795742
0 1.00672 0.000756518 0 1.00672 0.000756518 0 1.00661 0.000714788 0
1.00661 0.000714788 0 1.0065 0.000670339 0 1.0065 0.000670339 0 1.0064
0.000623143 0 1.0064 0.000623143 0 1.00631 0.00057337 0 1.00631 0.00057337
0 1.00622 0.000520568 0 1.00622 0.000520568 0 1.00615 0.00046518 0
1.00615 0.00046518 0 1.00608 0.000406723 0 1.00608 0.000406723 0 1.00602
0.000345466 0 1.00602 0.000345466 0 1.00597 0.000281466 0 1.00597 0.000281466
0 1.00592 0.000214026 0 1.00592 0.000214026 0 1.00589 0.000143877 0
1.00589 0.000143877 0 1.0058 7.11418e-05 0 1.0058 7.11418e-05 0 1.00572
3.36193e-05 0 1.00572 3.36193e-05 0 0.0544065 1.16499e-06 0 0.109476 4.71492e-06
0 0.109476 4.71492e-06 0 0.0544065 1.16499e-06 0 0.220411 1.66482e-05 0
0.220411 1.66482e-05 0 0.331795 3.86915e-05 0 0.331795 3.86915e-05 0 0.441295
7.28086e-05 0 0.441295 7.28086e-05 0 0.546395 0.000122262 0 0.546395 0.000122262
0 0.644496 0.000189938 0 0.644496 0.000189938 0 0.733055 0.000276612 0
0.733055 0.000276612 0 0.809815 0.000379269 0 0.809815 0.000379269 0 0.873144
0.000490421 0 0.873144 0.000490421 0 0.922409 0.00059943 0 0.922409 0.00059943
0 0.958215 0.000695692 0 0.958215 0.000695692 0 0.982332 0.000772058 0
0.982332 0.000772058 0 0.997286 0.000826585 0 0.997286 0.000826585 0 1.00577
0.000861926 0 1.00577 0.000861926 0 1.01016 0.000883165 0 1.01016 0.000883165
0 1.01223 0.000895549 0 1.01223 0.000895549 0 1.01311 0.000903124 0
1.01311 0.000903124 0 1.01344 0.000908404 0 1.01344 0.000908404 0 1.01354
0.000912698 0 1.01354 0.000912698 0 1.01354 0.000916584 0 1.01354 0.000916584
0 1.0135 0.00092029 0 1.0135 0.00092029 0 1.01346 0.000923909 0
1.01346 0.000923909 0 1.0134 0.000927491 0 1.0134 0.000927491 0 1.01334
0.00093108 0 1.01334 0.00093108 0 1.01328 0.000934719 0 1.01328 0.000934719
0 1.01321 0.000938453 0 1.01321 0.000938453 0 1.01314 0.000942327 0
1.01314 0.000942327 0 1.01306 0.000946384 0 1.01306 0.000946384 0 1.013
0.000950662 0 1.013 0.000950662 0 1.01292 0.000955194 0 1.01292 0.000955194
0 1.01285 0.000960004 0 1.01285 0.000960004 0 1.01278 0.000965105 0
1.01278 0.000965105 0 1.0127 0.000970503 0 1.0127 0.000970503 0 1.01263
0.000976196 0 1.01263 0.000976196 0 1.01256 0.000982177 0 1.01256 0.000982177
0 1.01248 0.000988433 0 1.01248 0.000988433 0 1.01241 0.000994949 0
1.01241 0.000994949 0 1.01233 0.00100171 0 1.01233 0.00100171 0 1.01225
0.00100868 0 1.01225 0.00100868 0 1.01216 0.00101585 0 1.01216 0.00101585
0 1.01207 0.00102318 0 1.01207 0.00102318 0 1.01198 0.00103064 0
1.01198 0.00103064 0 1.01188 0.00103818 0 1.01188 0.00103818 0 1.01177
0.00104576 0 1.01177 0.00104576 0 1.01166 0.00105334 0 1.01166 0.00105334
0 1.01154 0.00106088 0 1.01154 0.00106088 0 1.01141 0.0010683 0
1.01141 0.0010683 0 1.01128 0.00107557 0 1.01128 0.00107557 0 1.01114
0.00108269 0 1.01114 0.00108269 0 1.01099 0.00108926 0 1.01099 0.00108926
0 1.01083 0.00109592 0 1.01083 0.00109592 0 1.01067 0.00110117 0
1.01067 0.00110117 0 1.01051 0.00110693 0 1.01051 0.00110693 0 1.01033
0.00111068 0 1.01033 0.00111068 0 1.01015 0.00111401 0 1.01015 0.00111401
0 1.00997 0.00111694 0 1.00997 0.00111694 0 1.00978 0.0011161 0
1.00978 0.0011161 0 1.00959 0.00111766 0 1.00959 0.00111766 0 1.0094
0.0011132 0 1.0094 0.0011132 0 
