# vtk DataFile Version 2.0
outlet
ASCII
DATASET POLYDATA
POINTS 182 float
0.1 0.02 0 0.1 0.0207299 0 0.1 0.0207299 0.001 0.1 0.02
0.001 0.1 0.021488 0 0.1 0.021488 0.001 0.1 0.0222754 0
0.1 0.0222754 0.001 0.1 0.0230932 0 0.1 0.0230932 0.001 0.1
0.0239425 0 0.1 0.0239425 0.001 0.1 0.0248247 0 0.1 0.0248247
0.001 0.1 0.0257409 0 0.1 0.0257409 0.001 0.1 0.0266925 0
0.1 0.0266925 0.001 0.1 0.0276808 0 0.1 0.0276808 0.001 0.1
0.0287073 0 0.1 0.0287073 0.001 0.1 0.0297734 0 0.1 0.0297734
0.001 0.1 0.0308807 0 0.1 0.0308807 0.001 0.1 0.0320307 0
0.1 0.0320307 0.001 0.1 0.0332251 0 0.1 0.0332251 0.001 0.1
0.0344656 0 0.1 0.0344656 0.001 0.1 0.0357541 0 0.1 0.0357541
0.001 0.1 0.0370923 0 0.1 0.0370923 0.001 0.1 0.0384821 0
0.1 0.0384821 0.001 0.1 0.0399257 0 0.1 0.0399257 0.001 0.1
0.0414249 0 0.1 0.0414249 0.001 0.1 0.042982 0 0.1 0.042982
0.001 0.1 0.0445993 0 0.1 0.0445993 0.001 0.1 0.046279 0
0.1 0.046279 0.001 0.1 0.0480236 0 0.1 0.0480236 0.001 0.1
0.0498355 0 0.1 0.0498355 0.001 0.1 0.0517173 0 0.1 0.0517173
0.001 0.1 0.0536719 0 0.1 0.0536719 0.001 0.1 0.0557019 0
0.1 0.0557019 0.001 0.1 0.0578102 0 0.1 0.0578102 0.001 0.1
0.06 0 0.1 0.06 0.001 0.1 0 0 0.1 8.46956e-05
0 0.1 8.46956e-05 0.001 0.1 0 0.001 0.1 0.000172762 0
0.1 0.000172762 0.001 0.1 0.000264333 0 0.1 0.000264333 0.001 0.1
0.000359549 0 0.1 0.000359549 0.001 0.1 0.000458554 0 0.1 0.000458554
0.001 0.1 0.0005615 0 0.1 0.0005615 0.001 0.1 0.000668542 0
0.1 0.000668542 0.001 0.1 0.000779845 0 0.1 0.000779845 0.001 0.1
0.000895577 0 0.1 0.000895577 0.001 0.1 0.00101591 0 0.1 0.00101591
0.001 0.1 0.00114104 0 0.1 0.00114104 0.001 0.1 0.00127115 0
0.1 0.00127115 0.001 0.1 0.00140644 0 0.1 0.00140644 0.001 0.1
0.0015471 0 0.1 0.0015471 0.001 0.1 0.00169337 0 0.1 0.00169337
0.001 0.1 0.00184546 0 0.1 0.00184546 0.001 0.1 0.0020036 0
0.1 0.0020036 0.001 0.1 0.00216804 0 0.1 0.00216804 0.001 0.1
0.00233902 0 0.1 0.00233902 0.001 0.1 0.00251681 0 0.1 0.00251681
0.001 0.1 0.00270167 0 0.1 0.00270167 0.001 0.1 0.00289388 0
0.1 0.00289388 0.001 0.1 0.00309375 0 0.1 0.00309375 0.001 0.1
0.00330157 0 0.1 0.00330157 0.001 0.1 0.00351767 0 0.1 0.00351767
0.001 0.1 0.00374236 0 0.1 0.00374236 0.001 0.1 0.00397599 0
0.1 0.00397599 0.001 0.1 0.00421893 0 0.1 0.00421893 0.001 0.1
0.00447153 0 0.1 0.00447153 0.001 0.1 0.00473419 0 0.1 0.00473419
0.001 0.1 0.0050073 0 0.1 0.0050073 0.001 0.1 0.00529127 0
0.1 0.00529127 0.001 0.1 0.00558655 0 0.1 0.00558655 0.001 0.1
0.00589359 0 0.1 0.00589359 0.001 0.1 0.00621284 0 0.1 0.00621284
0.001 0.1 0.00654479 0 0.1 0.00654479 0.001 0.1 0.00688996 0
0.1 0.00688996 0.001 0.1 0.00724887 0 0.1 0.00724887 0.001 0.1
0.00762206 0 0.1 0.00762206 0.001 0.1 0.0080101 0 0.1 0.0080101
0.001 0.1 0.00841358 0 0.1 0.00841358 0.001 0.1 0.00883312 0
0.1 0.00883312 0.001 0.1 0.00926936 0 0.1 0.00926936 0.001 0.1
0.00972297 0 0.1 0.00972297 0.001 0.1 0.0101946 0 0.1 0.0101946
0.001 0.1 0.010685 0 0.1 0.010685 0.001 0.1 0.011195 0
0.1 0.011195 0.001 0.1 0.0117252 0 0.1 0.0117252 0.001 0.1
0.0122766 0 0.1 0.0122766 0.001 0.1 0.0128499 0 0.1 0.0128499
0.001 0.1 0.013446 0 0.1 0.013446 0.001 0.1 0.0140658 0
0.1 0.0140658 0.001 0.1 0.0147103 0 0.1 0.0147103 0.001 0.1
0.0153804 0 0.1 0.0153804 0.001 0.1 0.0160772 0 0.1 0.0160772
0.001 0.1 0.0168018 0 0.1 0.0168018 0.001 0.1 0.0175551 0
0.1 0.0175551 0.001 0.1 0.0183385 0 0.1 0.0183385 0.001 0.1
0.019153 0 0.1 0.019153 0.001 
POLYGONS 90 450
4 0 1 2 3 4 1 4 5 2 4
4 6 7 5 4 6 8 9 7 4
8 10 11 9 4 10 12 13 11 4
12 14 15 13 4 14 16 17 15 4
16 18 19 17 4 18 20 21 19 4
20 22 23 21 4 22 24 25 23 4
24 26 27 25 4 26 28 29 27 4
28 30 31 29 4 30 32 33 31 4
32 34 35 33 4 34 36 37 35 4
36 38 39 37 4 38 40 41 39 4
40 42 43 41 4 42 44 45 43 4
44 46 47 45 4 46 48 49 47 4
48 50 51 49 4 50 52 53 51 4
52 54 55 53 4 54 56 57 55 4
56 58 59 57 4 58 60 61 59 4
62 63 64 65 4 63 66 67 64 4
66 68 69 67 4 68 70 71 69 4
70 72 73 71 4 72 74 75 73 4
74 76 77 75 4 76 78 79 77 4
78 80 81 79 4 80 82 83 81 4
82 84 85 83 4 84 86 87 85 4
86 88 89 87 4 88 90 91 89 4
90 92 93 91 4 92 94 95 93 4
94 96 97 95 4 96 98 99 97 4
98 100 101 99 4 100 102 103 101 4
102 104 105 103 4 104 106 107 105 4
106 108 109 107 4 108 110 111 109 4
110 112 113 111 4 112 114 115 113 4
114 116 117 115 4 116 118 119 117 4
118 120 121 119 4 120 122 123 121 4
122 124 125 123 4 124 126 127 125 4
126 128 129 127 4 128 130 131 129 4
130 132 133 131 4 132 134 135 133 4
134 136 137 135 4 136 138 139 137 4
138 140 141 139 4 140 142 143 141 4
142 144 145 143 4 144 146 147 145 4
146 148 149 147 4 148 150 151 149 4
150 152 153 151 4 152 154 155 153 4
154 156 157 155 4 156 158 159 157 4
158 160 161 159 4 160 162 163 161 4
162 164 165 163 4 164 166 167 165 4
166 168 169 167 4 168 170 171 169 4
170 172 173 171 4 172 174 175 173 4
174 176 177 175 4 176 178 179 177 4
178 180 181 179 4 180 0 3 181 
CELL_DATA 90
FIELD attributes 3
patchID 1 90 float
2 2 2 2 2 2 2 2 2 2 2
2 2 2 2 2 2 2 2 2 2
2 2 2 2 2 2 2 2 2 2
2 2 2 2 2 2 2 2 2 2
2 2 2 2 2 2 2 2 2 2
2 2 2 2 2 2 2 2 2 2
2 2 2 2 2 2 2 2 2 2
2 2 2 2 2 2 2 2 2 2
2 2 2 2 2 2 2 2 2 
p 1 90 float
0 0 0 0 0 0 0 0 0 0 0
0 0 0 0 0 0 0 0 0 0
0 0 0 0 0 0 0 0 0 0
0 0 0 0 0 0 0 0 0 0
0 0 0 0 0 0 0 0 0 0
0 0 0 0 0 0 0 0 0 0
0 0 0 0 0 0 0 0 0 0
0 0 0 0 0 0 0 0 0 0
0 0 0 0 0 0 0 0 0 
U 3 90 float
1.01037 0.0017728 0 1.01001 0.00179435 0 1.00967 0.00173916 0 1.00933 0.00171253
0 1.00902 0.00168041 0 1.00874 0.0016393 0 1.00847 0.00160212 0
1.00823 0.00156391 0 1.00801 0.00152068 0 1.00781 0.00147787 0 1.00763
0.00143506 0 1.00747 0.00138762 0 1.00732 0.0013354 0 1.00718 0.00128357
0 1.00706 0.00122803 0 1.00694 0.00116829 0 1.00684 0.00110973 0
1.00674 0.0010503 0 1.00665 0.000987145 0 1.00656 0.000920576 0 1.00649
0.000851668 0 1.00642 0.000777933 0 1.00635 0.000698941 0 1.0063 0.000617716
0 1.00625 0.000532397 0 1.0062 0.000443327 0 1.00617 0.000351162 0
1.00614 0.000253861 0 1.00612 0.000152237 0 1.00601 5.0204e-05 0 0.047315
3.86669e-06 0 0.143555 2.93555e-05 0 0.242612 8.95223e-05 0 0.343506 0.000183004
0 0.444772 0.000312643 0 0.5444 0.000480351 0 0.63982 0.00068414 0
0.728039 0.000916387 0 0.80601 0.0011632 0 0.871217 0.00140591 0 0.922307
0.00162505 0 0.959479 0.00180552 0 0.984405 0.0019404 0 0.999721 0.00203166
0 1.0083 0.00208756 0 1.01268 0.0021187 0 1.01469 0.00213467 0
1.01552 0.00214242 0 1.01582 0.00214614 0 1.0159 0.00214801 0 1.0159
0.00214901 0 1.01586 0.00214953 0 1.01581 0.00214971 0 1.01576 0.0021496
0 1.01569 0.00214921 0 1.01563 0.00214853 0 1.01556 0.00214758 0
1.01549 0.00214633 0 1.01542 0.00214477 0 1.01536 0.00214294 0 1.01529
0.00214078 0 1.01523 0.00213827 0 1.01517 0.00213548 0 1.01511 0.00213236
0 1.01505 0.00212876 0 1.01499 0.00212488 0 1.01494 0.00212072 0
1.01489 0.0021159 0 1.01483 0.00211071 0 1.01477 0.00210534 0 1.01471
0.00209921 0 1.01464 0.00209244 0 1.01456 0.0020854 0 1.01448 0.00207794
0 1.01438 0.00206972 0 1.01427 0.00206012 0 1.01415 0.0020508 0
1.01402 0.00204189 0 1.01387 0.00203146 0 1.0137 0.00200884 0 1.01351
0.00202753 0 1.0133 0.00195571 0 1.01306 0.0020262 0 1.0128 0.00191412
0 1.01253 0.00197918 0 1.01222 0.00191374 0 1.0119 0.00189545 0
1.01155 0.00191831 0 1.01117 0.00180897 0 1.01076 0.00188383 0 
POINT_DATA  182
FIELD attributes 2
p 1 182 float
0 0 0 0 0 0 0 0 0 0 0
0 0 0 0 0 0 0 0 0 0
0 0 0 0 0 0 0 0 0 0
0 0 0 0 0 0 0 0 0 0
0 0 0 0 0 0 0 0 0 0
0 0 0 0 0 0 0 0 0 0
0 0 0 0 0 0 0 0 0 0
0 0 0 0 0 0 0 0 0 0
0 0 0 0 0 0 0 0 0 0
0 0 0 0 0 0 0 0 0 0
0 0 0 0 0 0 0 0 0 0
0 0 0 0 0 0 0 0 0 0
0 0 0 0 0 0 0 0 0 0
0 0 0 0 0 0 0 0 0 0
0 0 0 0 0 0 0 0 0 0
0 0 0 0 0 0 0 0 0 0
0 0 0 0 0 0 0 0 0 0
0 0 0 0 0 0 0 0 0 0
0 
U 3 182 float
1.01056 0.00182674 0 1.01019 0.0017835 0 1.01019 0.0017835 0 1.01056 0.00182674
0 1.00984 0.00176695 0 1.00984 0.00176695 0 1.0095 0.00172594 0
1.0095 0.00172594 0 1.00918 0.00169659 0 1.00918 0.00169659 0 1.00888
0.00166002 0 1.00888 0.00166002 0 1.00861 0.00162087 0 1.00861 0.00162087
0 1.00835 0.00158318 0 1.00835 0.00158318 0 1.00812 0.00154249 0
1.00812 0.00154249 0 1.00791 0.00149948 0 1.00791 0.00149948 0 1.00772
0.00145668 0 1.00772 0.00145668 0 1.00755 0.00141158 0 1.00755 0.00141158
0 1.0074 0.00136179 0 1.0074 0.00136179 0 1.00725 0.00130977 0
1.00725 0.00130977 0 1.00712 0.00125611 0 1.00712 0.00125611 0 1.007
0.00119851 0 1.007 0.00119851 0 1.00689 0.00113936 0 1.00689 0.00113936
0 1.00679 0.00108038 0 1.00679 0.00108038 0 1.0067 0.00101912 0
1.0067 0.00101912 0 1.00661 0.000954292 0 1.00661 0.000954292 0 1.00653
0.000886579 0 1.00653 0.000886579 0 1.00646 0.0008153 0 1.00646 0.0008153
0 1.00639 0.000738984 0 1.00639 0.000738984 0 1.00633 0.000658902 0
1.00633 0.000658902 0 1.00628 0.00057567 0 1.00628 0.00057567 0 1.00623
0.000488514 0 1.00623 0.000488514 0 1.00619 0.000397931 0 1.00619 0.000397931
0 1.00616 0.000303247 0 1.00616 0.000303247 0 1.00613 0.000203829 0
1.00613 0.000203829 0 1.00607 0.000102015 0 1.00607 0.000102015 0 1.00601
5.0204e-05 0 1.00601 5.0204e-05 0 0.047315 3.86669e-06 0 0.095428 1.66093e-05
0 0.095428 1.66093e-05 0 0.047315 3.86669e-06 0 0.193076 5.94342e-05 0
0.193076 5.94342e-05 0 0.29305 0.000136255 0 0.29305 0.000136255 0 0.39413
0.000247812 0 0.39413 0.000247812 0 0.494576 0.00039648 0 0.494576 0.00039648
0 0.5921 0.000582224 0 0.5921 0.000582224 0 0.683919 0.000800237 0
0.683919 0.000800237 0 0.767015 0.00103976 0 0.767015 0.00103976 0 0.838605
0.00128452 0 0.838605 0.00128452 0 0.896755 0.00151545 0 0.896755 0.00151545
0 0.940887 0.00171526 0 0.940887 0.00171526 0 0.971938 0.00187294 0
0.971938 0.00187294 0 0.99206 0.00198601 0 0.99206 0.00198601 0 1.00401
0.0020596 0 1.00401 0.0020596 0 1.01049 0.00210312 0 1.01049 0.00210312
0 1.01368 0.00212668 0 1.01368 0.00212668 0 1.0151 0.00213854 0
1.0151 0.00213854 0 1.01567 0.00214428 0 1.01567 0.00214428 0 1.01586
0.00214707 0 1.01586 0.00214707 0 1.0159 0.00214851 0 1.0159 0.00214851
0 1.01588 0.00214927 0 1.01588 0.00214927 0 1.01584 0.00214962 0
1.01584 0.00214962 0 1.01578 0.00214966 0 1.01578 0.00214966 0 1.01573
0.00214941 0 1.01573 0.00214941 0 1.01566 0.00214887 0 1.01566 0.00214887
0 1.0156 0.00214806 0 1.0156 0.00214806 0 1.01552 0.00214696 0
1.01552 0.00214696 0 1.01546 0.00214555 0 1.01546 0.00214555 0 1.01539
0.00214386 0 1.01539 0.00214386 0 1.01533 0.00214186 0 1.01533 0.00214186
0 1.01526 0.00213953 0 1.01526 0.00213953 0 1.0152 0.00213688 0
1.0152 0.00213688 0 1.01514 0.00213392 0 1.01514 0.00213392 0 1.01508
0.00213056 0 1.01508 0.00213056 0 1.01502 0.00212682 0 1.01502 0.00212682
0 1.01497 0.0021228 0 1.01497 0.0021228 0 1.01492 0.00211832 0
1.01492 0.00211832 0 1.01486 0.00211331 0 1.01486 0.00211331 0 1.0148
0.00210803 0 1.0148 0.00210803 0 1.01474 0.00210228 0 1.01474 0.00210228
0 1.01468 0.00209583 0 1.01468 0.00209583 0 1.0146 0.00208893 0
1.0146 0.00208893 0 1.01452 0.00208168 0 1.01452 0.00208168 0 1.01443
0.00207384 0 1.01443 0.00207384 0 1.01433 0.00206494 0 1.01433 0.00206494
0 1.01421 0.00205548 0 1.01421 0.00205548 0 1.01409 0.00204636 0
1.01409 0.00204636 0 1.01395 0.0020367 0 1.01395 0.0020367 0 1.01379
0.0020202 0 1.01379 0.0020202 0 1.01361 0.00201814 0 1.01361 0.00201814
0 1.01341 0.00199181 0 1.01341 0.00199181 0 1.01318 0.00199076 0
1.01318 0.00199076 0 1.01293 0.00197049 0 1.01293 0.00197049 0 1.01267
0.00194645 0 1.01267 0.00194645 0 1.01238 0.00194667 0 1.01238 0.00194667
0 1.01206 0.00190466 0 1.01206 0.00190466 0 1.01173 0.0019068 0
1.01173 0.0019068 0 1.01136 0.00186406 0 1.01136 0.00186406 0 1.01097
0.0018461 0 1.01097 0.0018461 0 
