# vtk DataFile Version 2.0
outlet
ASCII
DATASET POLYDATA
POINTS 182 float
0.1 0.02 0 0.1 0.0207299 0 0.1 0.0207299 0.001 0.1 0.02
0.001 0.1 0.021488 0 0.1 0.021488 0.001 0.1 0.0222754 0
0.1 0.0222754 0.001 0.1 0.0230932 0 0.1 0.0230932 0.001 0.1
0.0239425 0 0.1 0.0239425 0.001 0.1 0.0248247 0 0.1 0.0248247
0.001 0.1 0.0257409 0 0.1 0.0257409 0.001 0.1 0.0266925 0
0.1 0.0266925 0.001 0.1 0.0276808 0 0.1 0.0276808 0.001 0.1
0.0287073 0 0.1 0.0287073 0.001 0.1 0.0297734 0 0.1 0.0297734
0.001 0.1 0.0308807 0 0.1 0.0308807 0.001 0.1 0.0320307 0
0.1 0.0320307 0.001 0.1 0.0332251 0 0.1 0.0332251 0.001 0.1
0.0344656 0 0.1 0.0344656 0.001 0.1 0.0357541 0 0.1 0.0357541
0.001 0.1 0.0370923 0 0.1 0.0370923 0.001 0.1 0.0384821 0
0.1 0.0384821 0.001 0.1 0.0399257 0 0.1 0.0399257 0.001 0.1
0.0414249 0 0.1 0.0414249 0.001 0.1 0.042982 0 0.1 0.042982
0.001 0.1 0.0445993 0 0.1 0.0445993 0.001 0.1 0.046279 0
0.1 0.046279 0.001 0.1 0.0480236 0 0.1 0.0480236 0.001 0.1
0.0498355 0 0.1 0.0498355 0.001 0.1 0.0517173 0 0.1 0.0517173
0.001 0.1 0.0536719 0 0.1 0.0536719 0.001 0.1 0.0557019 0
0.1 0.0557019 0.001 0.1 0.0578102 0 0.1 0.0578102 0.001 0.1
0.06 0 0.1 0.06 0.001 0.1 0 0 0.1 8.46956e-05
0 0.1 8.46956e-05 0.001 0.1 0 0.001 0.1 0.000172762 0
0.1 0.000172762 0.001 0.1 0.000264333 0 0.1 0.000264333 0.001 0.1
0.000359549 0 0.1 0.000359549 0.001 0.1 0.000458554 0 0.1 0.000458554
0.001 0.1 0.0005615 0 0.1 0.0005615 0.001 0.1 0.000668542 0
0.1 0.000668542 0.001 0.1 0.000779845 0 0.1 0.000779845 0.001 0.1
0.000895577 0 0.1 0.000895577 0.001 0.1 0.00101591 0 0.1 0.00101591
0.001 0.1 0.00114104 0 0.1 0.00114104 0.001 0.1 0.00127115 0
0.1 0.00127115 0.001 0.1 0.00140644 0 0.1 0.00140644 0.001 0.1
0.0015471 0 0.1 0.0015471 0.001 0.1 0.00169337 0 0.1 0.00169337
0.001 0.1 0.00184546 0 0.1 0.00184546 0.001 0.1 0.0020036 0
0.1 0.0020036 0.001 0.1 0.00216804 0 0.1 0.00216804 0.001 0.1
0.00233902 0 0.1 0.00233902 0.001 0.1 0.00251681 0 0.1 0.00251681
0.001 0.1 0.00270167 0 0.1 0.00270167 0.001 0.1 0.00289388 0
0.1 0.00289388 0.001 0.1 0.00309375 0 0.1 0.00309375 0.001 0.1
0.00330157 0 0.1 0.00330157 0.001 0.1 0.00351767 0 0.1 0.00351767
0.001 0.1 0.00374236 0 0.1 0.00374236 0.001 0.1 0.00397599 0
0.1 0.00397599 0.001 0.1 0.00421893 0 0.1 0.00421893 0.001 0.1
0.00447153 0 0.1 0.00447153 0.001 0.1 0.00473419 0 0.1 0.00473419
0.001 0.1 0.0050073 0 0.1 0.0050073 0.001 0.1 0.00529127 0
0.1 0.00529127 0.001 0.1 0.00558655 0 0.1 0.00558655 0.001 0.1
0.00589359 0 0.1 0.00589359 0.001 0.1 0.00621284 0 0.1 0.00621284
0.001 0.1 0.00654479 0 0.1 0.00654479 0.001 0.1 0.00688996 0
0.1 0.00688996 0.001 0.1 0.00724887 0 0.1 0.00724887 0.001 0.1
0.00762206 0 0.1 0.00762206 0.001 0.1 0.0080101 0 0.1 0.0080101
0.001 0.1 0.00841358 0 0.1 0.00841358 0.001 0.1 0.00883312 0
0.1 0.00883312 0.001 0.1 0.00926936 0 0.1 0.00926936 0.001 0.1
0.00972297 0 0.1 0.00972297 0.001 0.1 0.0101946 0 0.1 0.0101946
0.001 0.1 0.010685 0 0.1 0.010685 0.001 0.1 0.011195 0
0.1 0.011195 0.001 0.1 0.0117252 0 0.1 0.0117252 0.001 0.1
0.0122766 0 0.1 0.0122766 0.001 0.1 0.0128499 0 0.1 0.0128499
0.001 0.1 0.013446 0 0.1 0.013446 0.001 0.1 0.0140658 0
0.1 0.0140658 0.001 0.1 0.0147103 0 0.1 0.0147103 0.001 0.1
0.0153804 0 0.1 0.0153804 0.001 0.1 0.0160772 0 0.1 0.0160772
0.001 0.1 0.0168018 0 0.1 0.0168018 0.001 0.1 0.0175551 0
0.1 0.0175551 0.001 0.1 0.0183385 0 0.1 0.0183385 0.001 0.1
0.019153 0 0.1 0.019153 0.001 
POLYGONS 90 450
4 0 1 2 3 4 1 4 5 2 4
4 6 7 5 4 6 8 9 7 4
8 10 11 9 4 10 12 13 11 4
12 14 15 13 4 14 16 17 15 4
16 18 19 17 4 18 20 21 19 4
20 22 23 21 4 22 24 25 23 4
24 26 27 25 4 26 28 29 27 4
28 30 31 29 4 30 32 33 31 4
32 34 35 33 4 34 36 37 35 4
36 38 39 37 4 38 40 41 39 4
40 42 43 41 4 42 44 45 43 4
44 46 47 45 4 46 48 49 47 4
48 50 51 49 4 50 52 53 51 4
52 54 55 53 4 54 56 57 55 4
56 58 59 57 4 58 60 61 59 4
62 63 64 65 4 63 66 67 64 4
66 68 69 67 4 68 70 71 69 4
70 72 73 71 4 72 74 75 73 4
74 76 77 75 4 76 78 79 77 4
78 80 81 79 4 80 82 83 81 4
82 84 85 83 4 84 86 87 85 4
86 88 89 87 4 88 90 91 89 4
90 92 93 91 4 92 94 95 93 4
94 96 97 95 4 96 98 99 97 4
98 100 101 99 4 100 102 103 101 4
102 104 105 103 4 104 106 107 105 4
106 108 109 107 4 108 110 111 109 4
110 112 113 111 4 112 114 115 113 4
114 116 117 115 4 116 118 119 117 4
118 120 121 119 4 120 122 123 121 4
122 124 125 123 4 124 126 127 125 4
126 128 129 127 4 128 130 131 129 4
130 132 133 131 4 132 134 135 133 4
134 136 137 135 4 136 138 139 137 4
138 140 141 139 4 140 142 143 141 4
142 144 145 143 4 144 146 147 145 4
146 148 149 147 4 148 150 151 149 4
150 152 153 151 4 152 154 155 153 4
154 156 157 155 4 156 158 159 157 4
158 160 161 159 4 160 162 163 161 4
162 164 165 163 4 164 166 167 165 4
166 168 169 167 4 168 170 171 169 4
170 172 173 171 4 172 174 175 173 4
174 176 177 175 4 176 178 179 177 4
178 180 181 179 4 180 0 3 181 
CELL_DATA 90
FIELD attributes 3
patchID 1 90 float
2 2 2 2 2 2 2 2 2 2 2
2 2 2 2 2 2 2 2 2 2
2 2 2 2 2 2 2 2 2 2
2 2 2 2 2 2 2 2 2 2
2 2 2 2 2 2 2 2 2 2
2 2 2 2 2 2 2 2 2 2
2 2 2 2 2 2 2 2 2 2
2 2 2 2 2 2 2 2 2 2
2 2 2 2 2 2 2 2 2 
p 1 90 float
0 0 0 0 0 0 0 0 0 0 0
0 0 0 0 0 0 0 0 0 0
0 0 0 0 0 0 0 0 0 0
0 0 0 0 0 0 0 0 0 0
0 0 0 0 0 0 0 0 0 0
0 0 0 0 0 0 0 0 0 0
0 0 0 0 0 0 0 0 0 0
0 0 0 0 0 0 0 0 0 0
0 0 0 0 0 0 0 0 0 
U 3 90 float
1.01013 0.00194709 0 1.00975 0.0019566 0 1.00941 0.00190141 0 1.0091 0.00186829
0 1.00882 0.00183255 0 1.00857 0.00179187 0 1.00834 0.00175012 0
1.00812 0.00170656 0 1.00793 0.00166148 0 1.00775 0.00161462 0 1.00759
0.00156531 0 1.00743 0.00151337 0 1.0073 0.00145922 0 1.00717 0.00140241
0 1.00705 0.00134281 0 1.00694 0.00128033 0 1.00683 0.00121498 0
1.00674 0.0011468 0 1.00665 0.00107547 0 1.00657 0.00100093 0 1.00649
0.00092302 0 1.00642 0.00084176 0 1.00635 0.00075704 0 1.0063 0.000668418
0 1.00625 0.000575788 0 1.0062 0.000479735 0 1.00616 0.000379375 0
1.00613 0.000274722 0 1.00611 0.000164979 0 1.00601 5.42056e-05 0 0.0457869
4.98885e-06 0 0.139071 3.99509e-05 0 0.235536 0.000123433 0 0.334441 0.000252155
0 0.43449 0.000427376 0 0.533731 0.000648536 0 0.629536 0.000910163 0
0.718767 0.00120069 0 0.798179 0.00150243 0 0.865036 0.00179361 0 0.917769
0.00205264 0 0.956396 0.00226345 0 0.982481 0.00241931 0 0.998624 0.0025233
0 1.00774 0.00258542 0 1.01241 0.00261821 0 1.01458 0.00263296 0
1.01549 0.00263788 0 1.01582 0.00263795 0 1.01591 0.00263577 0 1.01591
0.0026325 0 1.01588 0.00262861 0 1.01584 0.00262424 0 1.01578 0.00261945
0 1.01573 0.00261424 0 1.01567 0.00260862 0 1.0156 0.00260257 0
1.01554 0.0025961 0 1.01547 0.00258918 0 1.01541 0.00258181 0 1.01535
0.00257398 0 1.01529 0.00256567 0 1.01523 0.00255686 0 1.01518 0.00254752
0 1.01513 0.00253763 0 1.01508 0.0025272 0 1.01503 0.00251618 0
1.01498 0.00250453 0 1.01493 0.00249224 0 1.01488 0.00247925 0 1.01482
0.00246564 0 1.01476 0.00245125 0 1.01468 0.00243609 0 1.0146 0.00242008
0 1.01451 0.00240318 0 1.01441 0.00238555 0 1.0143 0.00236704 0
1.01417 0.00234804 0 1.01402 0.00232818 0 1.01385 0.00229667 0 1.01367
0.0023029 0 1.01346 0.00222379 0 1.01323 0.00227919 0 1.01296 0.00216095
0 1.01267 0.00221031 0 1.01235 0.00213668 0 1.01198 0.00210606 0
1.01158 0.00211712 0 1.01112 0.00200089 0 1.01059 0.00205851 0 
POINT_DATA  182
FIELD attributes 2
p 1 182 float
0 0 0 0 0 0 0 0 0 0 0
0 0 0 0 0 0 0 0 0 0
0 0 0 0 0 0 0 0 0 0
0 0 0 0 0 0 0 0 0 0
0 0 0 0 0 0 0 0 0 0
0 0 0 0 0 0 0 0 0 0
0 0 0 0 0 0 0 0 0 0
0 0 0 0 0 0 0 0 0 0
0 0 0 0 0 0 0 0 0 0
0 0 0 0 0 0 0 0 0 0
0 0 0 0 0 0 0 0 0 0
0 0 0 0 0 0 0 0 0 0
0 0 0 0 0 0 0 0 0 0
0 0 0 0 0 0 0 0 0 0
0 0 0 0 0 0 0 0 0 0
0 0 0 0 0 0 0 0 0 0
0 0 0 0 0 0 0 0 0 0
0 0 0 0 0 0 0 0 0 0
0 
U 3 182 float
1.01035 0.00200122 0 1.00994 0.00195181 0 1.00994 0.00195181 0 1.01035 0.00200122
0 1.00958 0.0019292 0 1.00958 0.0019292 0 1.00926 0.00188497 0
1.00926 0.00188497 0 1.00896 0.00185056 0 1.00896 0.00185056 0 1.0087
0.00181238 0 1.0087 0.00181238 0 1.00846 0.00177117 0 1.00846 0.00177117
0 1.00823 0.00172853 0 1.00823 0.00172853 0 1.00803 0.00168423 0
1.00803 0.00168423 0 1.00784 0.00163827 0 1.00784 0.00163827 0 1.00767
0.00159021 0 1.00767 0.00159021 0 1.00751 0.00153961 0 1.00751 0.00153961
0 1.00737 0.00148658 0 1.00737 0.00148658 0 1.00724 0.00143113 0
1.00724 0.00143113 0 1.00711 0.00137295 0 1.00711 0.00137295 0 1.007
0.00131193 0 1.007 0.00131193 0 1.00689 0.00124805 0 1.00689 0.00124805
0 1.00679 0.00118131 0 1.00679 0.00118131 0 1.0067 0.00111159 0
1.0067 0.00111159 0 1.00661 0.00103868 0 1.00661 0.00103868 0 1.00653
0.000962492 0 1.00653 0.000962492 0 1.00646 0.000882941 0 1.00646 0.000882941
0 1.00639 0.000799986 0 1.00639 0.000799986 0 1.00633 0.000713355 0
1.00633 0.000713355 0 1.00628 0.000622769 0 1.00628 0.000622769 0 1.00623
0.000528465 0 1.00623 0.000528465 0 1.00618 0.000430302 0 1.00618 0.000430302
0 1.00615 0.00032784 0 1.00615 0.00032784 0 1.00612 0.000220693 0
1.00612 0.000220693 0 1.00606 0.000110455 0 1.00606 0.000110455 0 1.00601
5.42056e-05 0 1.00601 5.42056e-05 0 0.0457869 4.98885e-06 0 0.0924222 2.24673e-05
0 0.0924222 2.24673e-05 0 0.0457869 4.98885e-06 0 0.187296 8.16854e-05 0
0.187296 8.16854e-05 0 0.28498 0.000187783 0 0.28498 0.000187783 0 0.384456
0.00033975 0 0.384456 0.00033975 0 0.484101 0.000537934 0 0.484101 0.000537934
0 0.581623 0.000779322 0 0.581623 0.000779322 0 0.674141 0.00105539 0
0.674141 0.00105539 0 0.758463 0.00135152 0 0.758463 0.00135152 0 0.831599
0.00164798 0 0.831599 0.00164798 0 0.891395 0.00192309 0 0.891395 0.00192309
0 0.937076 0.00215801 0 0.937076 0.00215801 0 0.969434 0.00234135 0
0.969434 0.00234135 0 0.99055 0.00247129 0 0.99055 0.00247129 0 1.00318
0.00255435 0 1.00318 0.00255435 0 1.01007 0.00260181 0 1.01007 0.00260181
0 1.01349 0.00262558 0 1.01349 0.00262558 0 1.01503 0.00263542 0
1.01503 0.00263542 0 1.01565 0.00263792 0 1.01565 0.00263792 0 1.01586
0.00263686 0 1.01586 0.00263686 0 1.01591 0.00263414 0 1.01591 0.00263414
0 1.0159 0.00263056 0 1.0159 0.00263056 0 1.01586 0.00262643 0
1.01586 0.00262643 0 1.01581 0.00262185 0 1.01581 0.00262185 0 1.01576
0.00261685 0 1.01576 0.00261685 0 1.0157 0.00261143 0 1.0157 0.00261143
0 1.01564 0.0026056 0 1.01564 0.0026056 0 1.01557 0.00259934 0
1.01557 0.00259934 0 1.01551 0.00259264 0 1.01551 0.00259264 0 1.01544
0.0025855 0 1.01544 0.0025855 0 1.01538 0.0025779 0 1.01538 0.0025779
0 1.01532 0.00256983 0 1.01532 0.00256983 0 1.01526 0.00256127 0
1.01526 0.00256127 0 1.01521 0.0025522 0 1.01521 0.0025522 0 1.01516
0.00254258 0 1.01516 0.00254258 0 1.01511 0.00253242 0 1.01511 0.00253242
0 1.01506 0.0025217 0 1.01506 0.0025217 0 1.01501 0.00251037 0
1.01501 0.00251037 0 1.01496 0.0024984 0 1.01496 0.0024984 0 1.01491
0.00248576 0 1.01491 0.00248576 0 1.01485 0.00247246 0 1.01485 0.00247246
0 1.01479 0.00245847 0 1.01479 0.00245847 0 1.01472 0.00244369 0
1.01472 0.00244369 0 1.01464 0.00242811 0 1.01464 0.00242811 0 1.01456
0.00241166 0 1.01456 0.00241166 0 1.01446 0.0023944 0 1.01446 0.0023944
0 1.01436 0.00237633 0 1.01436 0.00237633 0 1.01424 0.00235758 0
1.01424 0.00235758 0 1.0141 0.00233815 0 1.0141 0.00233815 0 1.01394
0.0023125 0 1.01394 0.0023125 0 1.01376 0.00229977 0 1.01376 0.00229977
0 1.01357 0.00226355 0 1.01357 0.00226355 0 1.01335 0.00225134 0
1.01335 0.00225134 0 1.0131 0.00222042 0 1.0131 0.00222042 0 1.01282
0.00218548 0 1.01282 0.00218548 0 1.01251 0.00217374 0 1.01251 0.00217374
0 1.01217 0.00212148 0 1.01217 0.00212148 0 1.01178 0.00211155 0
1.01178 0.00211155 0 1.01135 0.00205945 0 1.01135 0.00205945 0 1.01086
0.00202947 0 1.01086 0.00202947 0 
