# vtk DataFile Version 2.0
outlet
ASCII
DATASET POLYDATA
POINTS 182 float
0.1 0.02 0 0.1 0.0207299 0 0.1 0.0207299 0.001 0.1 0.02
0.001 0.1 0.021488 0 0.1 0.021488 0.001 0.1 0.0222754 0
0.1 0.0222754 0.001 0.1 0.0230932 0 0.1 0.0230932 0.001 0.1
0.0239425 0 0.1 0.0239425 0.001 0.1 0.0248247 0 0.1 0.0248247
0.001 0.1 0.0257409 0 0.1 0.0257409 0.001 0.1 0.0266925 0
0.1 0.0266925 0.001 0.1 0.0276808 0 0.1 0.0276808 0.001 0.1
0.0287073 0 0.1 0.0287073 0.001 0.1 0.0297734 0 0.1 0.0297734
0.001 0.1 0.0308807 0 0.1 0.0308807 0.001 0.1 0.0320307 0
0.1 0.0320307 0.001 0.1 0.0332251 0 0.1 0.0332251 0.001 0.1
0.0344656 0 0.1 0.0344656 0.001 0.1 0.0357541 0 0.1 0.0357541
0.001 0.1 0.0370923 0 0.1 0.0370923 0.001 0.1 0.0384821 0
0.1 0.0384821 0.001 0.1 0.0399257 0 0.1 0.0399257 0.001 0.1
0.0414249 0 0.1 0.0414249 0.001 0.1 0.042982 0 0.1 0.042982
0.001 0.1 0.0445993 0 0.1 0.0445993 0.001 0.1 0.046279 0
0.1 0.046279 0.001 0.1 0.0480236 0 0.1 0.0480236 0.001 0.1
0.0498355 0 0.1 0.0498355 0.001 0.1 0.0517173 0 0.1 0.0517173
0.001 0.1 0.0536719 0 0.1 0.0536719 0.001 0.1 0.0557019 0
0.1 0.0557019 0.001 0.1 0.0578102 0 0.1 0.0578102 0.001 0.1
0.06 0 0.1 0.06 0.001 0.1 0 0 0.1 8.46956e-05
0 0.1 8.46956e-05 0.001 0.1 0 0.001 0.1 0.000172762 0
0.1 0.000172762 0.001 0.1 0.000264333 0 0.1 0.000264333 0.001 0.1
0.000359549 0 0.1 0.000359549 0.001 0.1 0.000458554 0 0.1 0.000458554
0.001 0.1 0.0005615 0 0.1 0.0005615 0.001 0.1 0.000668542 0
0.1 0.000668542 0.001 0.1 0.000779845 0 0.1 0.000779845 0.001 0.1
0.000895577 0 0.1 0.000895577 0.001 0.1 0.00101591 0 0.1 0.00101591
0.001 0.1 0.00114104 0 0.1 0.00114104 0.001 0.1 0.00127115 0
0.1 0.00127115 0.001 0.1 0.00140644 0 0.1 0.00140644 0.001 0.1
0.0015471 0 0.1 0.0015471 0.001 0.1 0.00169337 0 0.1 0.00169337
0.001 0.1 0.00184546 0 0.1 0.00184546 0.001 0.1 0.0020036 0
0.1 0.0020036 0.001 0.1 0.00216804 0 0.1 0.00216804 0.001 0.1
0.00233902 0 0.1 0.00233902 0.001 0.1 0.00251681 0 0.1 0.00251681
0.001 0.1 0.00270167 0 0.1 0.00270167 0.001 0.1 0.00289388 0
0.1 0.00289388 0.001 0.1 0.00309375 0 0.1 0.00309375 0.001 0.1
0.00330157 0 0.1 0.00330157 0.001 0.1 0.00351767 0 0.1 0.00351767
0.001 0.1 0.00374236 0 0.1 0.00374236 0.001 0.1 0.00397599 0
0.1 0.00397599 0.001 0.1 0.00421893 0 0.1 0.00421893 0.001 0.1
0.00447153 0 0.1 0.00447153 0.001 0.1 0.00473419 0 0.1 0.00473419
0.001 0.1 0.0050073 0 0.1 0.0050073 0.001 0.1 0.00529127 0
0.1 0.00529127 0.001 0.1 0.00558655 0 0.1 0.00558655 0.001 0.1
0.00589359 0 0.1 0.00589359 0.001 0.1 0.00621284 0 0.1 0.00621284
0.001 0.1 0.00654479 0 0.1 0.00654479 0.001 0.1 0.00688996 0
0.1 0.00688996 0.001 0.1 0.00724887 0 0.1 0.00724887 0.001 0.1
0.00762206 0 0.1 0.00762206 0.001 0.1 0.0080101 0 0.1 0.0080101
0.001 0.1 0.00841358 0 0.1 0.00841358 0.001 0.1 0.00883312 0
0.1 0.00883312 0.001 0.1 0.00926936 0 0.1 0.00926936 0.001 0.1
0.00972297 0 0.1 0.00972297 0.001 0.1 0.0101946 0 0.1 0.0101946
0.001 0.1 0.010685 0 0.1 0.010685 0.001 0.1 0.011195 0
0.1 0.011195 0.001 0.1 0.0117252 0 0.1 0.0117252 0.001 0.1
0.0122766 0 0.1 0.0122766 0.001 0.1 0.0128499 0 0.1 0.0128499
0.001 0.1 0.013446 0 0.1 0.013446 0.001 0.1 0.0140658 0
0.1 0.0140658 0.001 0.1 0.0147103 0 0.1 0.0147103 0.001 0.1
0.0153804 0 0.1 0.0153804 0.001 0.1 0.0160772 0 0.1 0.0160772
0.001 0.1 0.0168018 0 0.1 0.0168018 0.001 0.1 0.0175551 0
0.1 0.0175551 0.001 0.1 0.0183385 0 0.1 0.0183385 0.001 0.1
0.019153 0 0.1 0.019153 0.001 
POLYGONS 90 450
4 0 1 2 3 4 1 4 5 2 4
4 6 7 5 4 6 8 9 7 4
8 10 11 9 4 10 12 13 11 4
12 14 15 13 4 14 16 17 15 4
16 18 19 17 4 18 20 21 19 4
20 22 23 21 4 22 24 25 23 4
24 26 27 25 4 26 28 29 27 4
28 30 31 29 4 30 32 33 31 4
32 34 35 33 4 34 36 37 35 4
36 38 39 37 4 38 40 41 39 4
40 42 43 41 4 42 44 45 43 4
44 46 47 45 4 46 48 49 47 4
48 50 51 49 4 50 52 53 51 4
52 54 55 53 4 54 56 57 55 4
56 58 59 57 4 58 60 61 59 4
62 63 64 65 4 63 66 67 64 4
66 68 69 67 4 68 70 71 69 4
70 72 73 71 4 72 74 75 73 4
74 76 77 75 4 76 78 79 77 4
78 80 81 79 4 80 82 83 81 4
82 84 85 83 4 84 86 87 85 4
86 88 89 87 4 88 90 91 89 4
90 92 93 91 4 92 94 95 93 4
94 96 97 95 4 96 98 99 97 4
98 100 101 99 4 100 102 103 101 4
102 104 105 103 4 104 106 107 105 4
106 108 109 107 4 108 110 111 109 4
110 112 113 111 4 112 114 115 113 4
114 116 117 115 4 116 118 119 117 4
118 120 121 119 4 120 122 123 121 4
122 124 125 123 4 124 126 127 125 4
126 128 129 127 4 128 130 131 129 4
130 132 133 131 4 132 134 135 133 4
134 136 137 135 4 136 138 139 137 4
138 140 141 139 4 140 142 143 141 4
142 144 145 143 4 144 146 147 145 4
146 148 149 147 4 148 150 151 149 4
150 152 153 151 4 152 154 155 153 4
154 156 157 155 4 156 158 159 157 4
158 160 161 159 4 160 162 163 161 4
162 164 165 163 4 164 166 167 165 4
166 168 169 167 4 168 170 171 169 4
170 172 173 171 4 172 174 175 173 4
174 176 177 175 4 176 178 179 177 4
178 180 181 179 4 180 0 3 181 
CELL_DATA 90
FIELD attributes 3
patchID 1 90 float
2 2 2 2 2 2 2 2 2 2 2
2 2 2 2 2 2 2 2 2 2
2 2 2 2 2 2 2 2 2 2
2 2 2 2 2 2 2 2 2 2
2 2 2 2 2 2 2 2 2 2
2 2 2 2 2 2 2 2 2 2
2 2 2 2 2 2 2 2 2 2
2 2 2 2 2 2 2 2 2 2
2 2 2 2 2 2 2 2 2 
p 1 90 float
0 0 0 0 0 0 0 0 0 0 0
0 0 0 0 0 0 0 0 0 0
0 0 0 0 0 0 0 0 0 0
0 0 0 0 0 0 0 0 0 0
0 0 0 0 0 0 0 0 0 0
0 0 0 0 0 0 0 0 0 0
0 0 0 0 0 0 0 0 0 0
0 0 0 0 0 0 0 0 0 0
0 0 0 0 0 0 0 0 0 
U 3 90 float
1.01013 0.00198481 0 1.0098 0.00200562 0 1.00949 0.00194163 0 1.00921 0.00191383
0 1.00895 0.00187604 0 1.0087 0.00183438 0 1.00848 0.00179201 0
1.00828 0.00174792 0 1.00809 0.00170179 0 1.00791 0.00165351 0 1.00775
0.00160275 0 1.0076 0.00154983 0 1.00746 0.00149418 0 1.00734 0.00143615
0 1.00722 0.00137528 0 1.00711 0.00131151 0 1.007 0.001245 0
1.00691 0.00117523 0 1.00682 0.00110224 0 1.00674 0.00102616 0 1.00666
0.000946396 0 1.00659 0.000863128 0 1.00652 0.000776199 0 1.00647 0.000685474
0 1.00642 0.000590657 0 1.00637 0.000491881 0 1.00633 0.000389111 0
1.0063 0.000281657 0 1.00628 0.000169084 0 1.00617 5.57736e-05 0 0.0456671
5.12045e-06 0 0.138663 4.14345e-05 0 0.234824 0.000128355 0 0.333487 0.000262291
0 0.433394 0.000444204 0 0.532592 0.000673111 0 0.628445 0.000943003 0
0.717797 0.00124175 0 0.797379 0.00155113 0 0.86443 0.00184889 0 0.917355
0.00211306 0 0.956149 0.00232738 0 0.982365 0.00248523 0 0.998601 0.00259005
0 1.00777 0.00265226 0 1.01249 0.00268469 0 1.01468 0.00269884 0
1.0156 0.00270299 0 1.01594 0.00270216 0 1.01604 0.00269898 0 1.01605
0.00269465 0 1.01602 0.00268968 0 1.01597 0.00268425 0 1.01592 0.00267843
0 1.01586 0.00267225 0 1.0158 0.00266571 0 1.01574 0.0026588 0
1.01568 0.00265153 0 1.01561 0.00264388 0 1.01555 0.00263584 0 1.01549
0.00262739 0 1.01543 0.00261853 0 1.01538 0.00260923 0 1.01533 0.00259945
0 1.01528 0.00258921 0 1.01523 0.00257842 0 1.01519 0.00256711 0
1.01514 0.00255521 0 1.01509 0.00254267 0 1.01504 0.00252952 0 1.01498
0.00251568 0 1.01491 0.00250105 0 1.01484 0.00248569 0 1.01476 0.00246964
0 1.01467 0.00245246 0 1.01456 0.00243441 0 1.01444 0.00241587 0
1.01431 0.00239633 0 1.01416 0.00237706 0 1.01399 0.00234265 0 1.01379
0.00235279 0 1.01358 0.00226716 0 1.01333 0.0023294 0 1.01305 0.00220342
0 1.01275 0.00225787 0 1.0124 0.00218035 0 1.01201 0.00214942 0
1.01157 0.00216307 0 1.01104 0.00203903 0 1.01053 0.00210847 0 
POINT_DATA  182
FIELD attributes 2
p 1 182 float
0 0 0 0 0 0 0 0 0 0 0
0 0 0 0 0 0 0 0 0 0
0 0 0 0 0 0 0 0 0 0
0 0 0 0 0 0 0 0 0 0
0 0 0 0 0 0 0 0 0 0
0 0 0 0 0 0 0 0 0 0
0 0 0 0 0 0 0 0 0 0
0 0 0 0 0 0 0 0 0 0
0 0 0 0 0 0 0 0 0 0
0 0 0 0 0 0 0 0 0 0
0 0 0 0 0 0 0 0 0 0
0 0 0 0 0 0 0 0 0 0
0 0 0 0 0 0 0 0 0 0
0 0 0 0 0 0 0 0 0 0
0 0 0 0 0 0 0 0 0 0
0 0 0 0 0 0 0 0 0 0
0 0 0 0 0 0 0 0 0 0
0 0 0 0 0 0 0 0 0 0
0 
U 3 182 float
1.01032 0.00204488 0 1.00997 0.00199514 0 1.00997 0.00199514 0 1.01032 0.00204488
0 1.00965 0.00197385 0 1.00965 0.00197385 0 1.00935 0.00192783 0
1.00935 0.00192783 0 1.00908 0.00189508 0 1.00908 0.00189508 0 1.00883
0.00185538 0 1.00883 0.00185538 0 1.00859 0.00181337 0 1.00859 0.00181337
0 1.00838 0.00177016 0 1.00838 0.00177016 0 1.00819 0.00172507 0
1.00819 0.00172507 0 1.008 0.00167788 0 1.008 0.00167788 0 1.00783
0.00162838 0 1.00783 0.00162838 0 1.00768 0.00157656 0 1.00768 0.00157656
0 1.00753 0.0015223 0 1.00753 0.0015223 0 1.0074 0.00146548 0
1.0074 0.00146548 0 1.00728 0.00140606 0 1.00728 0.00140606 0 1.00717
0.00134377 0 1.00717 0.00134377 0 1.00706 0.00127865 0 1.00706 0.00127865
0 1.00696 0.00121054 0 1.00696 0.00121054 0 1.00687 0.0011392 0
1.00687 0.0011392 0 1.00678 0.00106469 0 1.00678 0.00106469 0 1.0067
0.000986807 0 1.0067 0.000986807 0 1.00663 0.000905326 0 1.00663 0.000905326
0 1.00656 0.000820265 0 1.00656 0.000820265 0 1.0065 0.000731477 0
1.0065 0.000731477 0 1.00645 0.000638748 0 1.00645 0.000638748 0 1.0064
0.000541992 0 1.0064 0.000541992 0 1.00635 0.000441261 0 1.00635 0.000441261
0 1.00632 0.000336197 0 1.00632 0.000336197 0 1.00629 0.000226235 0
1.00629 0.000226235 0 1.00623 0.000113311 0 1.00623 0.000113311 0 1.00617
5.57736e-05 0 1.00617 5.57736e-05 0 0.0456671 5.12045e-06 0 0.0921583 2.32749e-05
0 0.0921583 2.32749e-05 0 0.0456671 5.12045e-06 0 0.186736 8.4888e-05 0
0.186736 8.4888e-05 0 0.284147 0.000195312 0 0.284147 0.000195312 0 0.383431
0.000353231 0 0.383431 0.000353231 0 0.482983 0.000558635 0 0.482983 0.000558635
0 0.580508 0.000808028 0 0.580508 0.000808028 0 0.673111 0.00109234 0
0.673111 0.00109234 0 0.757578 0.0013964 0 0.757578 0.0013964 0 0.830895
0.00169997 0 0.830895 0.00169997 0 0.890885 0.00198094 0 0.890885 0.00198094
0 0.936746 0.00222019 0 0.936746 0.00222019 0 0.969253 0.00240628 0
0.969253 0.00240628 0 0.99048 0.00253762 0 0.99048 0.00253762 0 1.00318
0.00262114 0 1.00318 0.00262114 0 1.01013 0.00266847 0 1.01013 0.00266847
0 1.01358 0.00269176 0 1.01358 0.00269176 0 1.01514 0.00270091 0
1.01514 0.00270091 0 1.01577 0.00270258 0 1.01577 0.00270258 0 1.01599
0.00270057 0 1.01599 0.00270057 0 1.01604 0.00269682 0 1.01604 0.00269682
0 1.01603 0.00269217 0 1.01603 0.00269217 0 1.016 0.00268697 0
1.016 0.00268697 0 1.01595 0.00268134 0 1.01595 0.00268134 0 1.01589
0.00267534 0 1.01589 0.00267534 0 1.01583 0.00266898 0 1.01583 0.00266898
0 1.01577 0.00266226 0 1.01577 0.00266226 0 1.01571 0.00265517 0
1.01571 0.00265517 0 1.01565 0.00264771 0 1.01565 0.00264771 0 1.01558
0.00263986 0 1.01558 0.00263986 0 1.01552 0.00263162 0 1.01552 0.00263162
0 1.01546 0.00262297 0 1.01546 0.00262297 0 1.01541 0.00261389 0
1.01541 0.00261389 0 1.01535 0.00260435 0 1.01535 0.00260435 0 1.01531
0.00259434 0 1.01531 0.00259434 0 1.01526 0.00258383 0 1.01526 0.00258383
0 1.01521 0.00257278 0 1.01521 0.00257278 0 1.01517 0.00256117 0
1.01517 0.00256117 0 1.01512 0.00254895 0 1.01512 0.00254895 0 1.01507
0.00253611 0 1.01507 0.00253611 0 1.01501 0.00252262 0 1.01501 0.00252262
0 1.01495 0.00250839 0 1.01495 0.00250839 0 1.01488 0.00249339 0
1.01488 0.00249339 0 1.0148 0.00247769 0 1.0148 0.00247769 0 1.01472
0.00246108 0 1.01472 0.00246108 0 1.01462 0.00244347 0 1.01462 0.00244347
0 1.0145 0.00242518 0 1.0145 0.00242518 0 1.01438 0.00240614 0
1.01438 0.00240614 0 1.01424 0.00238674 0 1.01424 0.00238674 0 1.01408
0.00235994 0 1.01408 0.00235994 0 1.01389 0.00234769 0 1.01389 0.00234769
0 1.01369 0.0023102 0 1.01369 0.0023102 0 1.01346 0.00229811 0
1.01346 0.00229811 0 1.01319 0.00226678 0 1.01319 0.00226678 0 1.0129
0.00223048 0 1.0129 0.00223048 0 1.01258 0.00221936 0 1.01258 0.00221936
0 1.01221 0.00216499 0 1.01221 0.00216499 0 1.01179 0.0021562 0
1.01179 0.0021562 0 1.01131 0.00210152 0 1.01131 0.00210152 0 1.01079
0.00207347 0 1.01079 0.00207347 0 
