# vtk DataFile Version 2.0
outlet
ASCII
DATASET POLYDATA
POINTS 182 float
0.1 0.02 0 0.1 0.0207299 0 0.1 0.0207299 0.001 0.1 0.02
0.001 0.1 0.021488 0 0.1 0.021488 0.001 0.1 0.0222754 0
0.1 0.0222754 0.001 0.1 0.0230932 0 0.1 0.0230932 0.001 0.1
0.0239425 0 0.1 0.0239425 0.001 0.1 0.0248247 0 0.1 0.0248247
0.001 0.1 0.0257409 0 0.1 0.0257409 0.001 0.1 0.0266925 0
0.1 0.0266925 0.001 0.1 0.0276808 0 0.1 0.0276808 0.001 0.1
0.0287073 0 0.1 0.0287073 0.001 0.1 0.0297734 0 0.1 0.0297734
0.001 0.1 0.0308807 0 0.1 0.0308807 0.001 0.1 0.0320307 0
0.1 0.0320307 0.001 0.1 0.0332251 0 0.1 0.0332251 0.001 0.1
0.0344656 0 0.1 0.0344656 0.001 0.1 0.0357541 0 0.1 0.0357541
0.001 0.1 0.0370923 0 0.1 0.0370923 0.001 0.1 0.0384821 0
0.1 0.0384821 0.001 0.1 0.0399257 0 0.1 0.0399257 0.001 0.1
0.0414249 0 0.1 0.0414249 0.001 0.1 0.042982 0 0.1 0.042982
0.001 0.1 0.0445993 0 0.1 0.0445993 0.001 0.1 0.046279 0
0.1 0.046279 0.001 0.1 0.0480236 0 0.1 0.0480236 0.001 0.1
0.0498355 0 0.1 0.0498355 0.001 0.1 0.0517173 0 0.1 0.0517173
0.001 0.1 0.0536719 0 0.1 0.0536719 0.001 0.1 0.0557019 0
0.1 0.0557019 0.001 0.1 0.0578102 0 0.1 0.0578102 0.001 0.1
0.06 0 0.1 0.06 0.001 0.1 0 0 0.1 8.46956e-05
0 0.1 8.46956e-05 0.001 0.1 0 0.001 0.1 0.000172762 0
0.1 0.000172762 0.001 0.1 0.000264333 0 0.1 0.000264333 0.001 0.1
0.000359549 0 0.1 0.000359549 0.001 0.1 0.000458554 0 0.1 0.000458554
0.001 0.1 0.0005615 0 0.1 0.0005615 0.001 0.1 0.000668542 0
0.1 0.000668542 0.001 0.1 0.000779845 0 0.1 0.000779845 0.001 0.1
0.000895577 0 0.1 0.000895577 0.001 0.1 0.00101591 0 0.1 0.00101591
0.001 0.1 0.00114104 0 0.1 0.00114104 0.001 0.1 0.00127115 0
0.1 0.00127115 0.001 0.1 0.00140644 0 0.1 0.00140644 0.001 0.1
0.0015471 0 0.1 0.0015471 0.001 0.1 0.00169337 0 0.1 0.00169337
0.001 0.1 0.00184546 0 0.1 0.00184546 0.001 0.1 0.0020036 0
0.1 0.0020036 0.001 0.1 0.00216804 0 0.1 0.00216804 0.001 0.1
0.00233902 0 0.1 0.00233902 0.001 0.1 0.00251681 0 0.1 0.00251681
0.001 0.1 0.00270167 0 0.1 0.00270167 0.001 0.1 0.00289388 0
0.1 0.00289388 0.001 0.1 0.00309375 0 0.1 0.00309375 0.001 0.1
0.00330157 0 0.1 0.00330157 0.001 0.1 0.00351767 0 0.1 0.00351767
0.001 0.1 0.00374236 0 0.1 0.00374236 0.001 0.1 0.00397599 0
0.1 0.00397599 0.001 0.1 0.00421893 0 0.1 0.00421893 0.001 0.1
0.00447153 0 0.1 0.00447153 0.001 0.1 0.00473419 0 0.1 0.00473419
0.001 0.1 0.0050073 0 0.1 0.0050073 0.001 0.1 0.00529127 0
0.1 0.00529127 0.001 0.1 0.00558655 0 0.1 0.00558655 0.001 0.1
0.00589359 0 0.1 0.00589359 0.001 0.1 0.00621284 0 0.1 0.00621284
0.001 0.1 0.00654479 0 0.1 0.00654479 0.001 0.1 0.00688996 0
0.1 0.00688996 0.001 0.1 0.00724887 0 0.1 0.00724887 0.001 0.1
0.00762206 0 0.1 0.00762206 0.001 0.1 0.0080101 0 0.1 0.0080101
0.001 0.1 0.00841358 0 0.1 0.00841358 0.001 0.1 0.00883312 0
0.1 0.00883312 0.001 0.1 0.00926936 0 0.1 0.00926936 0.001 0.1
0.00972297 0 0.1 0.00972297 0.001 0.1 0.0101946 0 0.1 0.0101946
0.001 0.1 0.010685 0 0.1 0.010685 0.001 0.1 0.011195 0
0.1 0.011195 0.001 0.1 0.0117252 0 0.1 0.0117252 0.001 0.1
0.0122766 0 0.1 0.0122766 0.001 0.1 0.0128499 0 0.1 0.0128499
0.001 0.1 0.013446 0 0.1 0.013446 0.001 0.1 0.0140658 0
0.1 0.0140658 0.001 0.1 0.0147103 0 0.1 0.0147103 0.001 0.1
0.0153804 0 0.1 0.0153804 0.001 0.1 0.0160772 0 0.1 0.0160772
0.001 0.1 0.0168018 0 0.1 0.0168018 0.001 0.1 0.0175551 0
0.1 0.0175551 0.001 0.1 0.0183385 0 0.1 0.0183385 0.001 0.1
0.019153 0 0.1 0.019153 0.001 
POLYGONS 90 450
4 0 1 2 3 4 1 4 5 2 4
4 6 7 5 4 6 8 9 7 4
8 10 11 9 4 10 12 13 11 4
12 14 15 13 4 14 16 17 15 4
16 18 19 17 4 18 20 21 19 4
20 22 23 21 4 22 24 25 23 4
24 26 27 25 4 26 28 29 27 4
28 30 31 29 4 30 32 33 31 4
32 34 35 33 4 34 36 37 35 4
36 38 39 37 4 38 40 41 39 4
40 42 43 41 4 42 44 45 43 4
44 46 47 45 4 46 48 49 47 4
48 50 51 49 4 50 52 53 51 4
52 54 55 53 4 54 56 57 55 4
56 58 59 57 4 58 60 61 59 4
62 63 64 65 4 63 66 67 64 4
66 68 69 67 4 68 70 71 69 4
70 72 73 71 4 72 74 75 73 4
74 76 77 75 4 76 78 79 77 4
78 80 81 79 4 80 82 83 81 4
82 84 85 83 4 84 86 87 85 4
86 88 89 87 4 88 90 91 89 4
90 92 93 91 4 92 94 95 93 4
94 96 97 95 4 96 98 99 97 4
98 100 101 99 4 100 102 103 101 4
102 104 105 103 4 104 106 107 105 4
106 108 109 107 4 108 110 111 109 4
110 112 113 111 4 112 114 115 113 4
114 116 117 115 4 116 118 119 117 4
118 120 121 119 4 120 122 123 121 4
122 124 125 123 4 124 126 127 125 4
126 128 129 127 4 128 130 131 129 4
130 132 133 131 4 132 134 135 133 4
134 136 137 135 4 136 138 139 137 4
138 140 141 139 4 140 142 143 141 4
142 144 145 143 4 144 146 147 145 4
146 148 149 147 4 148 150 151 149 4
150 152 153 151 4 152 154 155 153 4
154 156 157 155 4 156 158 159 157 4
158 160 161 159 4 160 162 163 161 4
162 164 165 163 4 164 166 167 165 4
166 168 169 167 4 168 170 171 169 4
170 172 173 171 4 172 174 175 173 4
174 176 177 175 4 176 178 179 177 4
178 180 181 179 4 180 0 3 181 
CELL_DATA 90
FIELD attributes 3
patchID 1 90 float
2 2 2 2 2 2 2 2 2 2 2
2 2 2 2 2 2 2 2 2 2
2 2 2 2 2 2 2 2 2 2
2 2 2 2 2 2 2 2 2 2
2 2 2 2 2 2 2 2 2 2
2 2 2 2 2 2 2 2 2 2
2 2 2 2 2 2 2 2 2 2
2 2 2 2 2 2 2 2 2 2
2 2 2 2 2 2 2 2 2 
p 1 90 float
0 0 0 0 0 0 0 0 0 0 0
0 0 0 0 0 0 0 0 0 0
0 0 0 0 0 0 0 0 0 0
0 0 0 0 0 0 0 0 0 0
0 0 0 0 0 0 0 0 0 0
0 0 0 0 0 0 0 0 0 0
0 0 0 0 0 0 0 0 0 0
0 0 0 0 0 0 0 0 0 0
0 0 0 0 0 0 0 0 0 
U 3 90 float
1.01002 0.001994 0 1.0097 0.00201553 0 1.00941 0.00195036 0 1.00913 0.00192292
0 1.00888 0.00188447 0 1.00864 0.00184247 0 1.00842 0.00179987 0
1.00822 0.00175519 0 1.00803 0.00170883 0 1.00786 0.00166022 0 1.0077
0.00160911 0 1.00755 0.00155571 0 1.00741 0.00149996 0 1.00729 0.00144142
0 1.00717 0.00138027 0 1.00706 0.00131621 0 1.00695 0.00124935 0
1.00686 0.0011793 0 1.00677 0.00110597 0 1.00668 0.00102959 0 1.00661
0.000949503 0 1.00654 0.000865929 0 1.00647 0.00077868 0 1.00641 0.000687638
0 1.00636 0.000592498 0 1.00632 0.000493407 0 1.00628 0.0003903 0
1.00625 0.000282529 0 1.00623 0.000169602 0 1.00612 5.59526e-05 0 0.045669
5.12446e-06 0 0.138611 4.14499e-05 0 0.234757 0.000128387 0 0.333422 0.000262341
0 0.43333 0.000444274 0 0.53253 0.000673203 0 0.628384 0.000943115 0
0.717737 0.00124187 0 0.797321 0.00155129 0 0.864374 0.00184916 0 0.917303
0.00211358 0 0.956104 0.00232829 0 0.982326 0.00248654 0 0.998566 0.00259159
0 1.00774 0.00265377 0 1.01245 0.002686 0 1.01464 0.00269993 0
1.01556 0.00270397 0 1.01589 0.00270324 0 1.01599 0.00270035 0 1.01599
0.00269647 0 1.01596 0.00269205 0 1.01591 0.00268722 0 1.01586 0.00268202
0 1.0158 0.00267645 0 1.01574 0.00267051 0 1.01568 0.00266418 0
1.01562 0.00265745 0 1.01555 0.00265031 0 1.01549 0.00264276 0 1.01543
0.00263476 0 1.01538 0.00262631 0 1.01532 0.00261738 0 1.01527 0.00260796
0 1.01522 0.00259803 0 1.01518 0.00258756 0 1.01513 0.0025765 0
1.01508 0.00256487 0 1.01503 0.0025526 0 1.01498 0.00253962 0 1.01492
0.00252605 0 1.01486 0.00251157 0 1.01478 0.00249639 0 1.0147 0.00248053
0 1.01461 0.00246343 0 1.0145 0.00244556 0 1.01438 0.00242698 0
1.01425 0.00240775 0 1.01409 0.00238834 0 1.01392 0.00235391 0 1.01372
0.00236434 0 1.01349 0.0022781 0 1.01324 0.00234114 0 1.01295 0.00221407
0 1.01263 0.00226943 0 1.01227 0.0021908 0 1.01185 0.00216063 0
1.01137 0.00217344 0 1.01086 0.00204895 0 1.01039 0.00211901 0 
POINT_DATA  182
FIELD attributes 2
p 1 182 float
0 0 0 0 0 0 0 0 0 0 0
0 0 0 0 0 0 0 0 0 0
0 0 0 0 0 0 0 0 0 0
0 0 0 0 0 0 0 0 0 0
0 0 0 0 0 0 0 0 0 0
0 0 0 0 0 0 0 0 0 0
0 0 0 0 0 0 0 0 0 0
0 0 0 0 0 0 0 0 0 0
0 0 0 0 0 0 0 0 0 0
0 0 0 0 0 0 0 0 0 0
0 0 0 0 0 0 0 0 0 0
0 0 0 0 0 0 0 0 0 0
0 0 0 0 0 0 0 0 0 0
0 0 0 0 0 0 0 0 0 0
0 0 0 0 0 0 0 0 0 0
0 0 0 0 0 0 0 0 0 0
0 0 0 0 0 0 0 0 0 0
0 0 0 0 0 0 0 0 0 0
0 
U 3 182 float
1.0102 0.00205473 0 1.00986 0.00200469 0 1.00986 0.00200469 0 1.0102 0.00205473
0 1.00956 0.00198318 0 1.00956 0.00198318 0 1.00927 0.00193674 0
1.00927 0.00193674 0 1.00901 0.00190384 0 1.00901 0.00190384 0 1.00876
0.00186364 0 1.00876 0.00186364 0 1.00853 0.00182135 0 1.00853 0.00182135
0 1.00832 0.00177773 0 1.00832 0.00177773 0 1.00813 0.00173222 0
1.00813 0.00173222 0 1.00795 0.00168476 0 1.00795 0.00168476 0 1.00778
0.00163492 0 1.00778 0.00163492 0 1.00763 0.00158268 0 1.00763 0.00158268
0 1.00748 0.00152813 0 1.00748 0.00152813 0 1.00735 0.00147101 0
1.00735 0.00147101 0 1.00723 0.00141119 0 1.00723 0.00141119 0 1.00712
0.00134861 0 1.00712 0.00134861 0 1.00701 0.00128318 0 1.00701 0.00128318
0 1.00691 0.00121476 0 1.00691 0.00121476 0 1.00682 0.0011431 0
1.00682 0.0011431 0 1.00673 0.00106827 0 1.00673 0.00106827 0 1.00665
0.000990078 0 1.00665 0.000990078 0 1.00658 0.000908282 0 1.00658 0.000908282
0 1.00651 0.000822908 0 1.00651 0.000822908 0 1.00644 0.000733802 0
1.00644 0.000733802 0 1.00639 0.000640752 0 1.00639 0.000640752 0 1.00634
0.000543678 0 1.00634 0.000543678 0 1.0063 0.000442621 0 1.0063 0.000442621
0 1.00627 0.00033723 0 1.00627 0.00033723 0 1.00624 0.000226932 0
1.00624 0.000226932 0 1.00618 0.000113662 0 1.00618 0.000113662 0 1.00612
5.59526e-05 0 1.00612 5.59526e-05 0 0.045669 5.12446e-06 0 0.0921333 2.32846e-05
0 0.0921333 2.32846e-05 0 0.045669 5.12446e-06 0 0.186676 8.49117e-05 0
0.186676 8.49117e-05 0 0.284081 0.000195353 0 0.284081 0.000195353 0 0.383367
0.000353291 0 0.383367 0.000353291 0 0.48292 0.000558716 0 0.48292 0.000558716
0 0.580447 0.00080813 0 0.580447 0.00080813 0 0.67305 0.00109246 0
0.67305 0.00109246 0 0.757519 0.00139654 0 0.757519 0.00139654 0 0.830839
0.00170019 0 0.830839 0.00170019 0 0.890831 0.00198133 0 0.890831 0.00198133
0 0.936697 0.0022209 0 0.936697 0.0022209 0 0.969211 0.00240739 0
0.969211 0.00240739 0 0.990443 0.00253905 0 0.990443 0.00253905 0 1.00315
0.00262267 0 1.00315 0.00262267 0 1.01009 0.00266988 0 1.01009 0.00266988
0 1.01354 0.00269296 0 1.01354 0.00269296 0 1.0151 0.00270195 0
1.0151 0.00270195 0 1.01572 0.00270361 0 1.01572 0.00270361 0 1.01594
0.0027018 0 1.01594 0.0027018 0 1.01599 0.00269841 0 1.01599 0.00269841
0 1.01597 0.00269426 0 1.01597 0.00269426 0 1.01594 0.00268964 0
1.01594 0.00268964 0 1.01588 0.00268462 0 1.01588 0.00268462 0 1.01583
0.00267924 0 1.01583 0.00267924 0 1.01577 0.00267348 0 1.01577 0.00267348
0 1.01571 0.00266735 0 1.01571 0.00266735 0 1.01565 0.00266082 0
1.01565 0.00266082 0 1.01559 0.00265388 0 1.01559 0.00265388 0 1.01552
0.00264654 0 1.01552 0.00264654 0 1.01546 0.00263877 0 1.01546 0.00263877
0 1.01541 0.00263054 0 1.01541 0.00263054 0 1.01535 0.00262185 0
1.01535 0.00262185 0 1.0153 0.00261268 0 1.0153 0.00261268 0 1.01525
0.002603 0 1.01525 0.002603 0 1.0152 0.0025928 0 1.0152 0.0025928
0 1.01516 0.00258204 0 1.01516 0.00258204 0 1.01511 0.0025707 0
1.01511 0.0025707 0 1.01506 0.00255875 0 1.01506 0.00255875 0 1.01501
0.00254613 0 1.01501 0.00254613 0 1.01495 0.00253285 0 1.01495 0.00253285
0 1.01489 0.00251883 0 1.01489 0.00251883 0 1.01482 0.002504 0
1.01482 0.002504 0 1.01474 0.00248849 0 1.01474 0.00248849 0 1.01466
0.00247201 0 1.01466 0.00247201 0 1.01456 0.00245453 0 1.01456 0.00245453
0 1.01444 0.00243631 0 1.01444 0.00243631 0 1.01432 0.0024174 0
1.01432 0.0024174 0 1.01417 0.00239809 0 1.01417 0.00239809 0 1.01401
0.00237121 0 1.01401 0.00237121 0 1.01382 0.0023591 0 1.01382 0.0023591
0 1.01361 0.00232145 0 1.01361 0.00232145 0 1.01337 0.00230944 0
1.01337 0.00230944 0 1.0131 0.00227798 0 1.0131 0.00227798 0 1.01279
0.00224158 0 1.01279 0.00224158 0 1.01245 0.00223037 0 1.01245 0.00223037
0 1.01206 0.00217582 0 1.01206 0.00217582 0 1.01161 0.00216699 0
1.01161 0.00216699 0 1.01112 0.00211167 0 1.01112 0.00211167 0 1.01063
0.0020837 0 1.01063 0.0020837 0 
