/*--------------------------------*- C++ -*----------------------------------*\
| =========                 |                                                 |
| \\      /  F ield         | OpenFOAM: The Open Source CFD Toolbox           |
|  \\    /   O peration     | Version:  1.4.1-dev                             |
|   \\  /    A nd           | Web:      http://www.openfoam.org               |
|    \\/     M anipulation  |                                                 |
\*---------------------------------------------------------------------------*/

FoamFile
{
    version 2.0;
    format ascii;

    root "/home/mjaworsk/OpenFOAM/mjaworsk-1.4.1-dev/run/FlatPlate-Blasius";
    case "icoHeatFoam-flatPlate2";
    instance "0.6";
    local "";

    class volScalarField;
    object p;
}

// * * * * * * * * * * * * * * * * * * * * * * * * * * * * * * * * * * * * * //

dimensions      [0 2 -2 0 0 0 0];

internalField   nonuniform List<scalar> 
2475
(
0.00438098
0.00183609
0.000208247
-0.00020289
-0.000165448
-9.30663e-05
-5.66604e-05
-3.95127e-05
-2.86148e-05
-2.03853e-05
-1.39987e-05
-9.18096e-06
-5.63569e-06
-3.31981e-06
-1.98136e-06
-1.63964e-06
-1.88202e-06
-2.72479e-06
-3.6076e-06
-4.79849e-06
-5.89852e-06
-7.67844e-06
-9.66809e-06
-1.25051e-05
-1.50556e-05
-1.78834e-05
-1.9851e-05
-2.18285e-05
-2.31343e-05
-2.41641e-05
-2.50868e-05
-2.34995e-05
-2.36013e-05
-1.50059e-05
-1.38114e-05
0.00382406
0.00183296
0.00030524
-0.000142079
-0.000129694
-7.12716e-05
-4.31183e-05
-3.01473e-05
-2.14527e-05
-1.46662e-05
-9.34041e-06
-5.32268e-06
-2.39542e-06
-5.66929e-07
3.7685e-07
3.96524e-07
-1.16034e-07
-1.18325e-06
-2.25889e-06
-3.60855e-06
-4.84686e-06
-6.73816e-06
-8.83041e-06
-1.17498e-05
-1.43835e-05
-1.72736e-05
-1.93108e-05
-2.13322e-05
-2.26981e-05
-2.37545e-05
-2.47339e-05
-2.31559e-05
-2.33145e-05
-1.4712e-05
-1.35629e-05
0.0033191
0.00184823
0.00045202
-5.91587e-05
-8.75979e-05
-4.35179e-05
-2.44397e-05
-1.77985e-05
-1.27022e-05
-7.99239e-06
-4.05358e-06
-1.03787e-06
1.14317e-06
2.40103e-06
2.89463e-06
2.55247e-06
1.74169e-06
4.28633e-07
-8.5429e-07
-2.37391e-06
-3.75752e-06
-5.76714e-06
-7.96721e-06
-1.0975e-05
-1.36954e-05
-1.66515e-05
-1.87597e-05
-2.08268e-05
-2.22538e-05
-2.3339e-05
-2.4377e-05
-2.28102e-05
-2.30286e-05
-1.44222e-05
-1.33249e-05
0.00293083
0.0018624
0.00062457
5.12911e-05
-3.29339e-05
-7.12072e-06
1.83605e-06
-1.96104e-07
-7.23653e-07
7.88261e-07
2.70359e-06
4.28837e-06
5.42457e-06
5.90748e-06
5.81057e-06
5.00742e-06
3.82739e-06
2.21589e-06
6.86939e-07
-1.03236e-06
-2.58336e-06
-4.72902e-06
-7.05041e-06
-1.01578e-05
-1.2973e-05
-1.60017e-05
-1.81851e-05
-2.03022e-05
-2.17929e-05
-2.29111e-05
-2.40104e-05
-2.24601e-05
-2.27393e-05
-1.41409e-05
-1.30922e-05
0.00261722
0.00184296
0.000784312
0.000177023
3.24763e-05
3.67446e-05
3.64591e-05
2.474e-05
1.64494e-05
1.31857e-05
1.21419e-05
1.16627e-05
1.1275e-05
1.06215e-05
9.66498e-06
8.19975e-06
6.49844e-06
4.47107e-06
2.60391e-06
6.10864e-07
-1.16633e-06
-3.4943e-06
-5.97234e-06
-9.20668e-06
-1.21379e-05
-1.52563e-05
-1.75289e-05
-1.97073e-05
-2.1272e-05
-2.24327e-05
-2.36017e-05
-2.20779e-05
-2.24215e-05
-1.38534e-05
-1.28423e-05
0.00235389
0.00178451
0.000911155
0.000305047
0.000103858
8.28594e-05
7.52804e-05
5.56271e-05
3.89197e-05
2.96481e-05
2.47637e-05
2.16076e-05
1.92012e-05
1.70065e-05
1.48687e-05
1.24894e-05
1.00669e-05
7.46217e-06
5.12325e-06
2.74379e-06
6.46855e-07
-1.93871e-06
-4.6311e-06
-8.0366e-06
-1.11191e-05
-1.43554e-05
-1.67414e-05
-1.90006e-05
-2.06561e-05
-2.1874e-05
-2.31261e-05
-2.16448e-05
-2.2058e-05
-1.35557e-05
-1.25591e-05
0.00213292
0.00170104
0.00100106
0.000427992
0.000180241
0.000129269
0.000114356
8.94993e-05
6.52571e-05
4.94738e-05
4.01864e-05
3.39852e-05
2.92437e-05
2.52028e-05
2.16052e-05
1.80765e-05
1.47343e-05
1.13855e-05
8.42899e-06
5.53444e-06
3.0041e-06
6.62873e-08
-2.91599e-06
-6.55133e-06
-9.83434e-06
-1.32289e-05
-1.57646e-05
-1.81327e-05
-1.99039e-05
-2.11996e-05
-2.25537e-05
-2.11385e-05
-2.16268e-05
-1.32451e-05
-1.22216e-05
0.00194788
0.00160821
0.00105653
0.000539631
0.000261061
0.000176889
0.000152064
0.000124012
9.39763e-05
7.17723e-05
5.76986e-05
4.82294e-05
4.10239e-05
3.49985e-05
2.97781e-05
2.49425e-05
2.05314e-05
1.63065e-05
1.26065e-05
9.082e-06
6.00806e-06
2.62457e-06
-7.27694e-07
-4.6548e-06
-8.19639e-06
-1.17976e-05
-1.45315e-05
-1.70444e-05
-1.89655e-05
-2.03635e-05
-2.18446e-05
-2.05269e-05
-2.10964e-05
-1.29122e-05
-1.17988e-05
0.00179153
0.0015161
0.00108275
0.000634139
0.000343509
0.000227039
0.00018841
0.000157658
0.000123858
9.59219e-05
7.68259e-05
6.38437e-05
5.40857e-05
4.60302e-05
3.91141e-05
3.28893e-05
2.73195e-05
2.21384e-05
1.76092e-05
1.33767e-05
9.67345e-06
5.77324e-06
1.9818e-06
-2.28648e-06
-6.14299e-06
-9.99568e-06
-1.29847e-05
-1.56806e-05
-1.77949e-05
-1.93187e-05
-2.09569e-05
-1.97728e-05
-2.04293e-05
-1.25404e-05
-1.12551e-05
0.00165733
0.00142955
0.00108663
0.000707962
0.000423048
0.000280144
0.000224389
0.000189738
0.000153835
0.000121408
9.73594e-05
8.05961e-05
6.81413e-05
5.80141e-05
4.93624e-05
4.16977e-05
3.49075e-05
2.87203e-05
2.33062e-05
1.83214e-05
1.39318e-05
9.47343e-06
5.19209e-06
5.54951e-07
-3.66186e-06
-7.79545e-06
-1.10964e-05
-1.40075e-05
-1.63658e-05
-1.80328e-05
-1.9861e-05
-1.88443e-05
-1.95922e-05
-1.21082e-05
-1.05625e-05
0.00154039
0.00135015
0.00107531
0.00076081
0.000495092
0.000335265
0.000261277
0.000220386
0.000183074
0.00014764
0.000119153
9.8443e-05
8.30871e-05
7.08049e-05
6.03787e-05
5.12291e-05
4.31623e-05
3.59213e-05
2.95749e-05
2.38059e-05
1.86887e-05
1.3648e-05
8.83939e-06
3.82152e-06
-7.89109e-07
-5.21493e-06
-8.87564e-06
-1.20226e-05
-1.46781e-05
-1.64977e-05
-1.85494e-05
-1.77273e-05
-1.85682e-05
-1.15958e-05
-9.71643e-06
0.00143728
0.00127775
0.00105463
0.000795034
0.000556311
0.000390154
0.000299801
0.000250349
0.000211145
0.000173955
0.000141947
0.000117383
9.89316e-05
8.43589e-05
7.21031e-05
6.14239e-05
5.2027e-05
4.3678e-05
3.63503e-05
2.97609e-05
2.38784e-05
1.82316e-05
1.28627e-05
7.45289e-06
2.42069e-06
-2.30115e-06
-6.35728e-06
-9.75105e-06
-1.27509e-05
-1.47302e-05
-1.70351e-05
-1.64304e-05
-1.73625e-05
-1.09924e-05
-8.74576e-06
0.00134559
0.00121159
0.00102864
0.000814268
0.000605137
0.000441956
0.000339677
0.000280494
0.000238105
0.00019977
0.000165322
0.000137334
0.000115713
9.86909e-05
8.45225e-05
7.22645e-05
6.14912e-05
5.19776e-05
4.36182e-05
3.61639e-05
2.94774e-05
2.31925e-05
1.72304e-05
1.14079e-05
5.92727e-06
8.98933e-07
-3.5779e-06
-7.23015e-06
-1.06068e-05
-1.27601e-05
-1.53382e-05
-1.49795e-05
-1.59979e-05
-1.02999e-05
-7.70718e-06
0.00126354
0.00115092
0.000999867
0.000822219
0.000641738
0.000488149
0.000379628
0.000311287
0.000264373
0.000224755
0.000188775
0.000158069
0.000133425
0.000113836
9.76477e-05
8.375e-05
7.15594e-05
6.08302e-05
5.13905e-05
4.30222e-05
3.54919e-05
2.85284e-05
2.19392e-05
1.56721e-05
9.71645e-06
4.35757e-06
-5.58455e-07
-4.49098e-06
-8.25983e-06
-1.06164e-05
-1.34733e-05
-1.34042e-05
-1.4502e-05
-9.52909e-06
-6.6649e-06
0.00118978
0.0010952
0.000969883
0.000822018
0.00066743
0.000527109
0.00041785
0.000342534
0.000290418
0.000248896
0.000211875
0.000179235
0.000151955
0.000129804
0.000111497
9.58839e-05
8.22344e-05
7.02475e-05
5.96849e-05
5.03544e-05
4.19404e-05
3.4254e-05
2.7002e-05
2.02503e-05
1.37939e-05
8.06824e-06
2.69837e-06
-1.54933e-06
-5.71237e-06
-8.31727e-06
-1.14454e-05
-1.17255e-05
-1.28976e-05
-8.69127e-06
-5.66964e-06
0.00112326
0.00104407
0.000939739
0.000816092
0.000684013
0.000558261
0.00045262
0.000373418
0.000316442
0.000272393
0.000234367
0.000200438
0.000171075
0.000146541
0.000126072
0.000108668
9.35114e-05
8.02329e-05
6.85133e-05
5.81786e-05
4.88423e-05
4.03892e-05
3.24383e-05
2.51564e-05
1.81746e-05
1.20381e-05
6.20196e-06
1.59333e-06
-2.95845e-06
-5.86828e-06
-9.25434e-06
-9.95171e-06
-1.12012e-05
-7.79102e-06
-4.75001e-06
0.00106318
0.000997304
0.000910225
0.000806288
0.000693319
0.000581879
0.000482685
0.000402781
0.000342226
0.000295442
0.000256196
0.000221354
0.000190475
0.000163899
0.000141333
0.000122091
0.000105377
9.07777e-05
7.78765e-05
6.6505e-05
5.62114e-05
4.69504e-05
3.82684e-05
3.04068e-05
2.28749e-05
1.62792e-05
9.96662e-06
4.94421e-06
1.08651e-08
-3.26502e-06
-6.89939e-06
-8.07964e-06
-9.42577e-06
-6.82591e-06
-3.91569e-06
0.00100894
0.0009548
0.000881995
0.000794054
0.000697012
0.000598732
0.000507412
0.000429487
0.000367184
0.000318054
0.000277415
0.000241782
0.000209843
0.000181649
0.000157178
0.000136115
0.000117809
0.000101861
8.77637e-05
7.53333e-05
6.40554e-05
5.39459e-05
4.45081e-05
3.60182e-05
2.791e-05
2.08025e-05
1.40062e-05
8.51478e-06
3.20361e-06
-4.97101e-07
-4.382e-06
-6.09861e-06
-7.58271e-06
-5.79049e-06
-3.16398e-06
0.000960124
0.000916549
0.000855623
0.000780562
0.000696533
0.000609803
0.000526722
0.000452665
0.000390541
0.000339981
0.000298049
0.000261642
0.00022893
0.000199525
0.000173435
0.000150657
0.000130765
0.000113452
9.81518e-05
8.46509e-05
7.23748e-05
6.13771e-05
5.11631e-05
4.2004e-05
3.32951e-05
2.5617e-05
1.83297e-05
1.23189e-05
6.62549e-06
2.44851e-06
-1.70611e-06
-3.99499e-06
-5.68155e-06
-4.68104e-06
-2.48491e-06
0.000916398
0.000882572
0.000831579
0.00076676
0.000693108
0.000616123
0.000540931
0.000471825
0.00041155
0.000360772
0.000317996
0.000280895
0.000247572
0.000217281
0.00018989
0.000165581
0.000144173
0.000125502
0.000109006
9.44318e-05
8.11594e-05
6.92416e-05
5.82296e-05
4.83672e-05
3.90431e-05
3.07333e-05
2.29385e-05
1.63697e-05
1.02802e-05
5.58499e-06
1.12269e-06
-1.75609e-06
-3.72817e-06
-3.49831e-06
-1.86456e-06
0.000877428
0.0008528
0.000810163
0.000753353
0.000687738
0.000618671
0.000550581
0.00048684
0.000429635
0.000379884
0.000336993
0.000299462
0.000265664
0.000234714
0.000206317
0.000180709
0.000157919
0.000137944
0.000120278
0.000104639
9.03844e-05
7.75321e-05
6.57014e-05
5.50988e-05
4.51555e-05
3.61675e-05
2.78303e-05
2.06747e-05
1.4169e-05
8.92418e-06
4.09837e-06
6.26587e-07
-1.72394e-06
-2.24788e-06
-1.28725e-06
0.000842691
0.000826919
0.000791394
0.000740751
0.000681164
0.000618297
0.000556302
0.000497858
0.000444464
0.000396806
0.000354663
0.000317159
0.0002831
0.000251669
0.000222507
0.000195838
0.000171847
0.000150677
0.000131902
0.000115221
0.000100009
8.62275e-05
7.35723e-05
6.21883e-05
5.1613e-05
4.19329e-05
3.30099e-05
2.5236e-05
1.82873e-05
1.24756e-05
7.21713e-06
3.15493e-06
3.33258e-07
-9.39499e-07
-7.37833e-07
0.000811456
0.000804316
0.000774967
0.000729051
0.000673849
0.000615675
0.000558719
0.000505194
0.000455939
0.000411151
0.000370584
0.0003337
0.000299708
0.000268002
0.000238275
0.000210764
0.000185767
0.000163557
0.000143784
0.00012611
0.000109971
9.52836e-05
8.18216e-05
6.96329e-05
5.8382e-05
4.80173e-05
3.84879e-05
3.00592e-05
2.26224e-05
1.62411e-05
1.04821e-05
5.8255e-06
2.44724e-06
4.15513e-07
-2.04578e-07
0.00078292
0.00078418
0.000760323
0.000718086
0.000666023
0.000611314
0.000558418
0.000509276
0.000464165
0.000422711
0.000384393
0.000348744
0.000315251
0.000283544
0.000253459
0.000225301
0.000199491
0.000176408
0.000155795
0.000137222
0.000120195
0.000104635
9.03996e-05
7.74269e-05
6.5442e-05
5.43762e-05
4.4255e-05
3.51607e-05
2.71608e-05
2.02043e-05
1.38999e-05
8.63471e-06
4.62066e-06
1.80782e-06
3.21416e-07
0.000756281
0.000765594
0.000746729
0.000707478
0.000657703
0.00060555
0.000555891
0.000510559
0.000469391
0.000431457
0.000395843
0.000361965
0.000329437
0.000298076
0.00026789
0.000239286
0.000212845
0.000189056
0.000167773
0.000148453
0.000130595
0.0001142
9.92321e-05
8.55341e-05
7.27948e-05
6.09704e-05
5.02577e-05
4.05471e-05
3.19089e-05
2.43327e-05
1.74655e-05
1.15799e-05
6.85279e-06
3.22867e-06
8.49012e-07
0.000730737
0.000747602
0.000733352
0.000696693
0.000648704
0.000598503
0.000551458
0.000509418
0.000471893
0.000437464
0.000404798
0.000373082
0.000341947
0.000311316
0.000281349
0.000252551
0.000225671
0.000201338
0.000179535
0.000159659
0.000141088
0.000123889
0.000108228
9.38772e-05
8.04245e-05
6.78019e-05
5.64253e-05
4.61663e-05
3.68873e-05
2.861e-05
2.11533e-05
1.46497e-05
9.14175e-06
4.66762e-06
1.38191e-06
0.000705753
0.000729481
0.000719493
0.000685209
0.000638755
0.000590148
0.000545281
0.000506102
0.000471904
0.00044085
0.000411202
0.000381885
0.000352472
0.00032294
0.00029355
0.000264884
0.000237802
0.000213099
0.000190907
0.000170645
0.000151551
0.00013362
0.000117284
0.000102355
8.82689e-05
7.48921e-05
6.27477e-05
5.19131e-05
4.20693e-05
3.30595e-05
2.49449e-05
1.78093e-05
1.14831e-05
6.12007e-06
1.90935e-06
0.000681357
0.000711059
0.000704903
0.000672801
0.00062773
0.000580496
0.000537497
0.000500834
0.000469648
0.000441765
0.000415077
0.000388249
0.000360762
0.000332626
0.000304168
0.000276011
0.000249048
0.000224185
0.000201736
0.000181209
0.000161802
0.000143305
0.000126306
0.000110845
9.62241e-05
8.22095e-05
6.92785e-05
5.77311e-05
4.73473e-05
3.76996e-05
2.88806e-05
2.1023e-05
1.38549e-05
7.59797e-06
2.43372e-06
0.000657666
0.000692508
0.000689695
0.000659535
0.000615711
0.000569701
0.000528345
0.000493901
0.000465411
0.000440428
0.00041653
0.000392143
0.000366655
0.000340106
0.000312881
0.000285607
0.000259142
0.000234396
0.000211844
0.000191158
0.000171598
0.000152779
0.000135203
0.000119205
0.000104148
8.96364e-05
7.6009e-05
6.36458e-05
5.25973e-05
4.24396e-05
3.3013e-05
2.43026e-05
1.62123e-05
9.10346e-06
3.0015e-06
0.000634085
0.000673485
0.000673599
0.000645212
0.00060263
0.00055786
0.000518075
0.000485651
0.000459562
0.000437165
0.000415793
0.000393682
0.000370145
0.000345261
0.000319471
0.00029339
0.00026778
0.00024347
0.000221012
0.000200284
0.000180692
0.000161774
0.000143826
0.000127307
0.000111869
9.70122e-05
8.28172e-05
6.9666e-05
5.78041e-05
4.7122e-05
3.72738e-05
2.76913e-05
1.85381e-05
1.05985e-05
3.63502e-06
0.000576768
0.000623692
0.000629667
0.000605871
0.00056726
0.000526437
0.000490972
0.000463399
0.000442611
0.00042569
0.000409618
0.000392359
0.000373139
0.000352146
0.00032995
0.000307114
0.000284114
0.000261467
0.000239756
0.000219287
0.000199899
0.000181093
0.000162751
0.000145306
0.000129069
0.000113639
9.84217e-05
8.36536e-05
6.99127e-05
5.78154e-05
4.70894e-05
3.57381e-05
2.39942e-05
1.3962e-05
4.96029e-06
0.000498853
0.000523855
0.000523995
0.000506761
0.000481521
0.000455836
0.000433955
0.000416948
0.000403694
0.000392113
0.000380247
0.000366913
0.000351846
0.000335425
0.000318208
0.000300555
0.000282581
0.00026434
0.000246081
0.000228125
0.000210635
0.000193429
0.00017634
0.000159603
0.00014361
0.000128317
0.000113094
9.77486e-05
8.28454e-05
6.91166e-05
5.6806e-05
4.41656e-05
3.03825e-05
1.7565e-05
5.98467e-06
0.000420461
0.000422819
0.000417067
0.000406537
0.00039458
0.000383413
0.000373855
0.000365616
0.000357836
0.000349599
0.000340288
0.000329711
0.000318059
0.000305695
0.000292947
0.000279933
0.000266593
0.000252797
0.000238541
0.000223952
0.000209189
0.000194307
0.000179295
0.000164279
0.000149473
0.00013495
0.000120445
0.000105658
9.0842e-05
7.64294e-05
6.28114e-05
4.93563e-05
3.49387e-05
2.04847e-05
6.89132e-06
0.000353658
0.000346988
0.000340583
0.000335143
0.000330784
0.000327131
0.000323569
0.000319479
0.000314437
0.000308261
0.000301014
0.0002929
0.000284181
0.000275074
0.000265702
0.000256057
0.000246039
0.000235512
0.000224398
0.000212711
0.000200542
0.000187997
0.000175145
0.000162048
0.000148786
0.000135413
0.000121912
0.000108122
9.4046e-05
7.98381e-05
6.57464e-05
5.18171e-05
3.73762e-05
2.23867e-05
7.52693e-06
0.000303448
0.000295838
0.000290826
0.000287934
0.00028622
0.000284699
0.000282639
0.000279638
0.00027561
0.00027067
0.000265032
0.000258894
0.000252403
0.00024562
0.000238548
0.000231133
0.000223303
0.000214974
0.000206088
0.000196633
0.000186651
0.000176208
0.000165358
0.00015411
0.000142489
0.000130523
0.000118267
0.000105677
9.2688e-05
7.92987e-05
6.55924e-05
5.17733e-05
3.7638e-05
2.28485e-05
7.67317e-06
0.000264259
0.000257852
0.000254079
0.000252161
0.000251048
0.000249839
0.000247986
0.000245287
0.000241803
0.000237706
0.000233188
0.000228376
0.000223329
0.000218031
0.00021244
0.00020649
0.000200131
0.000193317
0.000186028
0.00017826
0.000170028
0.000161338
0.000152198
0.000142592
0.000132531
0.000122036
0.000111143
9.98386e-05
8.80602e-05
7.57705e-05
6.30076e-05
4.98909e-05
3.63732e-05
2.22279e-05
7.50089e-06
0.00023085
0.000225012
0.000221833
0.000220423
0.000219695
0.000218777
0.000217194
0.000214826
0.000211791
0.000208288
0.000204503
0.000200536
0.000196413
0.000192093
0.000187516
0.000182618
0.000177359
0.000171714
0.000165675
0.000159229
0.00015237
0.000145075
0.000137339
0.000129152
0.00012052
0.000111436
0.000101891
9.18642e-05
8.1331e-05
7.0285e-05
5.87285e-05
4.66547e-05
3.40584e-05
2.08752e-05
7.0715e-06
0.000200482
0.00019512
0.000192359
0.000191307
0.000190895
0.000190281
0.000189022
0.000187024
0.00018442
0.000181415
0.000178193
0.00017485
0.000171406
0.000167819
0.000164028
0.00015997
0.000155605
0.000150903
0.000145852
0.00014044
0.00013466
0.000128499
0.000121951
0.000114993
0.000107611
9.97753e-05
9.14714e-05
8.2688e-05
7.34198e-05
6.36472e-05
5.33395e-05
4.24731e-05
3.10596e-05
1.90718e-05
6.46656e-06
0.000172806
0.000168134
0.000165778
0.000164942
0.000164677
0.000164235
0.000163224
0.000161561
0.000159368
0.000156829
0.00015411
0.000151299
0.000148415
0.000145418
0.000142256
0.000138866
0.000135213
0.000131267
0.000127021
0.000122464
0.000117593
0.000112391
0.000106841
0.000100919
9.46042e-05
8.78755e-05
8.07195e-05
7.31172e-05
6.50507e-05
5.64946e-05
4.74311e-05
3.78444e-05
2.77242e-05
1.70437e-05
5.78168e-06
0.000147904
0.000144028
0.000142068
0.000141366
0.000141138
0.000140764
0.000139918
0.00013853
0.000136701
0.000134582
0.000132311
0.00012996
0.000127545
0.000125036
0.000122385
0.000119544
0.000116481
0.000113171
0.000109606
0.000105776
0.000101672
9.72765e-05
9.25747e-05
8.75443e-05
8.21689e-05
7.64256e-05
7.02966e-05
6.37591e-05
5.67966e-05
4.93911e-05
4.15272e-05
3.31832e-05
2.43413e-05
1.49803e-05
5.08409e-06
0.000126018
0.000122885
0.000121279
0.000120676
0.000120448
0.000120102
0.000119375
0.000118211
0.000116689
0.000114929
0.000113041
0.000111082
0.000109065
0.000106964
0.000104742
0.00010236
9.97889e-05
9.70093e-05
9.40125e-05
9.07874e-05
8.73273e-05
8.36163e-05
7.9641e-05
7.538e-05
7.08166e-05
6.59283e-05
6.06979e-05
5.51056e-05
4.91364e-05
4.27719e-05
3.59958e-05
2.87881e-05
2.11346e-05
1.30163e-05
4.41898e-06
0.000107512
0.000104986
0.000103669
0.000103146
0.000102919
0.000102594
0.000101963
0.00010098
9.97078e-05
9.8241e-05
9.6666e-05
9.50274e-05
9.33355e-05
9.15684e-05
8.96967e-05
8.76868e-05
8.55168e-05
8.31689e-05
8.06355e-05
7.79066e-05
7.49757e-05
7.18283e-05
6.84523e-05
6.48289e-05
6.09431e-05
5.67749e-05
5.23085e-05
4.75249e-05
4.24089e-05
3.69429e-05
3.11125e-05
2.49006e-05
1.82942e-05
1.12754e-05
3.83016e-06
9.27869e-05
9.07145e-05
8.96171e-05
8.91588e-05
8.89368e-05
8.86328e-05
8.80784e-05
8.72359e-05
8.6155e-05
8.49123e-05
8.35769e-05
8.21846e-05
8.0743e-05
7.92341e-05
7.76334e-05
7.59131e-05
7.40549e-05
7.20433e-05
6.98716e-05
6.75306e-05
6.50141e-05
6.23092e-05
5.94051e-05
5.62851e-05
5.29358e-05
4.93392e-05
4.54807e-05
4.13428e-05
3.69119e-05
3.2172e-05
2.71098e-05
2.17094e-05
1.59588e-05
9.84151e-06
3.34473e-06
8.22924e-05
8.05255e-05
7.95775e-05
7.91654e-05
7.89503e-05
7.86639e-05
7.81643e-05
7.74195e-05
7.64713e-05
7.53835e-05
7.42143e-05
7.29932e-05
7.17265e-05
7.03984e-05
6.8988e-05
6.74712e-05
6.58322e-05
6.40574e-05
6.21405e-05
6.00729e-05
5.78488e-05
5.54565e-05
5.28861e-05
5.01224e-05
4.71535e-05
4.39629e-05
4.05375e-05
3.68614e-05
3.29221e-05
2.87047e-05
2.4197e-05
1.93843e-05
1.42551e-05
8.79421e-06
2.98944e-06
7.6614e-05
7.50206e-05
7.41557e-05
7.37668e-05
7.35515e-05
7.32704e-05
7.27971e-05
7.21028e-05
7.12248e-05
7.022e-05
6.914e-05
6.80109e-05
6.6838e-05
6.56068e-05
6.42982e-05
6.28904e-05
6.13689e-05
5.9721e-05
5.79409e-05
5.60204e-05
5.39538e-05
5.17301e-05
4.93398e-05
4.6769e-05
4.40063e-05
4.10362e-05
3.78463e-05
3.44216e-05
3.075e-05
2.68175e-05
2.26124e-05
1.81203e-05
1.33301e-05
8.227e-06
2.79869e-06
0.000529651
0.000848733
0.000745408
0.000865591
0.000797179
0.000933541
0.000895201
0.00103337
0.00102597
0.00117691
0.001197
0.00137247
0.00142242
0.00163868
0.00173015
0.00201574
0.00219303
0.00263723
0.00303398
0.00385839
0.000530026
0.000848215
0.000745974
0.00086505
0.000797887
0.000932692
0.000895923
0.00103201
0.00102664
0.00117457
0.00119753
0.00136823
0.00142246
0.00163098
0.00173022
0.00200059
0.00219157
0.00259462
0.00298281
0.0035391
0.000530673
0.000847129
0.000747205
0.000863877
0.000799341
0.000930858
0.000897524
0.00102915
0.00102834
0.00116984
0.00119941
0.00135979
0.00142503
0.00161493
0.00173281
0.00196946
0.00218565
0.00251324
0.00286999
0.00317601
0.000531495
0.000846115
0.00074874
0.000862612
0.00080105
0.000928752
0.00089943
0.00102574
0.00103039
0.00116403
0.00120167
0.00134925
0.00142737
0.00159539
0.00173232
0.00193378
0.00216274
0.00241819
0.00271448
0.00287243
0.000532719
0.000845301
0.000750554
0.000861312
0.000802978
0.000926381
0.000901571
0.0010217
0.00103263
0.00115697
0.0012039
0.00133661
0.00142826
0.00157382
0.00172518
0.00189614
0.00211914
0.00231699
0.00254227
0.00262663
0.000534585
0.000844546
0.000752681
0.0008598
0.000805149
0.000923477
0.000903944
0.0010167
0.00103498
0.00114839
0.0012056
0.00132225
0.00142619
0.00155207
0.00170896
0.00185675
0.00205668
0.00221182
0.00236965
0.00241413
0.000537211
0.000843646
0.000755108
0.00085787
0.000807529
0.000919811
0.000906501
0.00101058
0.00103726
0.00113848
0.00120599
0.00130765
0.00141946
0.00153095
0.0016827
0.0018141
0.00198076
0.00210304
0.00220453
0.00222191
0.000540578
0.000842395
0.000757829
0.000855352
0.000810114
0.000915258
0.000909189
0.00100341
0.00103913
0.00112794
0.001204
0.00129373
0.00140701
0.00150967
0.00164755
0.0017659
0.00189737
0.0019914
0.00205041
0.00204713
0.000544576
0.000840618
0.000760893
0.00085214
0.000812953
0.000909793
0.000911909
0.000995442
0.00103999
0.00111762
0.00119872
0.00128048
0.00138893
0.00148609
0.00160587
0.00171078
0.00181072
0.00187903
0.00190836
0.00188995
0.000549081
0.000838186
0.000764406
0.000848188
0.000816092
0.000903489
0.000914424
0.000987083
0.00103913
0.00110786
0.00118972
0.00126689
0.00136634
0.00145823
0.00155957
0.00164895
0.00172298
0.00176862
0.00177805
0.00174988
0.000554022
0.000834986
0.000768481
0.000843499
0.000819493
0.000896526
0.000916318
0.000978842
0.00103595
0.00109858
0.00117725
0.00125144
0.00134032
0.00142511
0.00150948
0.00158206
0.00163529
0.00166232
0.00165863
0.00162525
0.000559409
0.000830884
0.000773184
0.000838138
0.000822983
0.000889186
0.000917078
0.000971051
0.00103012
0.00108906
0.00116202
0.00123297
0.0013113
0.00138667
0.00145587
0.00151208
0.00154855
0.00156139
0.00154919
0.00151393
0.000565328
0.000825702
0.000778483
0.000832254
0.00082625
0.000881841
0.000916052
0.000963813
0.00102177
0.00107833
0.00114459
0.00121086
0.00127913
0.00134358
0.00139905
0.00144056
0.0014636
0.00146624
0.00144888
0.00141394
0.000571909
0.000819239
0.000784206
0.000826132
0.000828857
0.000874912
0.000912917
0.000956729
0.00101143
0.0010656
0.00112501
0.00118493
0.00124354
0.00129668
0.00133962
0.00136859
0.00138116
0.00137684
0.00135686
0.00132372
0.000579297
0.00081132
0.000790009
0.000820198
0.000830334
0.000868688
0.000907621
0.000949028
0.000999492
0.00105043
0.00110304
0.00115534
0.00120444
0.00124664
0.00127833
0.00129698
0.00130171
0.00129298
0.00127232
0.00124201
0.000587619
0.000801859
0.000795365
0.000814959
0.000830282
0.000863196
0.000900578
0.000940006
0.000985987
0.00103262
0.0010784
0.00112235
0.00116197
0.00119404
0.00121595
0.00122636
0.00122548
0.00121434
0.00119447
0.00116775
0.000596943
0.000790948
0.000799563
0.000810862
0.000828506
0.00085797
0.000892349
0.000929286
0.000970681
0.00101212
0.00105087
0.00108619
0.00111651
0.00113939
0.00115304
0.00115713
0.00115252
0.00114053
0.00112258
0.00110007
0.000607247
0.000778928
0.000801799
0.00080816
0.000825424
0.000852385
0.000883166
0.000916654
0.000953251
0.000988891
0.00102036
0.00104709
0.0010685
0.00108317
0.00109004
0.00108945
0.00108264
0.00107105
0.00105591
0.00103822
0.000618405
0.00076633
0.000801125
0.000806493
0.000821856
0.000846252
0.000873054
0.000902092
0.000933408
0.000962845
0.000986958
0.00100536
0.00101841
0.00102578
0.00102717
0.00102327
0.00101547
0.00100528
0.000993764
0.000981546
0.000630208
0.000754173
0.000796997
0.000804813
0.000818222
0.000839615
0.000862062
0.000885741
0.00091105
0.000933962
0.000950812
0.000961328
0.0009667
0.000967613
0.00096451
0.000958312
0.000950497
0.000942559
0.000935467
0.000929514
0.000642291
0.000743095
0.000789375
0.000801873
0.000814467
0.000832557
0.000850294
0.000867858
0.000886371
0.0009024
0.00091218
0.000915378
0.000913765
0.000908957
0.000902066
0.000894301
0.000887211
0.000882285
0.000880405
0.000881611
0.00065409
0.000733631
0.000779128
0.00079661
0.000809741
0.000824945
0.000837778
0.000848787
0.000859848
0.000868613
0.000871494
0.000867965
0.000860049
0.000850098
0.000839914
0.000831083
0.000825276
0.000823996
0.000828057
0.000837277
0.000664983
0.000726198
0.000767711
0.00078842
0.000802698
0.00081596
0.000824371
0.000828787
0.000832122
0.000833346
0.00082943
0.000819664
0.00080605
0.000791466
0.000778377
0.000768828
0.000764695
0.000767522
0.000778064
0.000795932
0.000674511
0.000720787
0.000756258
0.000777339
0.00079244
0.000804355
0.00080929
0.00080779
0.000803668
0.000797391
0.00078679
0.000771187
0.00075243
0.000733736
0.00071812
0.000708119
0.000705883
0.000713044
0.000730312
0.000757097
0.000682398
0.000716839
0.000745449
0.00076438
0.000778586
0.000789147
0.00079144
0.000785309
0.000774597
0.00076122
0.000744248
0.00072323
0.000699987
0.000677789
0.000660062
0.000649819
0.000649537
0.000660989
0.000684866
0.000720391
0.000688468
0.00071363
0.00073546
0.00075051
0.000761819
0.000769907
0.000770058
0.000760587
0.000744747
0.00072523
0.000702438
0.000676609
0.000649561
0.000624511
0.000605129
0.000594824
0.00059641
0.000611844
0.000641838
0.000685461
0.000692572
0.000710468
0.000725805
0.000735993
0.000743056
0.000747416
0.000744969
0.00073314
0.000713654
0.000689466
0.000661941
0.00063205
0.000601823
0.000574532
0.00055398
0.000543827
0.00054715
0.000566091
0.000601431
0.000652153
0.000694597
0.000706751
0.000716017
0.000720851
0.000722895
0.000722714
0.000716985
0.000702871
0.000680937
0.000653605
0.000622697
0.000589731
0.000557028
0.000528014
0.000506695
0.000496955
0.000502037
0.000524155
0.00056409
0.000620745
0.000694485
0.000702046
0.00070561
0.000704986
0.000701726
0.000696574
0.000687052
0.000670514
0.000646779
0.000617377
0.000584356
0.000549478
0.000515223
0.000485083
0.000463217
0.000453808
0.000460421
0.000485402
0.000529386
0.000591087
0.000692105
0.000696207
0.00069434
0.000688283
0.000679792
0.00066971
0.000656237
0.000637065
0.000611617
0.000580961
0.000546729
0.000511057
0.000476406
0.000446163
0.000424367
0.000415188
0.000422386
0.00044878
0.000495639
0.000561956
0.000679671
0.000677317
0.000665088
0.000647268
0.000627052
0.000606079
0.000583821
0.00055874
0.000529836
0.000497318
0.000462324
0.000426599
0.000392529
0.000363184
0.000342365
0.000334335
0.00034329
0.000372601
0.000423968
0.000496643
0.000621778
0.00061523
0.000599458
0.000577962
0.000553192
0.00052679
0.000499799
0.000472672
0.000445719
0.000419513
0.000394926
0.000372975
0.000354798
0.000341728
0.000335363
0.000337477
0.000349707
0.000373101
0.000407688
0.000452204
0.000548239
0.000541387
0.000527981
0.000510108
0.000489002
0.000465724
0.000441421
0.000417242
0.000394325
0.000373836
0.000356965
0.000344791
0.000338096
0.000337195
0.000341835
0.000351187
0.00036401
0.000378833
0.000394159
0.000408699
0.000473391
0.000467564
0.000457116
0.000443366
0.00042736
0.000410116
0.00039262
0.000375813
0.000360613
0.000347877
0.000338364
0.00033264
0.000330928
0.000332992
0.000338066
0.000344877
0.000351786
0.000357114
0.000359505
0.000358242
0.00040333
0.000398751
0.000391135
0.00038163
0.0003711
0.000360209
0.000349535
0.00033961
0.000330946
0.000324
0.000319122
0.000316487
0.000316005
0.000317255
0.000319486
0.000321716
0.000322866
0.000321966
0.000318382
0.000311961
0.000341757
0.000338597
0.000333573
0.000327477
0.000320935
0.000314431
0.000308352
0.000303005
0.000298619
0.000295334
0.000293165
0.000291997
0.000291567
0.000291485
0.00029126
0.000290353
0.00028826
0.000284611
0.00027925
0.00027229
0.000289379
0.000287252
0.000283932
0.000279973
0.000275838
0.000271892
0.000268413
0.000265582
0.000263492
0.000262148
0.000261464
0.000261265
0.000261277
0.000261141
0.000260448
0.000258796
0.000255862
0.00025147
0.00024564
0.000238596
0.000244742
0.00024325
0.000240958
0.000238265
0.000235512
0.000232979
0.000230876
0.000229341
0.000228438
0.000228148
0.000228361
0.000228876
0.000229404
0.000229593
0.000229065
0.000227474
0.000224567
0.000220239
0.000214568
0.000207808
0.000206695
0.000205613
0.000203964
0.000202044
0.000200109
0.000198376
0.000197009
0.000196117
0.000195745
0.000195868
0.000196385
0.000197115
0.0001978
0.000198134
0.000197789
0.000196469
0.000193956
0.00019017
0.000185187
0.00017924
0.00017439
0.000173572
0.000172326
0.000170877
0.000169423
0.000168133
0.000167136
0.000166519
0.000166318
0.000166517
0.000167031
0.000167713
0.000168352
0.000168693
0.000168464
0.000167417
0.000165373
0.000162263
0.000158152
0.000153233
0.000147244
0.000146598
0.000145608
0.000144453
0.00014329
0.000142255
0.000141451
0.000140948
0.000140779
0.000140932
0.00014134
0.000141887
0.000142403
0.000142683
0.000142506
0.000141674
0.000140039
0.000137547
0.000134248
0.000130301
0.000124983
0.000124452
0.000123633
0.000122673
0.000121701
0.000120827
0.000120135
0.000119685
0.000119504
0.000119583
0.000119873
0.00012028
0.000120669
0.000120875
0.000120722
0.000120047
0.000118734
0.000116738
0.000114099
0.000110942
0.000107596
0.000107144
0.000106443
0.000105617
0.000104776
0.00010401
0.000103393
0.000102974
0.000102777
0.000102796
0.000102993
0.00010329
0.000103578
0.000103724
0.000103581
0.000103018
0.000101939
0.000100307
9.81548e-05
9.55838e-05
9.53272e-05
9.49272e-05
9.43034e-05
9.35658e-05
9.28096e-05
9.21161e-05
9.15481e-05