/*--------------------------------*- C++ -*----------------------------------*\
| =========                 |                                                 |
| \\      /  F ield         | OpenFOAM: The Open Source CFD Toolbox           |
|  \\    /   O peration     | Version:  5.x                                   |
|   \\  /    A nd           | Web:      www.OpenFOAM.org                      |
|    \\/     M anipulation  |                                                 |
\*---------------------------------------------------------------------------*/
FoamFile
{
    version     2.0;
    format      ascii;
    class       volScalarField;
    location    "0.8";
    object      p;
}
// * * * * * * * * * * * * * * * * * * * * * * * * * * * * * * * * * * * * * //

dimensions      [0 2 -2 0 0 0 0];

internalField   nonuniform List<scalar> 
21600
(
0.044247151
0.041661518
0.036683576
0.03198878
0.028417847
0.025805104
0.023679998
0.021643277
0.019472961
0.017089547
0.01449991
0.011765124
0.0089886241
0.0063091302
0.0038888606
0.0018908806
0.0004371669
-0.00042326518
-0.00072384779
-0.00056675723
-9.0099255e-05
0.00056729887
0.0012897372
0.0019937807
0.0026276616
0.0031651138
0.0035980989
0.0039308756
0.0041751811
0.0043461044
0.0044591055
0.0045282564
0.0045655015
0.0045804709
0.0045806366
0.0045715631
0.0045572524
0.004540441
0.0045229177
0.0045057486
0.0044895077
0.0044744102
0.0044604604
0.0044475113
0.0044353561
0.0044237402
0.0044124202
0.0044011483
0.0043897166
0.0043779294
0.0043656411
0.0043527191
0.0043390802
0.0043246487
0.0043093942
0.0042932863
0.0042763344
0.0042585404
0.0042399407
0.0042205573
0.0042004426
0.0041796285
0.0041581745
0.0041361148
0.0041135101
0.0040903918
0.0040668179
0.004042814
0.0040184332
0.0039936943
0.0039686447
0.0039432965
0.003917692
0.0038918367
0.0038657687
0.0038394881
0.0038130298
0.0037863892
0.0037595987
0.0037326501
0.0037055742
0.0036783594
0.0036510359
0.0036235892
0.0035960492
0.0035683991
0.0035406686
0.003512839
0.0034849404
0.0034569519
0.0034289039
0.0034007738
0.0033725924
0.0033443351
0.0033160335
0.0032876608
0.0032592495
0.0032307708
0.003202258
0.0031736804
0.0031450721
0.0031164001
0.0030876999
0.0030589362
0.0030301456
0.0030012907
0.0029724095
0.0029434622
0.0029144885
0.002885446
0.0028563765
0.0028272352
0.0027980656
0.0027688204
0.0027395456
0.0027101909
0.002680805
0.0026513343
0.0026218307
0.0025922371
0.0025626087
0.0025328849
0.0025031243
0.0024732625
0.002443362
0.0024133541
0.0023833059
0.0023531436
0.0023229397
0.0022926147
0.002262247
0.002231751
0.0022012116
0.0021705362
0.0021398171
0.0021089541
0.0020780478
0.0020469893
0.0020158887
0.001984627
0.0019533254
0.0019218532
0.0018903442
0.0018586549
0.0018269331
0.0017950205
0.0017630812
0.00173094
0.0016987795
0.0016664051
0.0016340206
0.0016014093
0.0015687996
0.0015359491
0.0015031144
0.0014700235
0.0014369655
0.0014036345
0.0013703569
0.0013367877
0.0013032965
0.0012694933
0.0012357973
0.0012017663
0.0011678773
0.0011336274
0.0010995606
0.0010651037
0.0010308787
0.00099623053
0.00096187202
0.0009270525
0.00089259099
0.00085762521
0.0008230984
0.00078801769
0.00075347207
0.00071831526
0.00068380786
0.00064862291
0.00061422402
0.00057907076
0.00054486748
0.00050982016
0.00047592076
0.00044107245
0.00040761288
0.00037308132
0.0003402346
0.00030617072
0.00027416044
0.00024076017
0.00020988245
0.00017740581
0.00014806597
0.00011686389
8.9645884e-05
6.0178052e-05
3.6008505e-05
8.5489489e-06
0.039739148
0.038546807
0.035237478
0.031384926
0.02802877
0.025392722
0.023242918
0.021247566
0.019169324
0.016898292
0.014422911
0.011798557
0.009127367
0.0065476288
0.0042164916
0.0022800837
0.00084911209
-2.592725e-05
-0.00036695429
-0.00026141102
0.00016399501
0.00077569753
0.0014585042
0.0021282638
0.0027340461
0.0032498123
0.0036667418
0.0039881655
0.0042246855
0.0043902688
0.0044995009
0.0045658609
0.0046009132
0.0046140459
0.0046125821
0.0046019985
0.0045862508
0.0045680545
0.0045491937
0.0045307364
0.004513263
0.004496994
0.0044819384
0.004467951
0.004454826
0.0044423073
0.0044301492
0.004418099
0.0044059449
0.0043934859
0.0043805723
0.0043670666
0.004352882
0.0043379388
0.0043222036
0.0043056427
0.0042882634
0.0042700647
0.0042510817
0.0042313339
0.0042108728
0.0041897281
0.0041679589
0.0041455977
0.0041227049
0.0040993103
0.0040754718
0.0040512138
0.0040265892
0.0040016159
0.0039763413
0.0039507763
0.0039249636
0.0038989075
0.0038726465
0.0038461795
0.003819542
0.0037927281
0.003765771
0.003738661
0.0037114299
0.0036840647
0.0036565964
0.0036290092
0.0036013338
0.0035735523
0.0035456953
0.0035177426
0.0034897254
0.0034616214
0.0034334622
0.0034052237
0.0033769379
0.0033485786
0.0033201788
0.0032917101
0.0032632064
0.0032346372
0.0032060374
0.0031773743
0.0031486839
0.0031199312
0.0030911536
0.0030623135
0.0030334497
0.0030045225
0.0029755722
0.0029465563
0.0029175171
0.0028884097
0.0028592782
0.0028300751
0.0028008469
0.002771543
0.0027422126
0.0027128021
0.0026833634
0.0026538396
0.0026242859
0.0025946418
0.0025649659
0.0025351938
0.0025053881
0.0024754802
0.002445537
0.002415485
0.0023853962
0.0023551918
0.0023249492
0.002294584
0.0022641796
0.002233645
0.0022030707
0.0021723582
0.0021416061
0.0021107075
0.0020797698
0.0020486772
0.0020175467
0.0019862522
0.0019549222
0.0019234185
0.0018918826
0.0018601628
0.0018284155
0.0017964736
0.0017645101
0.0017323406
0.0017001571
0.0016677553
0.0016353491
0.0016027114
0.0015700812
0.001537205
0.0015043509
0.0014712351
0.0014381589
0.0014048037
0.0013715089
0.0013379162
0.0013044089
0.0012705828
0.0012368717
0.0012028184
0.0011689153
0.0011346435
0.0011005636
0.0010660853
0.0010318482
0.00099717914
0.00096280945
0.00092796941
0.00089349766
0.00085851172
0.00082397562
0.00078887505
0.00075432108
0.0007191447
0.00068462989
0.00064942562
0.00061502028
0.00057984793
0.00054563915
0.00051057296
0.00047666903
0.00044180207
0.00040833896
0.00037378897
0.00034093974
0.0003068577
0.00027484597
0.00024142789
0.00021054986
0.00017805588
0.00014871702
0.00011749826
9.0282982e-05
6.0798876e-05
3.663368e-05
9.1685861e-06
0.03651469
0.036038364
0.033926382
0.030899028
0.027826822
0.025160272
0.022921144
0.020904305
0.01888537
0.016727134
0.014394011
0.011928912
0.0094272723
0.0070166695
0.0048345001
0.0030045536
0.0016198225
0.00072612559
0.00031239779
0.00031293678
0.00062432372
0.001130199
0.0017243594
0.0023244771
0.0028749204
0.0033469512
0.0037319543
0.0040324991
0.0042570946
0.0044170475
0.0045245148
0.0045911613
0.0046273748
0.0046418501
0.0046415414
0.0046317527
0.004616388
0.0045981753
0.0045789493
0.0045598414
0.004541501
0.0045242099
0.0045080334
0.0044928693
0.0044785485
0.0044648403
0.0044515209
0.0044383505
0.0044251292
0.0044116604
0.0043977987
0.0043834051
0.0043683933
0.0043526795
0.004336229
0.0043190031
0.0043010072
0.004282235
0.0042627197
0.0042424755
0.0042215525
0.0041999756
0.0041778029
0.0041550624
0.0041318141
0.0041080841
0.00408393
0.0040593729
0.0040344661
0.0040092242
0.0039836957
0.0039578883
0.0039318457
0.0039055696
0.0038790997
0.0038524323
0.0038256042
0.0037986071
0.0037714755
0.0037441974
0.0037168062
0.0036892863
0.0036616706
0.0036339408
0.0036061295
0.0035782162
0.0035502335
0.0035221587
0.0034940251
0.0034658077
0.0034375406
0.0034091966
0.0033808103
0.0033523528
0.0033238594
0.003295299
0.0032667079
0.0032380529
0.0032093714
0.0031806278
0.0031518609
0.0031230327
0.0030941832
0.0030652721
0.003036341
0.0030073468
0.0029783331
0.0029492541
0.0029201553
0.0028909883
0.0028618006
0.0028325412
0.00280326
0.0027739028
0.0027445224
0.0027150614
0.0026855755
0.0026560038
0.0026264055
0.0025967158
0.0025669977
0.0025371823
0.0025073368
0.0024773876
0.0024474067
0.0024173154
0.0023871908
0.002356949
0.0023266725
0.0022962715
0.002265835
0.0022352662
0.0022046614
0.0021739163
0.0021431353
0.0021122054
0.0020812404
0.0020501176
0.0020189613
0.0019876379
0.0019562833
0.0019247518
0.0018931927
0.0018614462
0.0018296769
0.0017977092
0.001765725
0.0017335305
0.0017013275
0.0016689016
0.001636477
0.0016038159
0.0015711683
0.0015382695
0.001505399
0.0014722614
0.0014391697
0.0014057932
0.001372484
0.0013388705
0.0013053498
0.0012715034
0.0012377799
0.0012037066
0.001169792
0.0011355007
0.0011014102
0.0010669128
0.001032666
0.000997978
0.00096359953
0.00092874082
0.00089426122
0.00085925677
0.00082471373
0.00078959478
0.00075503481
0.00071984012
0.00068532025
0.00065009768
0.00061568823
0.00058049755
0.00054628565
0.00051120103
0.00047729498
0.00044240944
0.00040894524
0.00037437648
0.0003415272
0.00030742615
0.00027541542
0.00024197806
0.00021110207
0.00017858852
0.00014925269
0.00011801411
9.080272e-05
6.1300327e-05
3.7117398e-05
9.6188147e-06
0.034227332
0.034015652
0.032592516
0.030231358
0.027504523
0.02490534
0.022618626
0.020573803
0.018598546
0.016550284
0.014372289
0.012089187
0.0097809827
0.007557599
0.005535912
0.0038207051
0.0024909002
0.0015880302
0.0011090373
0.0010063297
0.0011981463
0.0015865261
0.0020766286
0.0025904427
0.0030729154
0.0034933868
0.0038406781
0.004115108
0.0043228481
0.0044727713
0.0045748031
0.004638821
0.0046739425
0.0046880286
0.0046875279
0.0046774541
0.0046615684
0.0046425434
0.0046222195
0.0046017621
0.0045818752
0.0045628958
0.0045449459
0.0045279693
0.004511838
0.0044963464
0.0044812948
0.0044664608
0.004451661
0.0044367052
0.0044214538
0.0044057654
0.0043895534
0.0043727272
0.0043552494
0.0043370726
0.0043181985
0.004298612
0.0042783429
0.0042573971
0.0042358219
0.0042136348
0.0041908921
0.0041676154
0.0041438638
0.0041196578
0.0040950551
0.0040700718
0.004044762
0.004019136
0.0039932434
0.003967088
0.0039407152
0.0039141228
0.0038873526
0.0038603971
0.0038332953
0.0038060352
0.0037786538
0.0037511355
0.0037235159
0.0036957764
0.0036679517
0.0036400207
0.0036120182
0.0035839203
0.0035557622
0.003527518
0.0034992234
0.0034708503
0.003442435
0.0034139475
0.0033854249
0.0033568349
0.0033282156
0.0032995327
0.0032708252
0.0032420566
0.0032132673
0.0031844182
0.0031555512
0.0031266248
0.0030976823
0.0030686797
0.0030396618
0.0030105823
0.0029814877
0.0029523289
0.0029231545
0.0028939128
0.0028646545
0.002835325
0.0028059777
0.0027765546
0.0027471123
0.0027175894
0.0026880454
0.0026584155
0.0026287626
0.002599018
0.0025692486
0.0025393814
0.0025094876
0.0024794895
0.002449463
0.0024193254
0.002389158
0.0023588721
0.0023285553
0.0022981126
0.002267638
0.0022370295
0.0022063888
0.002175606
0.002144791
0.0021138252
0.0020828281
0.0020516711
0.0020204845
0.0019891284
0.0019577452
0.0019261825
0.0018945963
0.0018628199
0.001831025
0.0017990287
0.0017670203
0.0017347984
0.0017025725
0.0016701202
0.0016376741
0.0016049876
0.0015723197
0.0015393964
0.0015065068
0.0014733455
0.0014402358
0.0014068365
0.0013735103
0.0013398747
0.0013063381
0.0012724702
0.0012387318
0.0012046376
0.0011707092
0.0011363975
0.0011022941
0.0010677767
0.001033518
0.00099881048
0.00096442101
0.00092954312
0.00089505341
0.00086003009
0.00082547784
0.00079034027
0.00075577194
0.00072055883
0.00068603145
0.00065079062
0.00061637448
0.00058116565
0.00054694783
0.00051184512
0.0004779339
0.0004430303
0.00040956158
0.00037497475
0.00034212149
0.00030800236
0.00027598795
0.00024253251
0.00021165276
0.0001791212
0.00014978077
0.00011852486
9.1305436e-05
6.1792422e-05
3.754618e-05
1.0006301e-05
0.032402747
0.032269757
0.031221768
0.029350334
0.026993363
0.024558773
0.022299793
0.020252358
0.018316481
0.016371083
0.014347617
0.012248509
0.010132871
0.0080910163
0.0062214769
0.0046141227
0.0033378653
0.0024315141
0.0018982399
0.001704677
0.0017870812
0.0020641802
0.002452803
0.0028809511
0.003295559
0.0036645972
0.0039739254
0.004221128
0.0044101429
0.0045478723
0.0046424517
0.0047022077
0.004735036
0.0047479063
0.004746669
0.0047359553
0.0047193079
0.0046992857
0.0046776939
0.0046557045
0.0046340609
0.004613147
0.0045931414
0.0045740355
0.0045557486
0.00453811
0.0045209532
0.0045040769
0.0044873183
0.0044704957
0.0044534794
0.0044361276
0.0044183563
0.0044000694
0.0043812283
0.0043617778
0.0043417171
0.0043210222
0.0042997199
0.0042778072
0.0042553288
0.0042322939
0.0042087569
0.0041847318
0.0041602767
0.0041354053
0.0041101751
0.0040845961
0.0040587232
0.0040325609
0.0040061601
0.0039795197
0.0039526865
0.0039256539
0.0038984654
0.0038711092
0.0038436264
0.0038160008
0.0037882716
0.0037604193
0.0037324817
0.0037044362
0.0036763204
0.003648109
0.0036198394
0.0035914842
0.0035630811
0.0035346004
0.0035060806
0.0034774899
0.0034488674
0.0034201794
0.0033914659
0.0033626908
0.0033338953
0.0033050414
0.003276171
0.0032472441
0.0032183039
0.0031893081
0.0031603013
0.0031312386
0.0031021662
0.0030730369
0.0030438985
0.003014701
0.0029854942
0.0029562254
0.0029269466
0.0028976023
0.0028682466
0.0028388213
0.002809383
0.0027798705
0.0027503433
0.0027207366
0.0026911132
0.0026614048
0.0026316776
0.0026018594
0.0025720205
0.0025420841
0.0025121251
0.0024820619
0.0024519743
0.0024217755
0.0023915506
0.0023612071
0.0023308363
0.0023003392
0.0022698138
0.002239154
0.0022084654
0.0021776341
0.002146774
0.0021157623
0.0020847228
0.0020535223
0.0020222956
0.0019908982
0.0019594773
0.0019278754
0.0018962536
0.00186444
0.0018326115
0.0018005797
0.0017685395
0.0017362839
0.0017040281
0.0016715435
0.0016390691
0.0016063518
0.0015736572
0.0015407045
0.0015077896
0.0014746001
0.0014414667
0.0014080402
0.0013746917
0.00134103
0.0013074723
0.0012735793
0.001239821
0.0012057027
0.0011717554
0.0011374204
0.0011032994
0.0010687594
0.0010344841
0.0009997547
0.00096534958
0.00093045046
0.00089594606
0.00086090209
0.00082633601
0.00079117831
0.00075659698
0.00072136421
0.00068682455
0.00065156451
0.00061713673
0.00058190909
0.00054768014
0.00051255901
0.000478637
0.00044371536
0.00041023595
0.00037563149
0.00034276723
0.00030863096
0.00027660464
0.00024313269
0.00021223906
0.00017969202
0.00015033353
0.00011906517
9.181605e-05
6.2305452e-05
3.7934188e-05
1.0349273e-05
0.030827307
0.030706238
0.029866998
0.028343587
0.026332809
0.024126304
0.021967641
0.019957644
0.018068107
0.016215338
0.014332675
0.012405278
0.010469959
0.0085965523
0.0068670358
0.0053591032
0.004134194
0.0032294097
0.0026527225
0.0023817039
0.0023672619
0.0025427307
0.0028362655
0.0031826866
0.0035316241
0.0038503239
0.004122055
0.0043416731
0.004510954
0.0046350989
0.0047207816
0.0047750138
0.0048045713
0.0048155313
0.0048130976
0.004801458
0.0047838837
0.0047627767
0.0047398769
0.0047163398
0.0046929333
0.0046700771
0.0046479997
0.0046267359
0.0046062516
0.0045864104
0.0045670807
0.0045480807
0.0045292691
0.0045104732
0.0044915751
0.0044724337
0.0044529704
0.0044330845
0.0044127391
0.0043918713
0.0043704802
0.0043485328
0.0043260549
0.0043030343
0.0042795146
0.0042554959
0.004231032
0.0042061284
0.0041808434
0.0041551826
0.0041292047
0.0041029124
0.004076362
0.0040495517
0.0040225345
0.0039953031
0.003967907
0.0039403337
0.0039126297
0.0038847778
0.0038568221
0.0038287413
0.0038005777
0.0037723066
0.0037439694
0.0037155385
0.0036870548
0.0036584882
0.0036298798
0.0036011971
0.0035724815
0.0035436988
0.0035148906
0.0034860209
0.0034571322
0.0034281862
0.0033992264
0.0033702126
0.0033411891
0.0033121138
0.003283032
0.0032538997
0.0032247633
0.0031955766
0.0031663874
0.0031371471
0.003107905
0.0030786102
0.0030493136
0.0030199619
0.0029906076
0.0029611949
0.0029317784
0.0029022996
0.0028728154
0.0028432643
0.002813706
0.0027840758
0.0027544362
0.0027247193
0.0026949908
0.0026651791
0.0026353534
0.0026054384
0.002575507
0.0025454798
0.0025154341
0.0024852856
0.0024551165
0.0024248375
0.0023945361
0.0023641172
0.0023336744
0.0023031063
0.0022725132
0.0022417865
0.0022110342
0.0021801397
0.0021492197
0.0021181484
0.0020870523
0.0020557956
0.0020245156
0.0019930651
0.0019615939
0.0019299417
0.0018982724
0.0018664112
0.0018345379
0.001802461
0.0017703785
0.0017380801
0.0017057843
0.0016732592
0.0016407469
0.0016079911
0.0015752607
0.0015422713
0.0015093227
0.0014760982
0.0014429327
0.0014094731
0.0013760942
0.0013424008
0.0013088144
0.0012748911
0.0012411055
0.0012069583
0.0011729852
0.0011386225
0.0011044769
0.0010699104
0.0010356117
0.0010008569
0.00096642955
0.00093150597
0.00089698036
0.00086191289
0.0008273265
0.00079214619
0.00075754529
0.00072229077
0.00068773215
0.00065245119
0.00061800484
0.00058275712
0.00054850972
0.00051336935
0.00047942865
0.0004444887
0.00041098986
0.00037636813
0.00034348292
0.00030933063
0.0002772806
0.00024379434
0.00021287204
0.00018031356
0.00015091666
0.00011964428
9.2332099e-05
6.2842052e-05
3.8271008e-05
1.0639236e-05
0.029413218
0.02928464
0.028575455
0.027305303
0.025591774
0.023631062
0.021622602
0.019691415
0.017862044
0.01609348
0.014333314
0.01255803
0.010785367
0.0090654684
0.0074644933
0.0060491451
0.0048747886
0.0039772303
0.0033680227
0.0030330093
0.0029347577
0.0030191185
0.0032249525
0.0034942665
0.0037799795
0.0040493349
0.0042836398
0.004475291
0.0046239918
0.0047333684
0.0048088328
0.004856272
0.0048814609
0.0048896234
0.0048853055
0.004872217
0.0048533217
0.0048308332
0.0048064024
0.0047811491
0.004755852
0.0047309548
0.0047067283
0.0046832432
0.0046605082
0.0046384168
0.00461687
0.0045957027
0.0045747943
0.0045539791
0.0045331521
0.0045121722
0.0044909677
0.0044694328
0.0044475337
0.0044251994
0.0044024299
0.0043791826
0.0043554832
0.0043313093
0.0043067045
0.0042816585
0.0042562257
0.0042304017
0.0042042459
0.0041777548
0.0041509889
0.0041239426
0.0040966747
0.0040691755
0.0040415014
0.0040136377
0.0039856378
0.0039574821
0.0039292212
0.0039008313
0.0038723609
0.0038437821
0.003815142
0.0037864093
0.0037576304
0.0037287712
0.0036998775
0.0036709133
0.0036419242
0.0036128721
0.0035838029
0.0035546767
0.0035255398
0.0034963505
0.003467156
0.0034379124
0.0034086679
0.0033793768
0.0033500879
0.0033207539
0.0032914246
0.0032620507
0.0032326831
0.0032032705
0.0031738651
0.0031444135
0.0031149692
0.0030854765
0.0030559905
0.0030264532
0.0029969214
0.0029673348
0.0029377519
0.0029081099
0.0028784695
0.0028487653
0.0028190603
0.0027892862
0.0027595089
0.0027296568
0.0026997988
0.00266986
0.0026399125
0.0026098779
0.002579832
0.0025496922
0.0025195386
0.0024892841
0.0024590134
0.0024286345
0.0023982372
0.0023677241
0.0023371909
0.0023065339
0.0022758555
0.002245045
0.0022142122
0.0021832385
0.0021522424
0.0021210963
0.0020899283
0.0020586009
0.0020272529
0.0019957356
0.0019642
0.0019324846
0.0019007544
0.0018688334
0.0018369024
0.0018047689
0.0017726318
0.0017402798
0.0017079321
0.0016753563
0.0016427948
0.0016099909
0.0015772139
0.0015441789
0.0015111859
0.0014779181
0.0014447106
0.0014112098
0.0013777909
0.0013440584
0.0013104339
0.0012764735
0.0012426516
0.001208469
0.0011744613
0.0011400649
0.0011058862
0.0010712878
0.0010369574
0.001002172
0.00096771418
0.00093276159
0.00089820654
0.00086311148
0.00082849653
0.00079328999
0.00075866115
0.00072338174
0.00068879555
0.00065349108
0.0006190172
0.00058374735
0.00054947198
0.00051431098
0.00048034125
0.00044538234
0.00041185253
0.00037721381
0.00034429432
0.00031012751
0.00027803772
0.00024454044
0.00021356894
0.0001810054
0.00015154139
0.00012027768
9.2856677e-05
6.3407891e-05
3.855632e-05
1.0886384e-05
0.028122954
0.027985579
0.027368668
0.026289825
0.024821585
0.02309467
0.021260431
0.019440171
0.017688572
0.016001071
0.014346626
0.012702398
0.011073186
0.009491864
0.0080095159
0.0066822421
0.0055595069
0.00467552
0.0040442975
0.0036579741
0.0034884531
0.0034922494
0.0036180706
0.0038151284
0.004040132
0.0042610698
0.0044580042
0.0046212898
0.0047486955
0.0048423222
0.0049064121
0.0049458585
0.0049655538
0.0049699376
0.0049629202
0.0049477245
0.0049269854
0.0049027032
0.0048764183
0.0048491956
0.00482181
0.0047947159
0.0047682169
0.0047424108
0.0047173435
0.0046929322
0.0046691072
0.0046457169
0.0046226601
0.0045997763
0.0045769733
0.0045541091
0.0045311198
0.0045078937
0.0044844012
0.0044605624
0.0044363791
0.004411798
0.004386846
0.0043614891
0.0043357719
0.0043096726
0.0042832472
0.0042564799
0.0042294324
0.0042020907
0.0041745183
0.0041466996
0.0041186973
0.0040904924
0.0040621457
0.0040336338
0.0040050151
0.0039762615
0.0039474293
0.0039184863
0.0038894868
0.003860395
0.0038312639
0.0038020545
0.0037728192
0.0037435163
0.003714198
0.0036848203
0.0036554356
0.0036259978
0.0035965596
0.0035670733
0.003537592
0.0035080662
0.0034785497
0.0034489913
0.0034194455
0.0033898595
0.0033602885
0.0033306779
0.003301084
0.0032714504
0.0032418343
0.0032121776
0.0031825387
0.0031528573
0.0031231931
0.0030934841
0.003063791
0.0030340498
0.0030043229
0.0029745439
0.002944777
0.0029149535
0.0028851394
0.0028552639
0.0028253949
0.0027954591
0.0027655269
0.0027355219
0.0027055176
0.0026754342
0.0026453484
0.0026151771
0.0025850003
0.0025547312
0.0025244537
0.0024940768
0.0024636888
0.002433194
0.0024026856
0.0023720627
0.0023414242
0.0023106632
0.0022798849
0.0022489758
0.0022180482
0.0021869811
0.002155895
0.0021246604
0.002093407
0.0020619956
0.0020305664
0.0019989695
0.0019673568
0.0019355658
0.0019037624
0.0018717697
0.001839769
0.0018075675
0.0017753641
0.0017429474
0.0017105367
0.0016778995
0.001645278
0.0016124158
0.0015795815
0.0015464912
0.0015134436
0.0014801233
0.0014468636
0.0014133128
0.0013798441
0.0013460642
0.001312392
0.0012783865
0.001244519
0.0012102936
0.001176242
0.001141805
0.0011075841
0.001072947
0.0010385759
0.001003754
0.00096925663
0.00093426933
0.00089967582
0.00086454796
0.00082989531
0.00079465784
0.00075999168
0.00072468322
0.00069005972
0.0006547282
0.00062021648
0.00058492168
0.0005506072
0.00051542355
0.00048141249
0.00044643361
0.00041285888
0.00037820343
0.00034523327
0.00031105394
0.00027890427
0.00024540054
0.00021435373
0.0001817939
0.0001522264
0.00012098687
9.3402415e-05
6.4012801e-05
3.8804869e-05
1.1117099e-05
0.026938334
0.026797244
0.026253183
0.025322395
0.024053758
0.022535413
0.020878851
0.019188402
0.01753085
0.015926832
0.014366846
0.012835503
0.01133141
0.0098743912
0.0085019709
0.0072596781
0.0061905365
0.0053264083
0.0046827479
0.0042565351
0.0040272794
0.0039605879
0.0040140397
0.0041438067
0.0043107553
0.0044843095
0.0046439953
0.0047786049
0.0048841661
0.0049612896
0.0050130718
0.0050434863
0.0050566423
0.0050562809
0.0050457259
0.0050277278
0.0050045854
0.0049780673
0.0049495827
0.004920122
0.0048904391
0.0048609849
0.0048320845
0.0048038538
0.0047763686
0.0047495643
0.0047233965
0.0046977242
0.0046724639
0.0046474589
0.0046226293
0.0045978317
0.0045730098
0.0045480463
0.0045229156
0.0044975289
0.0044718903
0.0044459356
0.004419693
0.0043931169
0.004366253
0.004339068
0.0043116193
0.0042838799
0.0042559138
0.0042276961
0.0041992935
0.00417068
0.0041419227
0.0041129925
0.0040839552
0.0040547779
0.0040255246
0.0039961581
0.0039667407
0.0039372312
0.0039076904
0.0038780737
0.0038484408
0.0038187441
0.0037890428
0.0037592865
0.0037295347
0.0036997348
0.0036699463
0.0036401146
0.0036102999
0.0035804457
0.0035506128
0.003520743
0.0034908978
0.0034610172
0.0034311637
0.0034012755
0.003371416
0.0033415216
0.0033116567
0.0032817561
0.0032518851
0.0032219769
0.0031920977
0.0031621791
0.0031322884
0.0031023552
0.0030724483
0.0030424952
0.0030125661
0.0029825865
0.0029526283
0.0029226148
0.0028926198
0.0028625642
0.0028325237
0.0028024171
0.0027723223
0.0027421553
0.0027119966
0.0026817595
0.0026515272
0.0026212097
0.0025908938
0.0025604857
0.0025300759
0.0024995669
0.002469053
0.0024384325
0.0024078044
0.0023770618
0.0023463093
0.0023154343
0.0022845474
0.0022535298
0.0022224987
0.0021913282
0.0021601434
0.0021288103
0.0020974628
0.0020659575
0.0020344386
0.0020027521
0.0019710537
0.0019391775
0.0019072922
0.0018752182
0.0018431393
0.0018108602
0.0017785821
0.0017460915
0.0017136093
0.0016809016
0.0016482118
0.0016152824
0.0015823827
0.0015492282
0.0015161179
0.0014827365
0.0014494166
0.0014158076
0.0013822811
0.0013484457
0.001314718
0.0012806596
0.0012467386
0.0012124627
0.0011783594
0.0011438745
0.0011096036
0.001074921
0.0010405012
0.001005636
0.00097109108
0.00093606288
0.00090142261
0.0008662562
0.00083155725
0.00079628359
0.00076157107
0.00072622885
0.0006915584
0.00065619578
0.00062163578
0.00058631274
0.0005519476
0.00051673897
0.00048267349
0.00044767351
0.0004140386
0.00037936689
0.0003463277
0.00031213847
0.00027990597
0.00024640152
0.00021524948
0.00018270352
0.00015299182
0.00012179154
9.3986895e-05
6.4665659e-05
3.9040953e-05
1.1360439e-05
0.025848315
0.02570984
0.025226771
0.024413539
0.023306896
0.021968416
0.020480102
0.01892666
0.017374782
0.015859526
0.014388589
0.012956767
0.011562134
0.01021627
0.0089455091
0.0077851907
0.0067713049
0.0059324959
0.0052846984
0.0048286015
0.0045499853
0.004422218
0.0044107544
0.0044783176
0.0045901271
0.0047176067
0.0048403843
0.0049461797
0.005029524
0.0050896005
0.0051283627
0.0051488958
0.0051545988
0.0051485987
0.0051336974
0.0051122085
0.0050861006
0.0050569014
0.0050258697
0.0049939025
0.0049617138
0.0049297371
0.0048983058
0.0048675456
0.0048375542
0.0048082808
0.0047797013
0.004751684
0.0047241604
0.0046969772
0.0046700652
0.00464328
0.0046165719
0.0045898187
0.0045629984
0.0045360139
0.0045088709
0.0044814954
0.004453916
0.0044260767
0.0043980236
0.0043697125
0.0043412016
0.0043124536
0.0042835337
0.0042544072
0.004225143
0.0041957057
0.0041661654
0.0041364841
0.0041067314
0.0040768659
0.004046956
0.0040169564
0.0039869343
0.0039568405
0.0039267413
0.0038965839
0.0038664341
0.0038362361
0.0038060554
0.0037758335
0.0037456364
0.0037154032
0.0036852004
0.0036549651
0.0036247645
0.0035945337
0.0035643409
0.0035341193
0.003503938
0.0034737283
0.0034435604
0.0034133637
0.0033832096
0.0033530257
0.0033228844
0.0032927115
0.0032625808
0.0032324161
0.0032022924
0.0031721318
0.0031420106
0.0031118488
0.0030817241
0.0030515548
0.0030214199
0.0029912356
0.0029610827
0.0029308752
0.0029006957
0.0028704559
0.0028402407
0.0028099591
0.0027796985
0.0027493652
0.0027190491
0.0026886537
0.0026582717
0.0026278036
0.0025973452
0.0025667937
0.0025362483
0.0025056023
0.0024749592
0.002444208
0.0024134567
0.0023825893
0.0023517192
0.002320725
0.0022897258
0.0022585942
0.0022274559
0.0021961764
0.0021648891
0.0021334516
0.002102006
0.0020704009
0.0020387881
0.002007006
0.0019752178
0.00194325
0.0019112787
0.0018791169
0.0018469556
0.0018145925
0.0017822353
0.0017496642
0.0017171061
0.0016843213
0.0016515586
0.0016185552
0.0015855855
0.0015523602
0.0015191826
0.0014857332
0.0014523485
0.0014186744
0.0013850854
0.0013511878
0.0013173996
0.0012832816
0.001249302
0.0012149692
0.001180809
0.0011462698
0.0011119433
0.001077209
0.0010427348
0.0010078205
0.00097322197
0.00093814715
0.00090345374
0.0008682434
0.00083349128
0.00079817645
0.00076341005
0.00072802959
0.00069330387
0.00065790631
0.00062328864
0.00058793434
0.00055350773
0.00051827209
0.00048413949
0.00044911773
0.0004154074
0.00038072046
0.00034759347
0.00031339764
0.00028105863
0.0002475597
0.00021627182
0.00018374933
0.00015385358
0.0001227029
9.4627433e-05
6.5370572e-05
3.929152e-05
1.1636971e-05
0.024844518
0.024714545
0.024284324
0.02356686
0.02259203
0.021405971
0.020070169
0.018652087
0.017211891
0.015790576
0.01440731
0.013066513
0.011769178
0.010522808
0.0093454169
0.0082632683
0.0073051854
0.0064958948
0.00585092
0.005373649
0.0050549932
0.0048749166
0.004805789
0.004816395
0.0048763349
0.0049594346
0.0050459617
0.0051230329
0.0051839675
0.0052266326
0.0052518546
0.0052618433
0.0052593313
0.0052469036
0.0052269077
0.0052012681
0.0051716427
0.0051393189
0.0051053911
0.0050706464
0.0050357402
0.0050010744
0.0049669775
0.004933577
0.0049009843
0.0048691587
0.0048380918
0.0048076598
0.0047778066
0.0047483825
0.0047193267
0.0046904945
0.0046618414
0.0046332414
0.0046046744
0.0045760374
0.0045473355
0.0045184871
0.0044895196
0.0044603684
0.0044310781
0.0044015959
0.004371979
0.0043421812
0.0043122677
0.0042821953
0.0042520335
0.0042217392
0.0041913835
0.0041609213
0.0041304242
0.0040998438
0.0040692514
0.0040385948
0.0040079446
0.0039772451
0.0039465664
0.0039158492
0.0038851635
0.0038544469
0.0038237697
0.0037930667
0.0037624088
0.0037317285
0.0037010975
0.0036704461
0.0036398469
0.0036092284
0.0035786641
0.0035480806
0.0035175527
0.0034870047
0.0034565129
0.0034259996
0.0033955423
0.0033650615
0.003334636
0.0033041842
0.0032737866
0.0032433595
0.0032129849
0.0031825769
0.0031522192
0.0031218239
0.0030914764
0.0030610863
0.0030307409
0.0030003477
0.0029699958
0.0029395903
0.0029092226
0.0028787951
0.0028484015
0.0028179418
0.0027875121
0.0027570094
0.0027265328
0.0026959763
0.0026654419
0.0026348202
0.002604217
0.002573519
0.0025428357
0.00251205
0.0024812756
0.0024503909
0.0024195144
0.0023885194
0.0023575298
0.0023264135
0.0022953002
0.0022640516
0.0022328042
0.0022014126
0.0021700211
0.0021384762
0.0021069308
0.0020752225
0.0020435143
0.0020116332
0.0019797535
0.0019476905
0.0019156315
0.0018833784
0.0018511329
0.001818682
0.0017862439
0.0017535883
0.0017209526
0.0016880865
0.001655249
0.0016221676
0.0015891259
0.0015558254
0.0015225784
0.0014890567
0.0014556049
0.0014218613
0.0013882074
0.001354243
0.0013203919
0.0012862098
0.0012521689
0.0012177745
0.0011835545
0.0011489563
0.0011145713
0.0010797807
0.0010452487
0.0010102807
0.00097562477
0.00094049902
0.00090574816
0.00087048984
0.00083567961
0.0008003199
0.00076549392
0.00073007196
0.00069528428
0.00065984914
0.00062516589
0.00058977843
0.00055528087
0.0005200173
0.00048580608
0.00045076286
0.00041696298
0.00038226271
0.00034903032
0.00031483165
0.00028236403
0.00024887633
0.00021742499
0.00018493254
0.00015481923
0.00012372013
9.5336255e-05
6.6124899e-05
3.9579239e-05
1.1951621e-05
0.023920086
0.023804002
0.023420758
0.022782708
0.021915883
0.020857844
0.019656624
0.018366268
0.01703856
0.015714428
0.014419226
0.013164673
0.011955848
0.010799072
0.009706861
0.0086981294
0.007795047
0.0070180955
0.0063816275
0.0058907745
0.0055405145
0.0053163385
0.0051966227
0.0051556832
0.0051673936
0.0052082291
0.0052595201
0.0053082109
0.0053467196
0.0053717586
0.0053830776
0.0053820246
0.0053706894
0.0053511665
0.0053254085
0.0052950037
0.0052613286
0.0052254419
0.0051882665
0.0051504679
0.0051126258
0.0050750974
0.0050381926
0.0050020336
0.0049667369