/*--------------------------------*- C++ -*----------------------------------*\
| =========                 |                                                 |
| \\      /  F ield         | OpenFOAM: The Open Source CFD Toolbox           |
|  \\    /   O peration     | Version:  5.x                                   |
|   \\  /    A nd           | Web:      www.OpenFOAM.org                      |
|    \\/     M anipulation  |                                                 |
\*---------------------------------------------------------------------------*/
FoamFile
{
    version     2.0;
    format      ascii;
    class       surfaceScalarField;
    location    "0.8";
    object      phi;
}
// * * * * * * * * * * * * * * * * * * * * * * * * * * * * * * * * * * * * * //

dimensions      [0 3 -1 0 0 0 0];

internalField   nonuniform List<scalar> 
42870
(
7.8541337e-08
2.935133e-09
-8.147647e-08
7.4593684e-08
3.9476524e-09
7.0432159e-08
4.161525e-09
6.6322551e-08
4.1096083e-09
6.225495e-08
4.0676007e-09
5.8185598e-08
4.0693523e-09
5.4106532e-08
4.0790662e-09
5.0037277e-08
4.0692547e-09
4.6017689e-08
4.0195878e-09
4.2096894e-08
3.9207952e-09
3.8327772e-08
3.7691223e-09
3.4765448e-08
3.5623239e-09
3.1470495e-08
3.2949532e-09
2.8499483e-08
2.971012e-09
2.5893018e-08
2.6064654e-09
2.367906e-08
2.2139576e-09
2.1860152e-08
1.8189084e-09
2.0411343e-08
1.4488087e-09
1.9285986e-08
1.1253566e-09
1.8426581e-08
8.5940499e-10
1.7774172e-08
6.5240923e-10
1.7274853e-08
4.9931908e-10
1.6882969e-08
3.9188402e-10
1.6562021e-08
3.2094802e-10
1.6285518e-08
2.765031e-10
1.603459e-08
2.5092798e-10
1.579592e-08
2.3866997e-10
1.5561173e-08
2.3474715e-10
1.5326098e-08
2.3507496e-10
1.5089275e-08
2.3682257e-10
1.4851015e-08
2.3825996e-10
1.461251e-08
2.385052e-10
1.4375307e-08
2.3720331e-10
1.4140947e-08
2.3435939e-10
1.3910805e-08
2.3014183e-10
1.3685977e-08
2.2482806e-10
1.3467285e-08
2.1869248e-10
1.3255265e-08
2.1201981e-10
1.3050231e-08
2.050342e-10
1.2852287e-08
1.9794409e-10
1.26614e-08
1.9088716e-10
1.247741e-08
1.8398959e-10
1.2300095e-08
1.773149e-10
1.2129166e-08
1.7092866e-10
1.1964321e-08
1.6484491e-10
1.180523e-08
1.5909163e-10
1.1651576e-08
1.5365376e-10
1.1503034e-08
1.4854231e-10
1.1359304e-08
1.4372948e-10
1.1220087e-08
1.39217e-10
1.1085117e-08
1.3496989e-10
1.095413e-08
1.3098722e-10
1.0826898e-08
1.2723208e-10
1.0703194e-08
1.2370429e-10
1.0582826e-08
1.2036729e-10
1.0465603e-08
1.1722314e-10
1.0351367e-08
1.1423672e-10
1.0239954e-08
1.1141307e-10
1.0131235e-08
1.0871894e-10
1.0025072e-08
1.0616248e-10
9.9213597e-09
1.0371241e-10
9.8199799e-09
1.0137981e-10
9.7208448e-09
9.9135128e-11
9.6238527e-09
9.6992063e-11
9.5289302e-09
9.4922463e-11
9.435988e-09
9.2942218e-11
9.3449637e-09
9.1024226e-11
9.2557776e-09
8.9186122e-11
9.1683761e-09
8.7401561e-11
9.0826866e-09
8.5689513e-11
8.9986625e-09
8.4024112e-11
8.9162372e-09
8.2425345e-11
8.8353696e-09
8.0867633e-11
8.7559979e-09
7.9371682e-11
8.6780859e-09
7.7912097e-11
8.6015758e-09
7.6510095e-11
8.5264354e-09
7.5140417e-11
8.4526108e-09
7.3824606e-11
8.3800732e-09
7.2537551e-11
8.3087722e-09
7.1300981e-11
8.2386822e-09
7.0089964e-11
8.1697559e-09
6.8926274e-11
8.1019706e-09
6.7785251e-11
8.035282e-09
6.6688623e-11
7.9696699e-09
6.5612061e-11
7.9050928e-09
6.4577119e-11
7.8415329e-09
6.3559921e-11
7.7789511e-09
6.2581728e-11
7.7173319e-09
6.161923e-11
7.6566386e-09
6.0693278e-11
7.5968574e-09
5.9781252e-11
7.537954e-09
5.8903459e-11
7.4799159e-09
5.8038086e-11
7.4227112e-09
5.7204758e-11
7.3663286e-09
5.6382598e-11
7.3107382e-09
5.5590388e-11
7.2559299e-09
5.4808329e-11
7.2018757e-09
5.4054205e-11
7.1485662e-09
5.3309444e-11
7.0959755e-09
5.259067e-11
7.0440948e-09
5.1880682e-11
6.9929e-09
5.1194772e-11
6.9423827e-09
5.0517278e-11
6.8925207e-09
4.9861979e-11
6.8433058e-09
4.9214909e-11
6.7947176e-09
4.858816e-11
6.7467479e-09
4.7969643e-11
6.6993784e-09
4.736956e-11
6.6526005e-09
4.677788e-11
6.6063977e-09
4.6202733e-11
6.5607614e-09
4.5636318e-11
6.5156769e-09
4.5084503e-11
6.471135e-09
4.4541909e-11
6.4271231e-09
4.4011952e-11
6.3836312e-09
4.3491865e-11
6.3406488e-09
4.2982405e-11
6.2981652e-09
4.2483612e-11
6.2561718e-09
4.199339e-11
6.2146571e-09
4.1514776e-11
6.1736145e-09
4.1042623e-11
6.1330313e-09
4.0583155e-11
6.0929033e-09
4.0127983e-11
6.0532166e-09
3.9686711e-11
6.0139691e-09
3.9247518e-11
5.9751456e-09
3.882356e-11
5.9367462e-09
3.8399411e-11
5.8987542e-09
3.7991951e-11
5.8611722e-09
3.7581979e-11
5.823982e-09
3.7190256e-11
5.7871883e-09
3.6793655e-11
5.7507713e-09
3.6416962e-11
5.7147384e-09
3.6032987e-11
5.6790677e-09
3.5670663e-11
5.643769e-09
3.5298627e-11
5.608819e-09
3.4950054e-11
5.5742297e-09
3.4589322e-11
5.5399757e-09
3.4253909e-11
5.5060718e-09
3.3903896e-11
5.4724907e-09
3.3581088e-11
5.4392495e-09
3.3241265e-11
5.4063189e-09
3.2930534e-11
5.3737185e-09
3.2600426e-11
5.3414172e-09
3.2301261e-11
5.3094368e-09
3.1980435e-11
5.2777444e-09
3.1692331e-11
5.246364e-09
3.1380408e-11
5.2152611e-09
3.110288e-11
5.1844616e-09
3.079955e-11
5.1539295e-09
3.0532126e-11
5.1236923e-09
3.0237142e-11
5.093713e-09
2.9979328e-11
5.0640205e-09
2.9692485e-11
5.0345767e-09
2.9443767e-11
5.0054118e-09
2.9164939e-11
4.976487e-09
2.8924799e-11
4.947833e-09
2.8653953e-11
4.9194112e-09
2.842185e-11
4.8912521e-09
2.8159047e-11
4.8633177e-09
2.7934402e-11
4.8356379e-09
2.7679778e-11
4.808176e-09
2.7461913e-11
4.7809603e-09
2.7215732e-11
4.7539563e-09
2.7003957e-11
4.7271896e-09
2.6766648e-11
4.7006295e-09
2.6560164e-11
4.6742972e-09
2.6332306e-11
4.648167e-09
2.6130215e-11
4.6222544e-09
2.5912567e-11
4.5965406e-09
2.57138e-11
4.5710332e-09
2.5507386e-11
4.5457224e-09
2.5310755e-11
4.5206055e-09
2.5116903e-11
4.4956845e-09
2.4920971e-11
4.4709432e-09
2.474136e-11
4.4463987e-09
2.4544431e-11
4.4220176e-09
2.4381182e-11
4.3978363e-09
2.4181248e-11
4.3737992e-09
2.4037082e-11
4.3499675e-09
2.3831753e-11
4.3262573e-09
2.3710122e-11
4.3027609e-09
2.3496433e-11
4.2793592e-09
2.3401685e-11
4.2561831e-09
2.3176078e-11
4.2330692e-09
2.3113903e-11
4.2101973e-09
2.2871941e-11
4.1873475e-09
2.284975e-11
4.1647616e-09
2.2585885e-11
4.1421481e-09
2.2613487e-11
4.1198275e-09
2.2320683e-11
4.0974161e-09
2.2411396e-11
4.0753353e-09
2.2080718e-11
4.0530821e-09
2.2253225e-11
4.0312093e-09
2.1872827e-11
4.0090548e-09
2.2154479e-11
3.9873466e-09
2.1708155e-11
3.9652058e-09
2.2140849e-11
3.9436035e-09
2.1602312e-11
3.921354e-09
2.2249442e-11
3.8998099e-09
2.154412e-11
2.3496734e-11
8.5874093e-08
2.6012437e-09
-8.5540204e-08
8.6012972e-08
3.8087742e-09
8.566094e-08
4.5135564e-09
8.5027319e-08
4.7432296e-09
8.4253864e-08
4.8410551e-09
8.335877e-08
4.9644467e-09
8.2301905e-08
5.135931e-09
8.106034e-08
5.31082e-09
7.9639331e-08
5.4405966e-09
7.8059645e-08
5.5004812e-09
7.6346611e-08
5.4821566e-09
7.4527661e-08
5.3812736e-09
7.2630196e-08
5.1924186e-09
7.0683323e-08
4.9178852e-09
6.8721971e-08
4.5678179e-09
6.6779722e-08
4.1562058e-09
6.4889027e-08
3.709604e-09
6.3076972e-08
3.2608632e-09
6.1361301e-08
2.8410273e-09
5.9749186e-08
2.4715203e-09
5.8239383e-08
2.1622121e-09
5.6826042e-08
1.9126607e-09
5.5501169e-08
1.7167563e-09
5.4254211e-08
1.5679059e-09
5.3078238e-08
1.4524768e-09
5.1966736e-08
1.3624299e-09
5.0912002e-08
1.2934038e-09
4.9907387e-08
1.2393623e-09
4.8947481e-08
1.1949811e-09
4.8028054e-08
1.1562494e-09
4.7145861e-08
1.1204532e-09
4.6298366e-08
1.0859997e-09
4.5483569e-08
1.0520005e-09
4.4699827e-08
1.018101e-09
4.3945763e-08
9.8420627e-10
4.3220141e-08
9.5044943e-10
4.2521828e-08
9.1700611e-10
4.1849713e-08
8.8413502e-10
4.120271e-08
8.5203642e-10
4.0579719e-08
8.2093489e-10
3.9979647e-08
7.909599e-10
3.9401383e-08
7.6225328e-10
3.884384e-08
7.3485811e-10
3.8305929e-08
7.0883933e-10
3.7786602e-08
6.8417223e-10
3.7284829e-08
6.608645e-10
3.6799638e-08
6.3884405e-10
3.6330087e-08
6.1809365e-10
3.5875295e-08
5.9852108e-10
3.543442e-08
5.800924e-10
3.5006686e-08
5.6270395e-10
3.4591355e-08
5.4631856e-10
3.4187755e-08
5.3083165e-10
3.379525e-08
5.1620998e-10
3.3413263e-08
5.0235338e-10
3.304125e-08
4.8923619e-10
3.2678722e-08
4.7676521e-10
3.2325211e-08
4.64924e-10
3.1980303e-08
4.5362747e-10
3.1643597e-08
4.4286846e-10
3.1314739e-08
4.3256999e-10
3.0993385e-08
4.2273341e-10
3.0679231e-08
4.1328907e-10
3.0371978e-08
4.0424566e-10
3.007136e-08
3.955398e-10
2.9777116e-08
3.871861e-10
2.9489014e-08
3.7912635e-10
2.9206821e-08
3.7137956e-10
2.8930331e-08
3.6389188e-10
2.8659335e-08
3.5668532e-10
2.839365e-08
3.4970954e-10
2.8133086e-08
3.4298853e-10
2.7877479e-08
3.3647489e-10
2.7626657e-08
3.3019354e-10
2.738047e-08
3.2409978e-10
2.7138761e-08
3.182187e-10
2.6901393e-08
3.125082e-10
2.6668225e-08
3.0699282e-10
2.643913e-08
3.0163317e-10
2.6213978e-08
2.9645265e-10
2.5992653e-08
2.9141476e-10
2.5775038e-08
2.8654119e-10
2.5561024e-08
2.8179869e-10
2.5350506e-08
2.7720678e-10
2.5143383e-08
2.7273575e-10
2.4939557e-08
2.6840242e-10
2.4738936e-08
2.641811e-10
2.4541432e-08
2.6008536e-10
2.4346958e-08
2.56094e-10
2.4155434e-08
2.5221679e-10
2.3966778e-08
2.4843757e-10
2.378092e-08
2.4476169e-10
2.3597779e-08
2.4117853e-10
2.3417296e-08
2.3768839e-10
2.3239392e-08
2.3428683e-10
2.3064014e-08
2.3096836e-10
2.2891087e-08
2.2773533e-10
2.2720565e-08
2.2457575e-10
2.2552375e-08
2.2149949e-10
2.2386478e-08
2.1848726e-10
2.2222802e-08
2.1555715e-10
2.2061315e-08
2.1268178e-10
2.1901944e-08
2.0988826e-10
2.1744665e-08
2.071402e-10
2.1589406e-08
2.0447456e-10
2.1436149e-08
2.0184509e-10
2.1284819e-08
1.9929946e-10
2.1135408e-08
1.9678056e-10
2.0987838e-08
1.9434776e-10
2.0842109e-08
1.9193208e-10
2.0698139e-08
1.8960554e-10
2.0555938e-08
1.8728626e-10
2.041542e-08
1.8505998e-10
2.0276601e-08
1.8283083e-10
2.0139393e-08
1.8069936e-10
2.0003821e-08
1.7855452e-10
1.9869792e-08
1.7651285e-10
1.9737339e-08
1.744469e-10
1.9606363e-08
1.7249046e-10
1.9476907e-08
1.7049839e-10
1.9348867e-08
1.6862296e-10
1.9222295e-08
1.6670006e-10
1.909708e-08
1.6490181e-10
1.8973284e-08
1.6304372e-10
1.8850788e-08
1.6131911e-10
1.8729666e-08
1.5952173e-10
1.8609791e-08
1.5786755e-10
1.8491245e-08
1.5612702e-10
1.8373895e-08
1.545403e-10
1.8257836e-08
1.5285301e-10
1.8142922e-08
1.5133106e-10
1.8029261e-08
1.4969362e-10
1.7916698e-08
1.4823395e-10
1.7805353e-08
1.4664316e-10
1.769506e-08
1.4524353e-10
1.7585953e-08
1.4369637e-10
1.7477852e-08
1.4235469e-10
1.7370908e-08
1.4084831e-10
1.7264926e-08
1.395627e-10
1.7160073e-08
1.380944e-10
1.705614e-08
1.3686315e-10
1.695331e-08
1.354304e-10
1.685136e-08
1.3425195e-10
1.6750488e-08
1.3285233e-10
1.6650455e-08
1.3172522e-10
1.6551479e-08
1.3035646e-10
1.6453302e-08
1.2927941e-10
1.6356162e-08
1.279394e-10
1.6259783e-08
1.2691125e-10
1.6164422e-08
1.2559802e-10
1.6069784e-08
1.2461768e-10
1.5976147e-08
1.2332932e-10
1.5883195e-08
1.2239577e-10
1.5791229e-08
1.2113057e-10
1.5699911e-08
1.2024289e-10
1.5609566e-08
1.1899932e-10
1.5519831e-08
1.1815669e-10
1.5431057e-08
1.1693339e-10
1.5342856e-08
1.1613501e-10
1.5255605e-08
1.1493074e-10
1.5168891e-08
1.1417571e-10
1.5083118e-08
1.1298949e-10
1.4997844e-08
1.1227709e-10
1.4913503e-08
1.1110825e-10
1.4829625e-08
1.1043766e-10
1.4746672e-08
1.0928581e-10
1.4664146e-08
1.0865613e-10
1.4582537e-08
1.0752119e-10
1.450132e-08
1.0693134e-10
1.4421013e-08
1.058138e-10
1.4341061e-08
1.0526269e-10
1.4262015e-08
1.0416363e-10
1.4183286e-08
1.0364981e-10
1.4105456e-08
1.0257103e-10
1.4027908e-08
1.0209271e-10
1.3951252e-08
1.0103693e-10
1.3874841e-08
1.0059197e-10
1.3799315e-08
9.9563292e-11
1.3723998e-08
9.9148994e-11
1.3649555e-08
9.8153107e-11
1.3575285e-08
9.7765819e-11
1.3501877e-08
9.681052e-11
1.3428607e-08
9.6445753e-11
1.3356179e-08
9.5542056e-11
1.3283857e-08
9.5193885e-11
1.321235e-08
9.4357009e-11
1.3140918e-08
9.401761e-11
1.3070263e-08
9.3268774e-11
1.2999655e-08
9.2927881e-11
1.2929769e-08
9.2297344e-11
1.2859908e-08
9.1941737e-11
1.2790688e-08
9.1473541e-11
1.2721475e-08
9.1085683e-11
1.2652784e-08
9.084608e-11
1.2584088e-08
9.0403237e-11
1.2515735e-08
9.049476e-11
1.2447377e-08
8.996008e-11
1.2379078e-08
9.0548352e-11
1.231087e-08
8.9751521e-11
9.3645795e-11
8.9437958e-08
2.534931e-09
-8.9371646e-08
8.9796026e-08
3.450707e-09
9.0038942e-08
4.2706404e-09
9.0114611e-08
4.6675605e-09
9.0124579e-08
4.8310868e-09
9.0121342e-08
4.9676836e-09
9.0105792e-08
5.1514818e-09
9.0047195e-08
5.3694164e-09
8.9921243e-08
5.5665492e-09
8.9716613e-08
5.7051104e-09
8.9429236e-08
5.7695338e-09
8.9057122e-08
5.7533879e-09
8.8596113e-08
5.6534272e-09
8.8045094e-08
5.4689047e-09
8.7409073e-08
5.2038391e-09
8.6695637e-08
4.8696411e-09
8.5917742e-08
4.4874994e-09
8.5092502e-08
4.0861031e-09
8.4237809e-08
3.69572e-09
8.3368437e-08
3.3408928e-09
8.2494581e-08
3.036068e-09
8.162198e-08
2.7852616e-09
8.0753323e-08
2.585413e-09
7.989129e-08
2.4299391e-09
7.9035589e-08
2.3081776e-09
7.818589e-08
2.2121297e-09
7.7342421e-08
2.1368724e-09
7.6504654e-08
2.0771295e-09
7.5671959e-08
2.0276758e-09
7.4843942e-08
1.9842662e-09
7.4020563e-08
1.9438321e-09
7.3202081e-08
1.9044821e-09
7.2388987e-08
1.8650941e-09
7.158192e-08
1.8251679e-09
7.078162e-08
1.7845064e-09
6.9988863e-08
1.7432069e-09
6.9204431e-08
1.7014374e-09
6.8429068e-08
1.6594982e-09
6.7663463e-08
1.6176416e-09
6.6908223e-08
1.5761748e-09
6.6163878e-08
1.5353051e-09
6.5430862e-08
1.4952689e-09
6.470953e-08
1.4561897e-09
6.4000148e-08
1.4182216e-09
6.3302907e-08
1.381413e-09
6.2617926e-08
1.3458459e-09
6.1945265e-08
1.3115048e-09
6.1284922e-08
1.2784362e-09
6.0636851e-08
1.2465928e-09
6.0000955e-08
1.2159878e-09
5.9377109e-08
1.1865501e-09
5.8765151e-08
1.1582767e-09
5.8164897e-08
1.1310856e-09
5.757614e-08
1.1049666e-09
5.699866e-08
1.079834e-09
5.643222e-08
1.0556762e-09
5.5876577e-08
1.0324085e-09
5.5331479e-08
1.0100211e-09
5.4796673e-08
9.8843349e-10
5.4271903e-08
9.6763888e-10
5.375691e-08
9.4756294e-10
5.3251441e-08
9.2820213e-10
5.2755242e-08
9.0948869e-10
5.2268065e-08
8.9142221e-10
5.1789663e-08
8.7394158e-10
5.1319801e-08
8.5704853e-10
5.0858239e-08
8.4068848e-10
5.0404754e-08
8.2486406e-10
4.9959119e-08
8.0952735e-10
4.9521124e-08
7.9468047e-10
4.9090551e-08
7.8028195e-10
4.8667208e-08
7.6633244e-10
4.8250886e-08
7.5279695e-10
4.7841406e-08
7.3967332e-10
4.7438572e-08
7.2693342e-10
4.704222e-08
7.1457127e-10
4.6652162e-08
7.0256606e-10
4.6268248e-08
6.9090678e-10
4.58903e-08
6.7958067e-10
4.5518182e-08
6.685707e-10
4.5151724e-08
6.5787281e-10
4.4790802e-08
6.4746277e-10
4.4435255e-08
6.3734628e-10
4.4084971e-08
6.2749091e-10
4.3739793e-08
6.1791292e-10
4.3399625e-08
6.085705e-10
4.3064315e-08
5.9949168e-10
4.2733776e-08
5.9062393e-10
4.2407862e-08
5.8200829e-10
4.2086499e-08
5.735802e-10
4.1769541e-08
5.65395e-10
4.1456928e-08
5.5737462e-10
4.1148517e-08
5.4959006e-10
4.0844257e-08
5.4194821e-10
4.0544007e-08
5.345372e-10
4.0247728e-08
5.2724719e-10
3.9955278e-08
5.2018507e-10
3.9666631e-08
5.1322246e-10
3.9381644e-08
5.064868e-10
3.9100302e-08
4.9982928e-10
3.8822459e-08
4.9339967e-10
3.8548114e-08
4.8702672e-10
3.8277118e-08
4.8088458e-10
3.8009481e-08
4.7477738e-10
3.774505e-08
4.6890572e-10
3.7483848e-08
4.6304688e-10
3.7225717e-08
4.5743023e-10
3.6970694e-08
4.5180367e-10
3.6718614e-08
4.4642781e-10
3.6469527e-08
4.4101865e-10
3.6223262e-08
4.3587053e-10
3.5979884e-08
4.3066489e-10
3.5739211e-08
4.2573257e-10
3.5501324e-08
4.2071754e-10
3.5266034e-08
4.1599013e-10
3.5033434e-08
4.1115367e-10
3.4803326e-08
4.0662114e-10
3.4575821e-08
4.0195201e-10
3.4350706e-08
3.9760519e-10
3.4128112e-08
3.9309284e-10
3.3907812e-08
3.8892331e-10
3.3689954e-08
3.845578e-10
3.3474298e-08
3.805579e-10
3.3261012e-08
3.763299e-10
3.3049838e-08
3.7249259e-10
3.2840967e-08
3.6839329e-10
3.2634122e-08
3.6471217e-10
3.2429516e-08
3.6073323e-10
3.2226854e-08
3.5720247e-10
3.2026371e-08
3.5333597e-10
3.1827751e-08
3.499503e-10
3.1631256e-08
3.4618871e-10
3.1436547e-08
3.4294334e-10
3.124391e-08
3.3927949e-10
3.1052984e-08
3.3617014e-10
3.0864083e-08
3.3259716e-10
3.0676818e-08
3.2961995e-10
3.0491535e-08
3.2613125e-10
3.0307815e-08
3.2328278e-10
3.0126037e-08
3.1987205e-10
2.9945751e-08
3.1714933e-10
2.9767371e-08
3.1381048e-10
2.9590412e-08
3.1121088e-10
2.9415326e-08
3.07938e-10
2.9241592e-08
3.0545924e-10
2.9069702e-08
3.0224661e-10
2.8899094e-08
2.9988686e-10
2.8730305e-08
2.9672899e-10
2.8562729e-08
2.9448678e-10
2.8396949e-08
2.9137834e-10
2.8232314e-08
2.8925245e-10
2.8069455e-08
2.8618815e-10
2.7907673e-08
2.8417768e-10
2.7747652e-08
2.8115243e-10
2.7588638e-08
2.7925686e-10
2.7431371e-08
2.7626579e-10
2.7275043e-08
2.7448498e-10
2.7120453e-08
2.7152338e-10
2.696673e-08
2.6985741e-10
2.6814741e-08
2.6692056e-10
2.6663547e-08
2.6536968e-10
2.6514083e-08
2.6245316e-10
2.6365342e-08
2.6101813e-10
2.6218332e-08
2.5811788e-10
2.607197e-08
2.5679966e-10
2.5927344e-08
2.5391181e-10
2.5783289e-08
2.5271156e-10
2.5640977e-08
2.4983248e-10
2.5499157e-08
2.4875146e-10
2.5359093e-08
2.4587823e-10
2.5219437e-08
2.4491811e-10
2.5081553e-08
2.4204851e-10
2.4943991e-08
2.4121093e-10
2.4808219e-08
2.3834351e-10
2.4672682e-08
2.3763001e-10
2.4538954e-08
2.347645e-10
2.4405369e-08
2.3417676e-10
2.4273618e-08
2.3131485e-10
2.4141912e-08
2.3085438e-10
2.4012066e-08
2.2799985e-10
2.3882164e-08
2.2766737e-10
2.3754147e-08
2.2482713e-10
2.362597e-08
2.2462299e-10
2.3499703e-08
2.2180891e-10
2.3373165e-08
2.2173227e-10
2.3248559e-08
2.1896284e-10
2.3123566e-08
2.1901099e-10
2.300052e-08
2.1631448e-10
2.2876965e-08
2.1648238e-10
2.275536e-08
2.1390236e-10
2.263312e-08
2.1418198e-10
2.2512808e-08
2.1178595e-10
2.2391729e-08
2.1216431e-10
2.2272515e-08
2.1006e-10
2.2152402e-08
2.1051608e-10
2.2034012e-08
2.0888526e-10
2.1914617e-08
2.0935524e-10
2.1796582e-08
2.0858274e-10
2.1677688e-08
2.0864611e-10
2.1334014e-10
9.3194736e-08
2.5358441e-09
-9.3195649e-08
9.3416337e-08
3.2291055e-09
9.3698923e-08
3.9880542e-09
9.3902068e-08
4.4644154e-09
9.4027501e-08
4.7056538e-09
9.4143451e-08
4.8517341e-09
9.4289159e-08
5.0057741e-09
9.4460021e-08
5.1985536e-09
9.4636636e-08
5.3899349e-09
9.4800998e-08
5.5407487e-09
9.4941928e-08
5.6286038e-09
9.505244e-08
5.6428756e-09
9.5123201e-08
5.5826667e-09
9.5144811e-08
5.4472944e-09
9.5109946e-08
5.238704e-09
9.5013287e-08
4.9662998e-09
9.4854258e-08
4.6465285e-09
9.4637861e-08
4.3025008e-09
9.4373555e-08
3.9600256e-09
9.4072218e-08
3.6422298e-09
9.3743653e-08
3.3646324e-09
9.3394987e-08
3.1339285e-09
9.3031224e-08
2.9491753e-09
9.2656358e-08
2.8048054e-09
9.2271567e-08
2.6929679e-09
9.187735e-08
2.6063474e-09
9.1474722e-08
2.5395005e-09
9.1064074e-08
2.4877773e-09
9.064515e-08
2.4465994e-09
9.0217422e-08
2.4119945e-09
8.978041e-08
2.3808441e-09
8.9333817e-08
2.3510748e-09
8.8877556e-08
2.3213549e-09
8.8411722e-08
2.2910017e-09
8.7936572e-08
2.2596572e-09
8.7452489e-08
2.2272896e-09
8.6959964e-08
2.1939623e-09
8.6459562e-08
2.1599007e-09
8.5951897e-08
2.1253065e-09
8.5437614e-08
2.0904578e-09
8.4917367e-08
2.0555515e-09
8.4391812e-08
2.0208243e-09
8.3861588e-08
1.9864137e-09
8.332732e-08
1.9524893e-09
8.2789609e-08
1.9191243e-09
8.2249033e-08
1.8864222e-09
8.1706136e-08
1.8544011e-09
8.1161447e-08
1.8231258e-09
8.0615455e-08
1.7925845e-09
8.0068635e-08
1.762808e-09
7.9521423e-08
1.7337617e-09
7.8974244e-08
1.705456e-09
7.8427484e-08
1.6778461e-09
7.788152e-08
1.6509308e-09
7.733669e-08
1.6246631e-09
7.6793331e-08
1.5990357e-09
7.6251735e-08
1.5740042e-09
7.5712198e-08
1.5495582e-09
7.5174972e-08
1.5256597e-09
7.4640314e-08
1.5022964e-09
7.4108438e-08
1.4794391e-09
7.3579567e-08
1.4570733e-09
7.3053876e-08
1.4351793e-09
7.2531558e-08
1.4137404e-09
7.2012753e-08
1.3927468e-09
7.1497624e-08
1.3721778e-09
7.0986278e-08
1.3520339e-09
7.0478854e-08
1.3322888e-09
6.9975427e-08
1.312954e-09
6.9476112e-08
1.2939952e-09
6.8980959e-08
1.2754354e-09
6.8490061e-08
1.2572309e-09
6.8003441e-08
1.2394165e-09
6.7521177e-08
1.2219373e-09
6.704327e-08
1.204841e-09
6.6569781e-08
1.1880598e-09
6.6100692e-08
1.1716555e-09
6.5636053e-08
1.1555456e-09
6.5175826e-08
1.1398074e-09
6.4720055e-08
1.124342e-09
6.4268683e-08
1.1092441e-09
6.382175e-08
1.094396e-09
6.3379184e-08
1.0799121e-09
6.2941021e-08
1.0656544e-09
6.2507175e-08
1.0517583e-09
6.2077682e-08
1.0380636e-09
6.1652445e-08
1.0247294e-09
6.1231498e-08
1.0115709e-09
6.0814733e-08
9.9877305e-10
6.0402189e-08
9.8612432e-10
5.9993746e-08
9.7383815e-10
5.9589447e-08
9.6167359e-10
5.9189161e-08
9.4987536e-10
5.8792939e-08
9.3817026e-10
5.8400639e-08
9.2683726e-10
5.8012319e-08
9.1556786e-10
5.7627825e-08
9.0467842e-10
5.7247226e-08
8.938219e-10
5.6870357e-08
8.8335552e-10
5.6497296e-08
8.7289019e-10
5.6127868e-08
8.6282753e-10
5.5762162e-08
8.5273266e-10
5.5399991e-08
8.4305555e-10
5.5041457e-08
8.333115e-10
5.468636e-08
8.2400283e-10
5.4334816e-08
8.1459082e-10
5.3986612e-08
8.0563465e-10
5.3641878e-08
7.965368e-10
5.3300388e-08
7.8791812e-10
5.2962289e-08
7.7911743e-10
5.2627338e-08
7.7082218e-10
5.22957e-08
7.6230239e-10
5.1967115e-08
7.5431747e-10
5.164177e-08
7.4606309e-10
5.1319384e-08
7.383764e-10
5.1000165e-08
7.3037263e-10
5.0683813e-08
7.2297289e-10
5.0370559e-08
7.1520563e-10
5.0060082e-08
7.0808241e-10
4.9752637e-08
7.0053812e-10
4.9447878e-08
6.9368177e-10
4.9146089e-08
6.8634744e-10
4.8846898e-08
6.7974912e-10
4.8550615e-08
6.7261231e-10
4.8256844e-08
6.6626389e-10
4.7965925e-08
6.5931257e-10
4.767743e-08
6.5320665e-10
4.7391734e-08
6.4642924e-10
4.7108377e-08
6.4055911e-10
4.6827769e-08
6.339444e-10
4.6549415e-08
6.2830402e-10
4.6273763e-08
6.2184113e-10
4.6000281e-08
6.1642513e-10
4.5729457e-08
6.1010351e-10
4.546072e-08
6.0490715e-10
4.5194601e-08
5.9871647e-10
4.4930485e-08
5.9373559e-10
4.466895e-08
5.8766578e-10
4.4409336e-08
5.8289688e-10
4.415227e-08
5.7693806e-10
4.3897041e-08
5.7237828e-10
4.3644331e-08
5.6652071e-10
4.3393374e-08
5.6216775e-10
4.314491e-08
5.564018e-10
4.2898116e-08
5.522539e-10
4.2653792e-08
5.4657005e-10
4.2411053e-08
5.4262621e-10
4.2170767e-08
5.3701506e-10
4.1931979e-08
5.3327487e-10
4.169563e-08
5.277271e-10
4.1460692e-08
5.2419067e-10
4.1228183e-08
5.1869677e-10
4.0996996e-08
5.1536483e-10
4.0768233e-08
5.0991541e-10
4.05407e-08
5.067894e-10
4.0315591e-08
5.0137515e-10
4.0091619e-08
4.9845726e-10
3.9870073e-08
4.9306888e-10
3.9649569e-08
4.9036186e-10
3.94315e-08
4.8498975e-10
3.9214372e-08
4.8249687e-10
3.8999694e-08
4.771316e-10
3.8785855e-08
4.7485717e-10
3.8574483e-08
4.6948948e-10
3.8363844e-08
4.6743849e-10
3.8155697e-08
4.6205912e-10
3.7948172e-08
4.6023715e-10
3.7743167e-08
4.5483679e-10
3.7538669e-08
4.5325008e-10
3.7336727e-08
4.4782002e-10
3.7135169e-08
4.4647589e-10
3.6936209e-08
4.4100804e-10
3.6737506e-08
4.3991434e-10
3.6541448e-08
4.3440122e-10
3.6345512e-08
4.3356627e-10
3.6152275e-08
4.2800159e-10
3.5959017e-08
4.2743463e-10
3.5768517e-08
4.2181449e-10
3.5577846e-08
4.2152531e-10
3.5389998e-08
4.1584821e-10
3.5201819e-08
4.1584629e-10
3.5016531e-08
4.1011485e-10
3.4830744e-08
4.1041005e-10
3.464792e-08
4.0463363e-10
3.4464417e-08
4.0523513e-10
3.4283947e-08
3.994325e-10
3.4102611e-08
4.003476e-10
3.3924373e-08
3.9455199e-10
3.374507e-08
3.9578519e-10
3.3568919e-08
3.9005346e-10
3.3391496e-08
3.9160455e-10
3.321725e-08
3.8603225e-10
3.3041524e-08
3.8789025e-10
3.2868942e-08
3.8264267e-10
3.2694688e-08
3.8477005e-10
3.2523415e-08
3.8015747e-10
3.2350374e-08
3.8239696e-10
3.2179786e-08
3.7917081e-10
3.200765e-08
3.8078132e-10
3.8492009e-10
9.7111428e-08
2.5413524e-09
-9.7116936e-08
9.7239447e-08
3.1010859e-09
9.7483349e-08
3.744153e-09
9.771435e-08
4.233414e-09
9.7881734e-08
4.5382696e-09
9.8016015e-08
4.7174536e-09
9.816658e-08
4.8552086e-09
9.8352115e-08
5.013019e-09
9.8562248e-08
5.1798017e-09
9.8781661e-08
5.3213359e-09
9.899795e-08
5.4123148e-09
9.9202512e-08
5.4383138e-09
9.9388789e-08
5.3963896e-09
9.9549582e-08
5.2865015e-09
9.9676983e-08
5.1113027e-09
9.976418e-08
4.8791027e-09
9.9807288e-08
4.6034205e-09
9.9806623e-08
4.3031665e-09
9.9766902e-08
3.9997465e-09
9.9695706e-08
3.7134257e-09
9.9601086e-08
3.4592524e-09
9.9489822e-08
3.2451927e-09
9.9367021e-08
3.071976e-09
9.9236221e-08
2.9356057e-09
9.9099103e-08
2.8300861e-09
9.8956456e-08
2.7489939e-09
9.8809126e-08
2.6868303e-09
9.8657628e-08
2.6392758e-09
9.8501814e-08
2.602413e-09
9.8341038e-08
2.5727709e-09
9.8174446e-08
2.5474361e-09
9.800121e-08
2.5243102e-09
9.7820612e-08
2.5019529e-09
9.7632075e-08
2.4795386e-09
9.7435148e-08
2.4565847e-09
9.7229511e-08
2.432927e-09
9.7014946e-08
2.4085271e-09
9.6791345e-08
2.3835015e-09
9.655867e-08
2.3579816e-09
9.6316962e-08
2.3321652e-09
9.6066303e-08
2.306211e-09
9.5806828e-08
2.2802992e-09
9.5538687e-08
2.2545543e-09
9.5262072e-08
2.2291041e-09
9.4977172e-08
2.2040246e-09
9.4684208e-08
2.1793864e-09
9.4383386e-08
2.1552237e-09
9.4074944e-08
2.1315668e-09
9.3759103e-08
2.1084261e-09
9.3436112e-08
2.0857989e-09
9.3106194e-08
2.063679e-09
9.276961e-08
2.0420402e-09
9.2426585e-08
2.0208713e-09
9.2077385e-08
2.0001304e-09
9.1722239e-08
1.9798098e-09
9.1361418e-08
1.9598568e-09
9.099515e-08
1.9402722e-09
9.0623712e-08
1.9209955e-09
9.0247331e-08
1.9020404e-09
8.9866289e-08
1.883339e-09
8.9480807e-08
1.8649211e-09
8.9091169e-08
1.8467107e-09
8.8697594e-08
1.8287552e-09
8.8300364e-08
1.8109701e-09
8.7899689e-08
1.7934212e-09
8.7495854e-08
1.7760131e-09
8.7089057e-08
1.7588313e-09
8.6679579e-08
1.7417669e-09
8.6267606e-08
1.7249263e-09
8.5853417e-08
1.7081843e-09
8.5437183e-08
1.6916693e-09
8.5019177e-08
1.6752373e-09
8.4599554e-08
1.6590396e-09
8.4178581e-08
1.6429106e-09
8.3756395e-08
1.6270266e-09
8.3333257e-08
1.6111975e-09
8.2909286e-08
1.5956265e-09
8.2484736e-08
1.5800959e-09
8.2059705e-08
1.5648385e-09
8.1634441e-08
1.549606e-09
8.1209021e-08
1.5346634e-09
8.0783689e-08
1.5197285e-09
8.0358499e-08
1.5051015e-09
7.993369e-08
1.4904636e-09
7.9509296e-08
1.4761529e-09
7.9085549e-08
1.4618104e-09
7.8662462e-08
1.4478161e-09
7.8240266e-08
1.4337671e-09
7.781895e-08
1.420089e-09
7.7398743e-08
1.4063309e-09
7.6979613e-08
1.3929684e-09
7.6561789e-08
1.3794982e-09
7.6145214e-08
1.3664503e-09
7.5730119e-08
1.3532646e-09
7.5316427e-08
1.34053e-09
7.490437e-08
1.3276248e-09
7.4493846e-08
1.3152019e-09
7.4085096e-08
1.3025725e-09
7.3677992e-08
1.2904592e-09
7.3272781e-08
1.2781007e-09
7.2869314e-08
1.266295e-09
7.2467845e-08
1.2542017e-09
7.2068199e-08
1.2427011e-09
7.1670643e-08
1.2308673e-09
7.1274977e-08
1.2196691e-09
7.088148e-08
1.2080883e-09
7.0489925e-08
1.1971897e-09
7.0100606e-08
1.1858551e-09
6.9713271e-08
1.1752531e-09
6.9328231e-08
1.1641575e-09
6.8945205e-08
1.1538488e-09
6.8564522e-08
1.1429846e-09
6.8185874e-08
1.1329661e-09
6.7809612e-08
1.1223252e-09
6.7435394e-08
1.1125938e-09
6.7063599e-08
1.1021681e-09
6.6693851e-08
1.0927206e-09
6.6326555e-08
1.0825016e-09
6.5961303e-08
1.073335e-09
6.5598527e-08
1.063314e-09
6.5237783e-08
1.0544255e-09
6.4879537e-08
1.0445934e-09
6.4523306e-08
1.0359804e-09
6.416959e-08
1.0263282e-09
6.3817866e-08
1.0179883e-09
6.3468672e-08
1.0085066e-09
6.3121441e-08
1.0004376e-09
6.2776753e-08
9.9111689e-10
6.2433995e-08
9.8331725e-10
6.2093791e-08
9.7414776e-10
6.1755479e-08
9.6661606e-10
6.1419733e-08
9.5758792e-10
6.1085834e-08
9.5032325e-10
6.0754512e-08
9.4142641e-10
6.042499e-08
9.3442827e-10
6.0098054e-08
9.2565244e-10
5.9772869e-08
9.1892082e-10
5.9450279e-08
9.1025555e-10
5.9129385e-08
9.0379096e-10
5.8811098e-08
8.9522556e-10
5.8494447e-08
8.8902918e-10
5.8180415e-08
8.8055268e-10
5.7867956e-08
8.7462618e-10
5.7558131e-08
8.6622737e-10
5.7249812e-08
8.6057303e-10
5.6944141e-08
8.5224038e-10
5.6639906e-08
8.4686135e-10
5.6338338e-08
8.3858313e-10
5.603813e-08
8.3348327e-10
5.5740609e-08
8.2524741e-10
5.5444369e-08
8.2043125e-10
5.5150841e-08
8.1222509e-10
5.4858507e-08
8.0769798e-10
5.4568914e-08
7.9950861e-10
5.4280427e-08
7.952769e-10
5.3994711e-08
7.8709109e-10
5.3710006e-08
7.831622e-10
5.3428108e-08
7.749664e-10
5.3147121e-08
7.7134864e-10
5.2868983e-08
7.6312844e-10
5.2591649e-08
7.5983095e-10
5.2317208e-08
7.5157181e-10
5.204346e-08
7.4860535e-10
5.1772657e-08
7.4029245e-10
5.1502427e-08
7.3766892e-10
5.1235199e-08
7.2928708e-10
5.0968416e-08
7.2701949e-10
5.07047e-08
7.1855292e-10
5.0441295e-08
7.166555e-10
5.0181026e-08
7.0808879e-10
4.9920924e-08
7.0657761e-10
4.9664037e-08
6.9789564e-10
4.9407163e-08
6.9678795e-10
4.9153588e-08
6.8797593e-10
4.8899865e-08
6.8729005e-10
4.8649532e-08
6.7833427e-10
4.8398876e-08
6.7809029e-10
4.8151711e-08
6.689798e-10
4.7904037e-08
6.691991e-10
4.765996e-08
6.5992574e-10
4.7415176e-08
6.6062974e-10
4.71741e-08
6.5119059e-10
4.6932109e-08
6.5240167e-10
4.669394e-08
6.4280287e-10
4.6454632e-08
6.4454266e-10
4.6219261e-08
6.3480348e-10
4.5982518e-08
6.3709074e-10
4.5749819e-08
6.2725125e-10
4.5515504e-08
6.3009957e-10
4.5285323e-08
6.2023508e-10
4.5053279e-08
6.2364775e-10
4.4825418e-08
6.1389316e-10
4.4595459e-08
6.1784935e-10
4.4369651e-08
6.0845077e-10
4.4141551e-08
6.1286995e-10
4.3917398e-08
6.0431068e-10
4.3690893e-08
6.0890176e-10
4.346771e-08
6.0235402e-10
4.324233e-08
6.0616114e-10
6.0830694e-10
1.0116725e-07
2.5421624e-09
-1.0116806e-07
1.0125282e-07
3.015511e-09
1.0144796e-07
3.5490117e-09
1.0166769e-07
4.0136931e-09
1.018572e-07
4.3487514e-09
1.0201094e-07
4.5637172e-09
1.0216064e-07
4.7055113e-09
1.0233403e-07
4.8396291e-09
1.0253436e-07
4.9794677e-09
1.0275052e-07
5.1051817e-09
1.0296959e-07
5.1932372e-09
1.0318133e-07
5.226582e-09
1.0337965e-07
5.1980654e-09
1.0355913e-07
5.1070244e-09
1.0371352e-07
4.95691e-09
1.0383734e-07
4.7552866e-09
1.0392676e-07
4.5139961e-09
1.0398112e-07
4.2488082e-09
1.0400334e-07
3.9775233e-09
1.0399928e-07
3.717486e-09
1.0397594e-07
3.4825935e-09
1.0393986e-07
3.281273e-09
1.0389605e-07
3.1157824e-09
1.0384787e-07
2.9837923e-09
1.0379735e-07
2.8806048e-09
1.0374566e-07
2.8006769e-09
1.0369366e-07
2.7388308e-09
1.0364198e-07
2.6909563e-09
1.0359076e-07
2.6536319e-09
1.0353966e-07
2.6238777e-09
1.0348797e-07
2.5991208e-09
1.0343494e-07
2.5773475e-09
1.0337977e-07
2.5571144e-09
1.0332182e-07
2.5374936e-09
1.0326046e-07
2.5179404e-09
1.0319521e-07
2.4981767e-09
1.0312563e-07
2.4781121e-09
1.0305137e-07
2.4577577e-09
1.0297214e-07
2.4372125e-09
1.0288772e-07
2.4165832e-09
1.0279791e-07
2.39602e-09
1.0270259e-07
2.3756271e-09
1.026016e-07
2.3555418e-09
1.0249488e-07
2.3358251e-09
1.0238232e-07
2.3165821e-09
1.0226389e-07
2.2978219e-09
1.0213949e-07
2.2796206e-09
1.0200911e-07
2.2619437e-09
1.0187269e-07