/*--------------------------------*- C++ -*----------------------------------*\
| =========                 |                                                 |
| \\      /  F ield         | OpenFOAM: The Open Source CFD Toolbox           |
|  \\    /   O peration     | Version:  5.x                                   |
|   \\  /    A nd           | Web:      www.OpenFOAM.org                      |
|    \\/     M anipulation  |                                                 |
\*---------------------------------------------------------------------------*/
FoamFile
{
    version     2.0;
    format      ascii;
    class       volVectorField;
    location    "0.8";
    object      U;
}
// * * * * * * * * * * * * * * * * * * * * * * * * * * * * * * * * * * * * * //

dimensions      [0 1 -1 0 0 0 0];

internalField   nonuniform List<vector> 
21600
(
(0.94297356 0.0081600733 0)
(0.89637298 0.012247008 0)
(0.85190611 0.013937454 0)
(0.80679204 0.014109008 0)
(0.76018249 0.013756492 0)
(0.71226331 0.013399756 0)
(0.66364863 0.013130152 0)
(0.61497548 0.012849585 0)
(0.56678708 0.012440587 0)
(0.51959585 0.011837505 0)
(0.47392762 0.011017067 0)
(0.43039495 0.0099838398 0)
(0.38965912 0.0087439001 0)
(0.35251076 0.0073255619 0)
(0.31954361 0.0057458994 0)
(0.29121129 0.0040876481 0)
(0.26766705 0.0025025039 0)
(0.24870209 0.0011537111 0)
(0.23380114 0.00014818241 0)
(0.22229508 -0.00049779332 0)
(0.21349933 -0.00084253197 0)
(0.20676794 -0.00097222883 0)
(0.20154546 -0.00096266581 0)
(0.19735574 -0.00086247413 0)
(0.1938401 -0.00071204547 0)
(0.19073711 -0.00054490983 0)
(0.18785592 -0.00038260425 0)
(0.18506721 -0.00023868255 0)
(0.18229913 -0.00011996625 0)
(0.17951694 -2.7513139e-05 0)
(0.17671569 4.1096839e-05 0)
(0.17390266 8.9781563e-05 0)
(0.17109612 0.00012261413 0)
(0.16831275 0.00014337161 0)
(0.1655719 0.00015521732 0)
(0.16288629 0.00016075739 0)
(0.16026936 0.00016196185 0)
(0.15772702 0.00016034951 0)
(0.15526653 0.00015696283 0)
(0.15288801 0.00015257246 0)
(0.15059429 0.00014764144 0)
(0.1483817 0.00014251445 0)
(0.14625057 0.00013735299 0)
(0.14419516 0.0001323004 0)
(0.14221478 0.00012738759 0)
(0.14030275 0.00012267317 0)
(0.13845828 0.00011813346 0)
(0.13667444 0.00011380776 0)
(0.1349508 0.00010966474 0)
(0.13328043 0.00010573609 0)
(0.1316635 0.00010198366 0)
(0.13009326 9.843634e-05 0)
(0.12857055 9.5052167e-05 0)
(0.1270888 9.1857868e-05 0)
(0.12564959 8.880837e-05 0)
(0.12424646 8.5929569e-05 0)
(0.12288169 8.3174987e-05 0)
(0.1215489 8.0571172e-05 0)
(0.120251 7.8071543e-05 0)
(0.11898163 7.5704208e-05 0)
(0.11774431 7.3423208e-05 0)
(0.11653259 7.1258602e-05 0)
(0.11535057 6.916534e-05 0)
(0.11419163 6.7175444e-05 0)
(0.11306044 6.5244768e-05 0)
(0.11195014 6.3407105e-05 0)
(0.11086594 6.1619078e-05 0)
(0.10980069 5.9915959e-05 0)
(0.10876014 5.8254934e-05 0)
(0.10773677 5.6672421e-05 0)
(0.1067369 5.5125974e-05 0)
(0.1057526 5.3652862e-05 0)
(0.10479074 5.2210862e-05 0)
(0.10384295 5.0837849e-05 0)
(0.10291669 4.9491723e-05 0)
(0.10200308 4.8210772e-05 0)
(0.10111021 4.6952993e-05 0)
(0.10022865 4.5756948e-05 0)
(0.099367144 4.4580735e-05 0)
(0.098515673 4.346307e-05 0)
(0.097683669 4.2362147e-05 0)
(0.096860479 4.1316755e-05 0)
(0.096056271 4.0285317e-05 0)
(0.095259698 3.9306628e-05 0)
(0.094481715 3.8339322e-05 0)
(0.093710225 3.7422104e-05 0)
(0.092957023 3.6513906e-05 0)
(0.092209202 3.5653297e-05 0)
(0.091479453 3.4799578e-05 0)
(0.090753997 3.3991123e-05 0)
(0.090046481 3.3187666e-05 0)
(0.089342184 3.2427324e-05 0)
(0.088655779 3.1670312e-05 0)
(0.087971524 3.0954422e-05 0)
(0.087305194 3.0240397e-05 0)
(0.086639947 2.9565635e-05 0)
(0.085992736 2.8891452e-05 0)
(0.085345535 2.8254799e-05 0)
(0.084716559 2.7617609e-05 0)
(0.084086506 2.7016333e-05 0)
(0.083474948 2.6413556e-05 0)
(0.082861205 2.5845176e-05 0)
(0.082266307 2.5274465e-05 0)
(0.081668088 2.4736726e-05 0)
(0.081089147 2.4195941e-05 0)
(0.080505714 2.3686783e-05 0)
(0.079942075 2.3173968e-05 0)
(0.079372733 2.269151e-05 0)
(0.078823789 2.2204867e-05 0)
(0.078267882 2.1747375e-05 0)
(0.077733066 2.1285241e-05 0)
(0.077189974 2.0851118e-05 0)
(0.076668762 2.041196e-05 0)
(0.076137895 1.9999745e-05 0)
(0.075629797 1.9582154e-05 0)
(0.075110596 1.9190502e-05 0)
(0.074615158 1.8793165e-05 0)
(0.074107089 1.8420833e-05 0)
(0.073623889 1.8042532e-05 0)
(0.073126442 1.7688374e-05 0)
(0.072655088 1.7327975e-05 0)
(0.072167774 1.6990934e-05 0)
(0.071707904 1.6647381e-05 0)
(0.071230254 1.6326485e-05 0)
(0.070781532 1.599879e-05 0)
(0.070313092 1.5693143e-05 0)
(0.06987521 1.538038e-05 0)
(0.069415542 1.5089158e-05 0)
(0.068988216 1.4790453e-05 0)
(0.068536895 1.4512896e-05 0)
(0.068119865 1.4227428e-05 0)
(0.067676478 1.3962842e-05 0)
(0.067269508 1.3689836e-05 0)
(0.066833649 1.3437586e-05 0)
(0.066436527 1.3176305e-05 0)
(0.066007799 1.2935812e-05 0)
(0.065620333 1.2685547e-05 0)
(0.065198345 1.2456283e-05 0)
(0.064820369 1.2216362e-05 0)
(0.064404732 1.1997853e-05 0)
(0.0640361 1.1767626e-05 0)
(0.06362643 1.1559457e-05 0)
(0.063267017 1.1338295e-05 0)
(0.062862929 1.1140089e-05 0)
(0.062512635 1.092737e-05 0)
(0.062113744 1.07388e-05 0)
(0.061772489 1.0533923e-05 0)
(0.061378405 1.0354721e-05 0)
(0.061046135 1.0157099e-05 0)
(0.060656463 9.9870528e-06 0)
(0.060333146 9.796089e-06 0)
(0.059947485 9.6350231e-06 0)
(0.059633113 9.4501098e-06 0)
(0.059251051 9.2979082e-06 0)
(0.058945644 9.1184394e-06 0)
(0.058566759 8.9750524e-06 0)
(0.058270362 8.8004107e-06 0)
(0.057894215 8.6658549e-06 0)
(0.057606902 8.4954058e-06 0)
(0.057233037 8.3697496e-06 0)
(0.056954911 8.2027984e-06 0)
(0.056582854 8.0861879e-06 0)
(0.056314051 7.9220352e-06 0)
(0.0559433 7.814714e-06 0)
(0.055683991 7.6525988e-06 0)
(0.055314018 7.554897e-06 0)
(0.055064408 7.3940113e-06 0)
(0.054694652 7.306358e-06 0)
(0.054454988 7.1457932e-06 0)
(0.054084851 7.0687505e-06 0)
(0.053855422 6.9075335e-06 0)
(0.053484261 6.841817e-06 0)
(0.053265403 6.6788472e-06 0)
(0.052892526 6.6253444e-06 0)
(0.052684624 6.459388e-06 0)
(0.052309283 6.4191826e-06 0)
(0.052112778 6.2488403e-06 0)
(0.051734157 6.2232822e-06 0)
(0.051549548 6.0469689e-06 0)
(0.051166754 6.0377313e-06 0)
(0.050994608 5.8535745e-06 0)
(0.050606656 5.8626926e-06 0)
(0.050447609 5.6685257e-06 0)
(0.050053411 5.6985868e-06 0)
(0.049908174 5.4918116e-06 0)
(0.049506514 5.5460918e-06 0)
(0.049375878 5.3235713e-06 0)
(0.048965387 5.4062816e-06 0)
(0.04885023 5.1641347e-06 0)
(0.04842935 5.2808349e-06 0)
(0.048330635 5.0142112e-06 0)
(0.047897558 5.1725397e-06 0)
(0.047816342 4.8750106e-06 0)
(0.047368914 5.0860224e-06 0)
(0.047306354 4.748485e-06 0)
(0.046841875 5.0294936e-06 0)
(0.046799355 4.6351049e-06 0)
(0.04631403 5.0158963e-06 0)
(0.046294316 4.5315793e-06 0)
(0.045778652 5.4106303e-06 0)
(0.97308246 0.015504624 0)
(0.97189449 0.022703419 0)
(0.97048814 0.026284602 0)
(0.96748752 0.027305268 0)
(0.96188542 0.027316885 0)
(0.95339273 0.027255983 0)
(0.94219178 0.027363476 0)
(0.92862825 0.027518839 0)
(0.91300181 0.027534065 0)
(0.89559032 0.027288635 0)
(0.87661732 0.026720286 0)
(0.85635101 0.025804596 0)
(0.83506563 0.024520929 0)
(0.81315203 0.022865561 0)
(0.79096363 0.020846752 0)
(0.76889511 0.018528559 0)
(0.74731631 0.016042651 0)
(0.72650061 0.013557878 0)
(0.70663293 0.011238014 0)
(0.68779817 0.009198006 0)
(0.67004539 0.0074902006 0)
(0.65335736 0.0061109976 0)
(0.63771052 0.0050287849 0)
(0.62302161 0.0041984206 0)
(0.60920886 0.0035781163 0)
(0.59619115 0.0031317869 0)
(0.58388206 0.0028213478 0)
(0.57219083 0.0026085983 0)
(0.56104882 0.0024596791 0)
(0.5503925 0.0023487013 0)
(0.54018158 0.0022578954 0)
(0.53037585 0.0021763958 0)
(0.52095409 0.0020979916 0)
(0.51188944 0.0020197628 0)
(0.50317088 0.00194058 0)
(0.49477743 0.0018605937 0)
(0.48670251 0.0017803797 0)
(0.47892676 0.0017009072 0)
(0.47144511 0.0016229971 0)
(0.46423791 0.0015475269 0)
(0.45730058 0.0014750345 0)
(0.45061271 0.0014060426 0)
(0.44417023 0.0013407233 0)
(0.43795219 0.0012792752 0)
(0.43195548 0.0012215987 0)
(0.42615897 0.0011676869 0)
(0.42056103 0.0011172813 0)
(0.41514072 0.0010702745 0)
(0.40989814 0.0010263447 0)
(0.4048127 0.00098535241 0)
(0.39988641 0.00094696467 0)
(0.39509909 0.00091105478 0)
(0.39045477 0.000877311 0)
(0.38593355 0.00084563753 0)
(0.38154149 0.0008157528 0)
(0.37725884 0.00078759509 0)
(0.37309361 0.00076091354 0)
(0.369026 0.00073567869 0)
(0.36506591 0.00071166784 0)
(0.3611933 0.00068887981 0)
(0.35741985 0.00066711608 0)
(0.35372509 0.00064639883 0)
(0.35012244 0.0006265493 0)
(0.34659079 0.00060760813 0)
(0.34314524 0.00058941219 0)
(0.33976387 0.00057201604 0)
(0.33646347 0.00055526863 0)
(0.33322114 0.00053923458 0)
(0.33005537 0.0005237721 0)
(0.32694209 0.00050895272 0)
(0.32390155 0.00049464186 0)
(0.32090839 0.00048091548 0)
(0.31798464 0.00046764475 0)
(0.31510353 0.00045490821 0)
(0.31228895 0.00044258198 0)
(0.30951257 0.00043074575 0)
(0.30680022 0.00041928019 0)
(0.30412187 0.0004082651 0)
(0.30150544 0.00039758557 0)
(0.298919 0.00038732066 0)
(0.2963927 0.00037736001 0)
(0.29389259 0.00036778111 0)
(0.29145113 0.00035847839 0)
(0.28903219 0.00034952733 0)
(0.28667073 0.00034082745 0)
(0.28432824 0.0003324515 0)
(0.28204232 0.00032430449 0)
(0.27977194 0.00031645592 0)
(0.27755749 0.00030881665 0)
(0.2753552 0.0003014523 0)
(0.27320847 0.00029428004 0)
(0.27107057 0.00028736103 0)
(0.26898812 0.0002806191 0)
(0.26691118 0.00027411034 0)
(0.26488984 0.00026776568 0)
(0.26287069 0.00026163551 0)
(0.26090751 0.00025565826 0)
(0.25894321 0.00024987802 0)
(0.25703549 0.00024424122 0)
(0.25512327 0.00023878501 0)
(0.25326852 0.00023346425 0)
(0.25140582 0.00022830857 0)
(0.2496017 0.00022328174 0)
(0.24778611 0.00021840522 0)
(0.24603048 0.00021365216 0)
(0.24425975 0.00020903533 0)
(0.2425506 0.00020453771 0)
(0.24082261 0.00020016274 0)
(0.23915809 0.00019590378 0)
(0.23747082 0.00019175435 0)
(0.23584921 0.00018771865 0)
(0.23420078 0.00018377975 0)
(0.23262046 0.00017995316 0)
(0.23100907 0.00017621099 0)
(0.22946857 0.00017258053 0)
(0.22789252 0.00016902241 0)
(0.22639045 0.00016557615 0)
(0.2248481 0.00016219035 0)
(0.22338318 0.00015891726 0)
(0.22187299 0.00015569297 0)
(0.22044403 0.00015258286 0)
(0.21896451 0.00014951006 0)
(0.21757041 0.00014655351 0)
(0.21612013 0.00014362294 0)
(0.21475987 0.00014081122 0)
(0.21333746 0.00013801431 0)
(0.21201011 0.00013533931 0)
(0.21061424 0.00013266809 0)
(0.20931893 0.0001301223 0)
(0.2079483 0.00012756936 0)
(0.20668426 0.00012514578 0)
(0.20533762 0.00012270427 0)
(0.20410413 0.00012039637 0)
(0.20278026 0.00011805993 0)
(0.20157668 0.00011586162 0)
(0.20027436 0.00011362431 0)
(0.19910011 0.0001115299 0)
(0.19781817 0.00010938621 0)
(0.19667275 0.00010739035 0)
(0.19541 0.00010533517 0)
(0.19429299 0.00010343286 0)
(0.19304827 0.00010146146 0)
(0.19195928 9.9647976e-05 0)
(0.19073142 9.775594e-05 0)
(0.18967015 9.6026813e-05 0)
(0.18845799 9.4210058e-05 0)
(0.18742422 9.2561085e-05 0)
(0.18622658 9.0815875e-05 0)
(0.18522014 8.9243087e-05 0)
(0.18403583 8.756599e-05 0)
(0.18305663 8.606556e-05 0)
(0.18188443 8.4453383e-05 0)
(0.18093246 8.3021623e-05 0)
(0.17977112 8.1471493e-05 0)
(0.17884645 8.01049e-05 0)
(0.1776947 7.8614267e-05 0)
(0.17679747 7.7309461e-05 0)
(0.17565399 7.5876068e-05 0)
(0.17478443 7.4629742e-05 0)
(0.17364784 7.3251567e-05 0)
(0.17280628 7.2060386e-05 0)
(0.17167514 7.0735757e-05 0)
(0.170862 6.959654e-05 0)
(0.16973481 6.8324173e-05 0)
(0.16895062 6.7233678e-05 0)
(0.16782578 6.6012608e-05 0)
(0.16707117 6.4967563e-05 0)
(0.165947 6.3797196e-05 0)
(0.16522274 6.279418e-05 0)
(0.16409744 6.1674436e-05 0)
(0.16340442 6.0709991e-05 0)
(0.16227604 5.9641334e-05 0)
(0.1616153 5.8711723e-05 0)
(0.16048178 5.7695207e-05 0)
(0.1598545 5.6796419e-05 0)
(0.1587136 5.5833829e-05 0)
(0.15812115 5.4961536e-05 0)
(0.15697042 5.405563e-05 0)
(0.15641434 5.3205071e-05 0)
(0.15525112 5.2359719e-05 0)
(0.15473315 5.1525394e-05 0)
(0.15355451 5.0745838e-05 0)
(0.15307662 4.9921582e-05 0)
(0.15187933 4.9215101e-05 0)
(0.15144373 4.8393645e-05 0)
(0.15022419 4.7770083e-05 0)
(0.14983335 4.6942766e-05 0)
(0.14858754 4.6415518e-05 0)
(0.14824419 4.557185e-05 0)
(0.14696756 4.5159525e-05 0)
(0.14667474 4.4286773e-05 0)
(0.14536206 4.4015859e-05 0)
(0.14512311 4.3097874e-05 0)
(0.14376824 4.300754e-05 0)
(0.14358687 4.2023445e-05 0)
(0.14218229 4.2173104e-05 0)
(0.14206282 4.1093029e-05 0)
(0.14059844 4.1560452e-05 0)
(0.14054754 4.0332866e-05 0)
(0.13900749 4.2866417e-05 0)
(0.97641231 0.015438993 0)
(0.97677253 0.020971166 0)
(0.9786528 0.024704534 0)
(0.98121958 0.026460801 0)
(0.98347555 0.027133247 0)
(0.98484941 0.02756321 0)
(0.98519415 0.02812793 0)
(0.98459974 0.028808057 0)
(0.98318683 0.029430577 0)
(0.9810191 0.029833487 0)
(0.97808761 0.029910652 0)
(0.97434389 0.029595692 0)
(0.969735 0.028849455 0)
(0.96422735 0.027653005 0)
(0.95783088 0.026030362 0)
(0.9505932 0.024052885 0)
(0.94262491 0.021844582 0)
(0.93404575 0.019561544 0)
(0.92500796 0.017362631 0)
(0.91564133 0.015370754 0)
(0.90608984 0.013655421 0)
(0.89645318 0.012230588 0)
(0.88683131 0.011074701 0)
(0.87726541 0.010145875 0)
(0.86779269 0.0094024093 0)
(0.85842123 0.0088101789 0)
(0.84915053 0.0083360452 0)
(0.83995673 0.0079482386 0)
(0.8308351 0.0076185754 0)
(0.82176685 0.0073252089 0)
(0.81275727 0.0070527828 0)
(0.80379571 0.0067919557 0)
(0.79489574 0.0065374151 0)
(0.78605169 0.006286897 0)
(0.7772823 0.0060396339 0)
(0.76858381 0.0057960904 0)
(0.75997731 0.0055569988 0)
(0.75145835 0.0053235357 0)
(0.74304844 0.0050966316 0)
(0.73474087 0.0048773522 0)
(0.72655653 0.0046663284 0)
(0.71848574 0.0044642435 0)
(0.71054855 0.004271316 0)
(0.70273217 0.0040878408 0)
(0.695056 0.0039136874 0)
(0.68750426 0.0037488639 0)
(0.68009609 0.0035930154 0)
(0.67281299 0.0034459706 0)
(0.66567419 0.0033072178 0)
(0.65865871 0.0031764713 0)
(0.65178624 0.0030531439 0)
(0.64503352 0.0029369134 0)
(0.63842112 0.0028271836 0)
(0.63192362 0.0027236452 0)
(0.62556278 0.0026257301 0)
(0.61931113 0.0025331668 0)
(0.61319189 0.0024454335 0)
(0.6071756 0.002362308 0)
(0.60128718 0.0022833221 0)
(0.59549518 0.0022083047 0)
(0.58982643 0.0021368422 0)
(0.58424748 0.0020688111 0)
(0.57878727 0.002003848 0)
(0.57341022 0.0019418704 0)
(0.56814762 0.0018825595 0)
(0.56296166 0.0018258658 0)
(0.55788612 0.0017715088 0)
(0.55288087 0.0017194641 0)
(0.54798232 0.0016694836 0)
(0.54314789 0.0016215607 0)
(0.53841681 0.001575475 0)
(0.53374386 0.0015312315 0)
(0.52917129 0.0014886339 0)
(0.52465104 0.0014476935 0)
(0.52022857 0.0014082357 0)
(0.51585278 0.0013702739 0)
(0.51157255 0.0013336537 0)
(0.50733352 0.0012983873 0)
(0.5031882 0.0012643399 0)
(0.49907872 0.0012315196 0)
(0.49506148 0.0011998107 0)
(0.49107484 0.0011692151 0)
(0.4871793 0.0011396365 0)
(0.48330921 0.001111068 0)
(0.47952946 0.0010834336 0)
(0.47577005 0.0010567154 0)
(0.47210057 0.0010308587 0)
(0.46844635 0.0010058326 0)
(0.464882 0.00098160467 0)
(0.46132785 0.00095812914 0)
(0.45786384 0.00093539673 0)
(0.45440494 0.00091334485 0)
(0.4510368 0.00089198859 0)
(0.44766864 0.00087124643 0)
(0.44439222 0.00085115911 0)
(0.44111056 0.00083162415 0)
(0.43792197 0.00081270928 0)
(0.43472282 0.00079428904 0)
(0.43161843 0.00077645969 0)
(0.42849803 0.00075907066 0)
(0.42547445 0.00074224827 0)
(0.42242925 0.00072581481 0)
(0.41948331 0.00070992827 0)
(0.41650996 0.00069438165 0)
(0.4136387 0.00067936635 0)
(0.41073402 0.00066464398 0)
(0.40793468 0.00065044113 0)
(0.40509564 0.00063648585 0)
(0.40236563 0.00062304178 0)
(0.39958937 0.00060980123 0)
(0.39692627 0.00059706685 0)
(0.39421006 0.00058449298 0)
(0.39161162 0.0005724233 0)
(0.38895285 0.00056047195 0)
(0.38641696 0.00054902572 0)
(0.38381313 0.00053765624 0)
(0.38133783 0.00052679555 0)
(0.37878654 0.00051597047 0)
(0.37637 0.00050566045 0)
(0.37386895 0.00049534514 0)
(0.37150948 0.00048555362 0)
(0.36905646 0.00047571603 0)
(0.36675247 0.00046641337 0)
(0.36434532 0.0004570238 0)
(0.36209538 0.00044818259 0)
(0.35973202 0.00043921348 0)
(0.35753477 0.00043080838 0)
(0.35521318 0.00042223412 0)
(0.3530674 0.00041424166 0)
(0.35078561 0.0004060384 0)
(0.34869016 0.00039843682 0)
(0.34644624 0.00039058237 0)
(0.34440012 0.0003833515 0)
(0.34219216 0.00037582513 0)
(0.34019446 0.00036894623 0)
(0.33802059 0.00036172859 0)
(0.3360705 0.00035518421 0)
(0.33392886 0.00034825722 0)
(0.33202567 0.00034203115 0)
(0.32991443 0.00033537789 0)
(0.32805755 0.00032945506 0)
(0.32597485 0.00032305969 0)
(0.32416377 0.000317426 0)
(0.32210777 0.00031127364 0)
(0.32034212 0.00030591594 0)
(0.31831096 0.00029999265 0)
(0.31659044 0.00029489872 0)
(0.31458223 0.00028919152 0)
(0.31290668 0.00028434995 0)
(0.31091951 0.00027884663 0)
(0.30928887 0.00027424668 0)
(0.30732078 0.00026893569 0)
(0.30573512 0.00026456725 0)
(0.30378409 0.00025943788 0)
(0.3022436 0.00025529155 0)
(0.30030756 0.00025033384 0)
(0.29881256 0.00024640084 0)
(0.29688936 0.00024160552 0)
(0.29544033 0.00023787748 0)
(0.29352772 0.0002332358 0)
(0.29212526 0.00022970471 0)
(0.2902209 0.00022520871 0)
(0.28886579 0.00022186719 0)
(0.2869672 0.00021750972 0)
(0.28566039 0.00021435064 0)
(0.28376495 0.00021012517 0)
(0.28250758 0.00020714167 0)
(0.28061252 0.00020304235 0)
(0.27940591 0.0002002277 0)
(0.27750828 0.00019624973 0)
(0.27635399 0.00019359755 0)
(0.27445061 0.00018973714 0)
(0.27335042 0.00018724092 0)
(0.27143788 0.0001834953 0)
(0.27039384 0.00018114845 0)
(0.26846844 0.00017751622 0)
(0.26748289 0.00017531212 0)
(0.26554061 0.00017179375 0)
(0.26461618 0.00016972546 0)
(0.26265266 0.00016632342 0)
(0.26179233 0.00016438319 0)
(0.25980277 0.00016110257 0)
(0.25900987 0.00015928216 0)
(0.256989 0.00015613204 0)
(0.25626728 0.00015442198 0)
(0.25420924 0.00015141639 0)
(0.25356288 0.00014980558 0)
(0.25146116 0.00014696564 0)
(0.25089478 0.00014544095 0)
(0.24874207 0.00014279835 0)
(0.24826078 0.00014134448 0)
(0.24604879 0.00013894683 0)
(0.24565819 0.00013754541 0)
(0.24337735 0.00013546555 0)
(0.2430835 0.00013409677 0)
(0.24072251 0.00013244536 0)
(0.24053197 0.00013108716 0)
(0.23807709 0.00013005097 0)
(0.23799651 0.00012848318 0)
(0.23543418 0.00013171526 0)
(0.97899475 0.014900229 0)
(0.97913201 0.018983163 0)
(0.98050036 0.022343387 0)
(0.98282651 0.024441686 0)
(0.98551201 0.025552129 0)
(0.98802127 0.026232229 0)
(0.99013899 0.026881442 0)
(0.9918971 0.027610375 0)
(0.99343912 0.028330777 0)
(0.99486434 0.028893287 0)
(0.99619892 0.029171009 0)
(0.99737625 0.029078944 0)
(0.99829852 0.028571405 0)
(0.99883329 0.027636946 0)
(0.99887605 0.026306443 0)
(0.99833083 0.02465138 0)
(0.99716235 0.022779162 0)
(0.99535757 0.020821328 0)
(0.99296876 0.018910702 0)
(0.9900602 0.017157594 0)
(0.98674285 0.015630134 0)
(0.98310843 0.014353374 0)
(0.97926403 0.013316033 0)
(0.97526935 0.012488739 0)
(0.97118626 0.011833169 0)
(0.96702732 0.011311123 0)
(0.96281345 0.010889717 0)
(0.95852481 0.010541492 0)
(0.95416848 0.010243311 0)
(0.94971926 0.0099770312 0)
(0.94518667 0.0097290189 0)
(0.94054766 0.0094902944 0)
(0.93581738 0.0092551161 0)
(0.93097597 0.0090206096 0)
(0.92604445 0.0087853676 0)
(0.92100549 0.0085494002 0)
(0.91588489 0.0083131039 0)
(0.91066634 0.008077528 0)
(0.90537902 0.0078435775 0)
(0.9000061 0.007612451 0)
(0.8945791 0.007384969 0)
(0.88907964 0.0071621049 0)
(0.88354096 0.0069443853 0)
(0.87794254 0.0067324655 0)
(0.8723191 0.0065265691 0)
(0.86664764 0.0063270765 0)
(0.86096438 0.0061339869 0)
(0.85524365 0.0059474812 0)
(0.84952322 0.0057673844 0)
(0.84377461 0.0055937283 0)
(0.83803733 0.0054262319 0)
(0.83227997 0.0052648432 0)
(0.82654396 0.005109234 0)
(0.82079487 0.0049593143 0)
(0.81507621 0.0048147455 0)
(0.80935041 0.0046754251 0)
(0.80366326 0.0045410253 0)
(0.79797392 0.004411445 0)
(0.79233069 0.0042863791 0)
(0.78668927 0.0041657337 0)
(0.78110067 0.0040492327 0)
(0.77551703 0.0039367902 0)
(0.76999226 0.0038281613 0)
(0.76447473 0.0037232659 0)
(0.75902154 0.0036218899 0)
(0.75357708 0.0035239556 0)
(0.74820186 0.0034292792 0)
(0.74283611 0.0033377805 0)
(0.73754404 0.0032493053 0)
(0.73226148 0.0031637667 0)
(0.7270566 0.0030810394 0)
(0.72186061 0.0030010261 0)
(0.71674596 0.0029236305 0)
(0.71163897 0.002848741 0)
(0.70661671 0.0027762916 0)
(0.70160032 0.002706153 0)
(0.6966718 0.0026382909 0)
(0.69174686 0.0025725557 0)
(0.6869128 0.0025089464 0)
(0.68207954 0.0024472903 0)
(0.67734008 0.0023876222 0)
(0.67259821 0.0023297436 0)
(0.66795302 0.0022737272 0)
(0.6633018 0.0022193455 0)
(0.65875019 0.002166712 0)
(0.65418855 0.002115567 0)
(0.6497295 0.0020660673 0)
(0.64525606 0.0020179185 0)
(0.64088835 0.0019713237 0)
(0.63650152 0.00192595 0)
(0.63222373 0.0018820498 0)
(0.62792174 0.0018392485 0)
(0.62373231 0.0017978505 0)
(0.61951328 0.0017574358 0)
(0.61541058 0.0017183639 0)
(0.61127251 0.0016801655 0)
(0.60725485 0.0016432586 0)
(0.60319569 0.0016071206 0)
(0.59926133 0.0015722311 0)
(0.59527897 0.0015380106 0)
(0.59142619 0.0015050039 0)
(0.58751851 0.0014725699 0)
(0.58374558 0.0014413224 0)
(0.57991043 0.0014105545 0)
(0.57621565 0.0013809531 0)
(0.57245089 0.0013517406 0)
(0.56883259 0.0013236811 0)
(0.56513608 0.0012959222 0)
(0.56159264 0.001269309 0)
(0.55796224 0.0012429095 0)
(0.55449208 0.0012176545 0)
(0.55092569 0.0011925276 0)
(0.5475273 0.0011685496 0)
(0.54402281 0.0011446147 0)
(0.54069474 0.001121839 0)
(0.53725006 0.0010990217 0)
(0.53399093 0.001077379 0)
(0.530604 0.0010556101 0)
(0.52741249 0.0010350365 0)
(0.52408125 0.0010142518 0)
(0.52095612 0.00099468821 0)
(0.51767854 0.00097482792 0)
(0.51461863 0.00095621962 0)
(0.51139269 0.0009372281 0)
(0.50839691 0.00091952434 0)
(0.50522058 0.00090134968 0)
(0.50228793 0.00088450343 0)
(0.4991592 0.00086709712 0)
(0.49628877 0.00085106472 0)
(0.49320563 0.00083438139 0)
(0.49039658 0.0008191223 0)
(0.48735702 0.00080311947 0)
(0.48460862 0.00078859605 0)
(0.48161062 0.00077323387 0)
(0.47892221 0.00075941112 0)
(0.47596373 0.00074465213 0)
(0.47333476 0.0007314975 0)
(0.47041376 0.00071730649 0)
(0.46784378 0.00070478975 0)
(0.46495817 0.0006911336 0)
(0.46244684 0.00067922662 0)
(0.45959449 0.0006660741 0)
(0.45714158 0.00065475068 0)
(0.45432035 0.00064207222 0)
(0.45192573 0.00063130799 0)
(0.44913341 0.00061907572 0)
(0.44679708 0.00060884813 0)
(0.4440314 0.00059703576 0)
(0.44175349 0.00058732391 0)
(0.43901211 0.00057590652 0)
(0.43679288 0.00056669083 0)
(0.43407339 0.00055564464 0)
(0.43191325 0.00054690694 0)
(0.42921313 0.00053620951 0)
(0.42711264 0.00052793306 0)
(0.42442927 0.00051756322 0)
(0.42238915 0.00050973264 0)
(0.41971978 0.00049967032 0)
(0.41774094 0.00049227121 0)
(0.41508269 0.00048249711 0)
(0.41316622 0.00047551602 0)
(0.41051605 0.0004660121 0)
(0.40866324 0.00045943696 0)
(0.40601791 0.00045018635 0)
(0.40423029 0.00044400597 0)
(0.40158639 0.00043499274 0)
(0.39986572 0.00042919667 0)
(0.39721957 0.00042040577 0)
(0.39556789 0.0004149843 0)
(0.39291557 0.00040640221 0)
(0.39133519 0.00040134667 0)
(0.38867249 0.00039296129 0)
(0.38716603 0.00038826342 0)
(0.38448839 0.00038006399 0)
(0.38305884 0.00037571587 0)
(0.38036134 0.00036769355 0)
(0.37901205 0.00036368792 0)
(0.37628932 0.00035583662 0)
(0.37502406 0.00035216647 0)
(0.37227026 0.0003444828 0)
(0.37109322 0.00034114055 0)
(0.36830196 0.00033362507 0)
(0.36721786 0.00033060326 0)
(0.36438209 0.0003232625 0)
(0.36339615 0.00032055279 0)
(0.36050814 0.00031340087 0)
(0.35962613 0.00031099331 0)
(0.35667729 0.00030405547 0)
(0.35590557 0.00030193815 0)
(0.35288635 0.00029525683 0)
(0.35223187 0.00029341537 0)
(0.34913159 0.00028705949 0)
(0.34860179 0.00028547525 0)
(0.34540846 0.00027955787 0)
(0.34501108 0.00027820572 0)
(0.3417112 0.00027292241 0)
(0.34145365 0.000271726 0)
(0.33803263 0.00026756108 0)
(0.33791941 0.00026590848 0)
(0.33436679 0.00026796967 0)
(0.98106113 0.014582828 0)
(0.98113625 0.017839013 0)
(0.98213908 0.020813022 0)
(0.98398039 0.023052769 0)
(0.98632822 0.024476739 0)
(0.98875272 0.025363862 0)
(0.99099858 0.026044319 0)
(0.99301208 0.026700572 0)
(0.99489978 0.027334446 0)
(0.9967674 0.027843144 0)
(0.99868944 0.028106837 0)
(1.0006423 0.028037362 0)
(1.0025703 0.027589447 0)
(1.0043593 0.026758679 0)
(1.005917 0.025579138 0)
(1.0071326 0.024118248 0)
(1.0079506 0.022469157 0)
(1.008316 0.020741527 0)
(1.0082454 0.01904542 0)
(1.0077564 0.017475074 0)
(1.0069335 0.016093442 0)
(1.0058376 0.014928762 0)
(1.0045712 0.013977881 0)
(1.0031819 0.013218478 0)
(1.0017417 0.012617568 0)
(1.0002561 0.012140278 0)
(0.99875996 0.011756068 0)
(0.99722714 0.011440557 0)
(0.99567654 0.011173852 0)
(0.9940713 0.010940227 0)
(0.99242926 0.010727188 0)
(0.99071137 0.010525841 0)
(0.98893901 0.010329927 0)
(0.98707343 0.010135826 0)
(0.98514124 0.0099413898 0)
(0.98310459 0.0097459606 0)
(0.98099544 0.0095493991 0)
(0.97877618 0.0093523032 0)
(0.9764835 0.0091552531 0)
(0.97407899 0.0089591674 0)
(0.97160338 0.0087646999 0)
(0.96901658 0.0085726623 0)
(0.96636288 0.008383525 0)
(0.96359992 0.0081978569 0)
(0.96077536 0.0080158985 0)
(0.95784411 0.0078379839 0)
(0.95485716 0.007664163 0)
(0.9517664 0.0074945856 0)
(0.94862623 0.0073291751 0)
(0.94538522 0.0071679557 0)
(0.94210136 0.0070107797 0)
(0.93871968 0.0068575944 0)
(0.93530193 0.0067082277 0)
(0.93178938 0.0065625853 0)
(0.92824774 0.0064205017 0)
(0.92461427 0.0062818611 0)
(0.92095886 0.0061465229 0)
(0.91721455 0.00601436 0)
(0.91345561 0.0058852678 0)
(0.90961058 0.0057591115 0)
(0.9057584 0.0056358283 0)
(0.9018228 0.0055152746 0)
(0.89788763 0.0053974321 0)
(0.89387153 0.0052821449 0)
(0.88986354 0.0051694392 0)
(0.88577688 0.0050591413 0)
(0.88170607 0.0049513221 0)
(0.87755855 0.0048457837 0)
(0.87343465 0.0047426414 0)
(0.86923568 0.0046416671 0)
(0.86506811 0.0045430206 0)
(0.86082671 0.0044464377 0)
(0.8566245 0.0043521239 0)
(0.85234928 0.0042597733 0)
(0.84812098 0.0041696389 0)
(0.84382007 0.0040813686 0)
(0.83957379 0.0039952653 0)
(0.83525478 0.0039109258 0)
(0.8309981 0.0038287068 0)
(0.82666806 0.0037481496 0)
(0.82240803 0.0036696684 0)
(0.81807349 0.0035927449 0)
(0.81381662 0.0035178549 0)
(0.80948354 0.0034444159 0)
(0.80523582 0.0033729703 0)
(0.80090962 0.0033028666 0)
(0.79667653 0.0032347187 0)
(0.79236211 0.0031678022 0)
(0.78814861 0.0031028077 0)
(0.78385034 0.0030389325 0)
(0.77966093 0.0029769497 0)
(0.77538269 0.0029159734 0)
(0.7712214 0.0028568646 0)
(0.76696664 0.0027986484 0)
(0.76283708 0.0027422799 0)
(0.75860877 0.0026866894 0)
(0.75451417 0.0026329319 0)
(0.75031488 0.002579837 0)
(0.7462581 0.0025285662 0)
(0.74209004 0.0024778418 0)
(0.7380736 0.0024289386 0)
(0.73393861 0.0023804649 0)
(0.72996473 0.0023338153 0)
(0.72586433 0.0022874774 0)
(0.72193497 0.0022429728 0)
(0.71787038 0.0021986609 0)
(0.71398726 0.0021561979 0)
(0.70995943 0.0021138072 0)
(0.70612403 0.0020732874 0)
(0.70213366 0.002032718 0)
(0.6983473 0.0019940481 0)
(0.69439486 0.0019552049 0)
(0.69065868 0.0019182967 0)
(0.68674443 0.0018810896 0)
(0.68305942 0.0018458595 0)
(0.67918343 0.0018102025 0)
(0.67555048 0.0017765716 0)
(0.67171263 0.0017423833 0)
(0.66813253 0.001710277 0)
(0.66433255 0.0016774798 0)
(0.66080598 0.0016468279 0)
(0.65704346 0.0016153484 0)
(0.65357105 0.0015860846 0)
(0.64984541 0.0015558531 0)
(0.64642774 0.0015279151 0)
(0.64273828 0.0014988653 0)
(0.63937589 0.0014721946 0)
(0.6357218 0.0014442637 0)
(0.63241522 0.0014188051 0)
(0.62879554 0.0013919334 0)
(0.62554527 0.0013676352 0)
(0.62195894 0.001341766 0)
(0.6187655 0.0013185796 0)
(0.61521134 0.001293659 0)
(0.61207527 0.0012715388 0)
(0.60855199 0.0012475155 0)
(0.60547384 0.0012264187 0)
(0.60198003 0.0012032438 0)
(0.59896041 0.0011831305 0)
(0.59549455 0.0011607573 0)
(0.59253411 0.0011415902 0)
(0.58909456 0.0011199742 0)
(0.58619401 0.0011017182 0)
(0.582779 0.0010808169 0)
(0.57993914 0.0010634394 0)
(0.57654679 0.001043212 0)
(0.5737685 0.0010266826 0)
(0.57039678 0.0010070904 0)
(0.56768104 0.00099138109 0)
(0.56432779 0.00097238672 0)
(0.56167568 0.00095747117 0)
(0.55833859 0.00093903872 0)
(0.55575135 0.0009248926 0)
(0.55242793 0.00090698762 0)
(0.54990692 0.00089358864 0)
(0.54659451 0.00087617819 0)
(0.54414127 0.00086350603 0)
(0.54083703 0.00084655848 0)
(0.53845326 0.00083459436 0)
(0.53515412 0.0008180788 0)
(0.53284174 0.00080680539 0)
(0.52954442 0.00079069245 0)
(0.52730555 0.00078009456 0)
(0.52400651 0.00076435619 0)
(0.52184351 0.00075442012 0)
(0.51853893 0.00073902932 0)
(0.51645445 0.00072974269 0)
(0.51314021 0.00071467336 0)
(0.51113717 0.00070602512 0)
(0.50780881 0.00069125299 0)
(0.50589047 0.00068323396 0)
(0.50254316 0.00066873643 0)
(0.50071313 0.00066133839 0)
(0.4973416 0.00064709444 0)
(0.49560389 0.00064031006 0)
(0.49220242 0.00062630095 0)
(0.49056146 0.00062012433 0)
(0.48712381 0.00060633494 0)
(0.4855845 0.00060076105 0)
(0.48210385 0.00058717971 0)
(0.48067161 0.00058220318 0)
(0.47714047 0.00056882358 0)
(0.47582127 0.00056443969 0)
(0.47223144 0.00055126386 0)
(0.47103182 0.00054746699 0)
(0.46737429 0.00053450799 0)
(0.46630141 0.00053129021 0)
(0.46256625 0.0005185776 0)
(0.46162786 0.00051592751 0)
(0.45780412 0.00050351743 0)
(0.45700856 0.00050141767 0)
(0.45308419 0.00048940907 0)
(0.45244014 0.00048782889 0)
(0.44840193 0.00047639791 0)
(0.44791806 0.00047527302 0)
(0.44375173 0.00046476304 0)
(0.44343559 0.00046387483 0)
(0.43912672 0.00045519464 0)
(0.43898169 0.00045356073 0)
(0.43452025 0.00045266284 0)
(0.98282734 0.014417363 0)
(0.98289977 0.017158052 0)
(0.98370191 0.019789111 0)
(0.98519167 0.021986069 0)
(0.98718915 0.023568554 0)
(0.98938287 0.024611004 0)
(0.99153848 0.025335621 0)
(0.99353367 0.025929839 0)
(0.99541325 0.026457336 0)
(0.99724382 0.026871716 0)
(0.99911302 0.027081112 0)
(1.0010158 0.027003319 0)
(1.0029359 0.026592078 0)
(1.0047789 0.025842514 0)
(1.0064836 0.024785609 0)
(1.0079448 0.023481169 0)
(1.0091238 0.022009214 0)
(1.0099541 0.020461528 0)
(1.0104539 0.018930223 0)
(1.0106145 0.017496231 0)
(1.0105142 0.016217617 0)
(1.0101863 0.015124664 0)
(1.0097344 0.014220827 0)
(1.0091877 0.013490353 0)
(1.0086308 0.01290611 0)
(1.0080574 0.012437931 0)
(1.0075213 0.012058339 0)
(1.0069857 0.011745264 0)
(1.0064885 0.011481045 0)