/*--------------------------------*- C++ -*----------------------------------*\
| =========                 |                                                 |
| \\      /  F ield         | OpenFOAM: The Open Source CFD Toolbox           |
|  \\    /   O peration     | Version:  5.x                                   |
|   \\  /    A nd           | Web:      www.OpenFOAM.org                      |
|    \\/     M anipulation  |                                                 |
\*---------------------------------------------------------------------------*/
FoamFile
{
    version     2.0;
    format      ascii;
    class       volScalarField;
    location    "0.9";
    object      p;
}
// * * * * * * * * * * * * * * * * * * * * * * * * * * * * * * * * * * * * * //

dimensions      [0 2 -2 0 0 0 0];

internalField   nonuniform List<scalar> 
2475
(
0.0325202
0.0285954
0.0226549
0.0169756
0.0113089
0.00535047
-0.000319798
-0.00424641
-0.00548814
-0.00466453
-0.00312372
-0.00173875
-0.000810759
-0.000322152
-0.00012264
-6.46036e-05
-5.60943e-05
-5.61974e-05
-4.92476e-05
-4.00919e-05
-3.60057e-05
-3.59416e-05
-3.66694e-05
-5.44586e-05
-7.9313e-05
-0.000107004
-0.000134506
-0.000162329
-0.00018048
-0.000193606
-0.000204956
-0.00020209
-0.000198015
-0.000139596
-0.000113177
0.029274
0.0272154
0.0222134
0.0167298
0.0111835
0.00544682
-3.51222e-07
-0.00386038
-0.00520222
-0.00448861
-0.00301084
-0.00166159
-0.000756953
-0.000283057
-9.24658e-05
-3.98628e-05
-3.51673e-05
-3.81613e-05
-3.35876e-05
-2.62866e-05
-2.38905e-05
-2.51532e-05
-2.7053e-05
-4.57757e-05
-7.16163e-05
-9.99835e-05
-0.000128277
-0.000156608
-0.000175428
-0.000188859
-0.000200812
-0.000198104
-0.000194619
-0.000136179
-0.000110271
0.026711
0.0258773
0.021832
0.0166087
0.0111728
0.00570154
0.000613088
-0.0031138
-0.0046478
-0.00419669
-0.00287018
-0.00158954
-0.000709239
-0.000243252
-5.66341e-05
-7.63901e-06
-6.76139e-06
-1.37827e-05
-1.30721e-05
-9.10906e-06
-9.45089e-06
-1.28775e-05
-1.64888e-05
-3.66329e-05
-6.36974e-05
-9.29879e-05
-0.000122154
-0.000151131
-0.000170618
-0.000184456
-0.000196985
-0.000194534
-0.000191573
-0.000133363
-0.000107897
0.0247104
0.0245203
0.0213485
0.0165192
0.0112487
0.0060375
0.00130042
-0.00225416
-0.00394348
-0.00379216
-0.00267423
-0.00148136
-0.000628403
-0.000172887
4.34688e-06
4.37583e-05
3.63452e-05
2.21898e-05
1.66614e-05
1.53139e-05
1.09095e-05
4.30155e-06
-1.72466e-06
-2.38616e-05
-5.25605e-05
-8.33233e-05
-0.000113786
-0.000143836
-0.00016427
-0.000178846
-0.00019216
-0.000190256
-0.00018789
-0.000130491
-0.000105108
0.0230085
0.02314
0.0207051
0.0163838
0.0113685
0.00640639
0.00197083
-0.00140906
-0.00320329
-0.00333384
-0.00244457
-0.0013541
-0.000529674
-8.17644e-05
8.62122e-05
0.000113688
9.5392e-05
7.20306e-05
5.82867e-05
4.9794e-05
3.98776e-05
2.87931e-05
1.91461e-05
-5.85369e-06
-3.68067e-05
-6.96351e-05
-0.00010196
-0.000133595
-0.000155437
-0.000171108
-0.000185544
-0.00018455
-0.000182938
-0.000127208
-0.000101188
0.0214812
0.0217828
0.0199336
0.016184
0.0115123
0.0067998
0.00261237
-0.000604409
-0.00245832
-0.00283569
-0.00218281
-0.00121218
-0.000422586
2.00969e-05
0.000181401
0.000196703
0.000165903
0.000131959
0.000108876
9.24611e-05
7.63308e-05
6.00715e-05
4.58597e-05
1.74494e-05
-1.62825e-05
-5.15131e-05
-8.62223e-05
-0.000119819
-0.000143685
-0.000160771
-0.000176768
-0.000177007
-0.000176374
-0.000123271
-9.57008e-05
0.0200959
0.0205121
0.0191131
0.015922
0.0116555
0.00720905
0.00323145
0.000156501
-0.00172102
-0.00230351
-0.00188536
-0.00105307
-0.000308908
0.000128926
0.00028709
0.000291097
0.000246264
0.000199859
0.000165983
0.000140874
0.000117999
9.62307e-05
7.68516e-05
4.47689e-05
7.85032e-06
-2.97933e-05
-6.71956e-05
-0.000102779
-0.000129224
-0.000147883
-0.000165888
-0.000167519
-0.000168126
-0.00011846
-8.86716e-05
0.0188762
0.0193925
0.0183277
0.0156195
0.0117764
0.00761816
0.0038335
0.000877497
-0.00100239
-0.00174733
-0.00155153
-0.000872794
-0.000187544
0.000243173
0.00040151
0.000396138
0.000336269
0.000275321
0.000228807
0.000193874
0.000163639
0.000136109
0.000111158
7.51656e-05
3.46933e-05
-5.39864e-06
-4.57359e-05
-8.32321e-05
-0.000112623
-0.000132959
-0.000153321
-0.000156414
-0.000158456
-0.000112761
-8.06823e-05
0.017851
0.0184724
0.0176331
0.0153084
0.0118657
0.00801009
0.00441825
0.00156536
-0.000308292
-0.00117618
-0.00118074
-0.000665396
-5.42753e-05
0.000363036
0.000523215
0.000511191
0.000436358
0.000359096
0.000297854
0.00025157
0.00021316
0.000179539
0.00014865
0.000108433
6.4067e-05
2.13323e-05
-2.21807e-05
-6.16664e-05
-9.42109e-05
-0.000116438
-0.00013935
-0.000144119
-0.000147667
-0.00010634
-7.24483e-05
0.0169648
0.0177205
0.0170436
0.0150052
0.0119157
0.00836282
0.00497285
0.00222074
0.000358649
-0.000599468
-0.000777469
-0.000428133
9.36583e-05
0.000488192
0.00064993
0.000634662
0.000546551
0.000452055
0.000373949
0.000314399
0.00026669
0.00022649
0.000189326
0.00014457
9.60349e-05
5.03471e-05
3.4374e-06
-3.82868e-05
-7.40918e-05
-9.85455e-05
-0.000124049
-0.000130897
-0.000135938
-9.93577e-05
-6.44127e-05
0.0161395
0.0170575
0.0165338
0.0147172
0.0119246
0.00866069
0.0054836
0.00284144
0.00099639
-2.80087e-05
-0.000351729
-0.000162373
0.000258428
0.0006195
0.000780324
0.000764597
0.000666021
0.000554516
0.000457748
0.000382761
0.000324307
0.000276879
0.000233133
0.000183557
0.000130654
8.16587e-05
3.11698e-05
-1.31475e-05
-5.22686e-05
-7.93657e-05
-0.000107417
-0.00011684
-0.000123364
-9.18773e-05
-5.67665e-05
0.0153422
0.0164418
0.0160828
0.0144526
0.0119077
0.00890692
0.00594491
0.00342474
0.00160396
0.000529775
8.91084e-05
0.000132093
0.000444424
0.000760906
0.000915246
0.000899965
0.000793845
0.000666677
0.000550202
0.00045763
0.000386673
0.000331077
0.000280327
0.000225566
0.000168111
0.00011542
6.11795e-05
1.38527e-05
-2.86316e-05
-5.88291e-05
-8.94022e-05
-0.000101908
-0.000109996
-8.38727e-05
-4.9549e-05
0.0145677
0.0158577
0.0156761
0.0142178
0.0118831
0.009113
0.0063537
0.00396365
0.00217928
0.00106972
0.000538906
0.000454214
0.000655099
0.000916038
0.00105621
0.00103986
0.000928604
0.00078832
0.00065225
0.000540131
0.00045457
0.00038941
0.000331045
0.000270697
0.000208586
0.000151839
9.36722e-05
4.28638e-05
-3.07689e-06
-3.68332e-05
-6.99593e-05
-8.59996e-05
-9.5874e-05
-7.52926e-05
-4.27546e-05
0.0138198
0.0153006
0.0153046
0.014015
0.0118613
0.00928899
0.00671134
0.00445282
0.00272002
0.00158961
0.000990471
0.000799261
0.000891184
0.00108693
0.00120469
0.00118381
0.0010688
0.000918513
0.000764131
0.000631018
0.000528706
0.0004523
0.000385496
0.000319046
0.000252156
0.000191003
0.000128756
7.40253e-05
2.45014e-05
-1.32526e-05
-4.90717e-05
-6.90224e-05
-8.10365e-05
-6.61009e-05
-3.63687e-05
0.0131051
0.0147727
0.0149638
0.0138409
0.0118459
0.00944164
0.00702259
0.00488928
0.00322071
0.00208503
0.00143521
0.00115939
0.00115117
0.00127523
0.00136306
0.00133308
0.00121365
0.00105559
0.000885097
0.000730565
0.000609712
0.000520312
0.000443989
0.00037072
0.000298867
0.000233016
0.00016654
0.000107477
5.41776e-05
1.20383e-05
-2.6714e-05
-5.08815e-05
-6.55094e-05
-5.62867e-05
-3.03593e-05
0.0124333
0.0142804
0.0146507
0.0136891
0.0118364
0.00957448
0.00729213
0.00527237
0.00367494
0.0025506
0.00186582
0.00152593
0.0014323
0.00148271
0.00153369
0.00148931
0.0013624
0.00119757
0.00101405
0.000839051
0.000698374
0.000594136
0.000506906
0.000425844
0.000348726
0.000277963
0.000207125
0.000143383
8.60447e-05
3.91732e-05
-2.86308e-06
-3.14945e-05
-4.92967e-05
-4.58576e-05
-2.47061e-05
0.0118101
0.0138252
0.0143596
0.0135491
0.0118268
0.0096878
0.00752408
0.00560556
0.0040802
0.00298223
0.00227774
0.00189162
0.0017307
0.00171005
0.00171756
0.00165371
0.00151539
0.00134348
0.00114996
0.000956378
0.000795178
0.000674389
0.000574791
0.000484822
0.000401912
0.000325962
0.000250588
0.000181918
0.000120243
6.83497e-05
2.25703e-05
-1.07649e-05
-3.2354e-05
-3.48036e-05
-1.92053e-05
0.0112296
0.0134013
0.0140831
0.0134114
0.0118113
0.00978271
0.0077231
0.00589428
0.00443661
0.00337515
0.00266702
0.00224991
0.0020387
0.00195444
0.00191451
0.00182739
0.00167431
0.00149313
0.0012912
0.00108118
0.000899689
0.000761361
0.000648086
0.000547931
0.00045848
0.00037702
0.000296898
0.000223115
0.000156775
9.96021e-05
4.96055e-05
1.13243e-05
-1.46771e-05
-2.32063e-05
-1.39337e-05
0.0106868
0.0130058
0.0138216
0.0132764
0.0117908
0.00986279
0.00789436
0.00614407
0.00474713
0.00372702
0.00303051
0.0025952
0.00234752
0.00221192
0.00212513
0.00201158
0.00184079
0.00164648
0.00143623
0.0012123
0.00101167
0.000855528
0.000727422
0.00061553
0.000518462
0.000431118
0.000346032
0.000267027
0.000195742
0.000133057
7.82909e-05
3.47683e-05
3.75144e-06
-1.11031e-05
-8.94935e-06
0.0101808
0.0126388
0.0135781
0.0131458
0.0117633
0.00992559
0.00803765
0.00635706
0.00501573
0.00403839
0.00336489
0.00292347
0.00265121
0.00247878
0.00234969
0.00220659
0.00201554
0.00180429
0.00158445
0.00134903
0.00113066
0.000956647
0.000813029
0.000688257
0.000582435
0.000488649
0.000398205
0.000313801
0.00023723
0.000168856
0.000108839
5.97589e-05
2.30869e-05
1.57377e-06
-3.6138e-06
0.00970538
0.0122947
0.0133484
0.0130152
0.0117226
0.00996562
0.00815046
0.00653366
0.00524466
0.00430881
0.00366453
0.00322968
0.00294393
0.00274643
0.0025824
0.00240913
0.00219713
0.00196691
0.00173531
0.00148982
0.00125505
0.00106351
0.000904473
0.000766102
0.000650266
0.000549215
0.000452992
0.00036312
0.000281131
0.00020687
0.000141114
8.60714e-05
4.32401e-05
1.46639e-05
1.48549e-06
0.00926239
0.0119705
0.0131282
0.0128825
0.0116687
0.00998453
0.00823632
0.00667894
0.00543871
0.00454144
0.00392839
0.00351064
0.00322158
0.00300841
0.00281865
0.00261833
0.00238621
0.0021359
0.00188892
0.00163296
0.0013834
0.00117525
0.00100139
0.000849065
0.000722159
0.000613121
0.000510602
0.000414931
0.000327258
0.000246948
0.000175146
0.000113756
6.42255e-05
2.81059e-05
6.17394e-06
0.00885523
0.0116673
0.0129185
0.0127519
0.0116083
0.00998973
0.00830231
0.00679948
0.00560381
0.00474226
0.00416
0.00376566
0.00348261
0.00326109
0.00305453
0.00283279
0.00258153
0.00231052
0.00204554
0.00177857
0.00151575
0.00129191
0.00110386
0.000937587
0.000798566
0.000680634
0.00057119
0.000469425
0.000375915
0.000289461
0.000211173
0.000142992
8.62406e-05
4.21987e-05
1.16892e-05
0.00847637
0.0113823
0.0127187
0.0126241
0.0115422
0.00998025
0.00834537
0.00689063
0.00573575
0.00490854
0.00435715
0.00398998
0.0037215
0.00349912
0.00328357
0.00304699
0.00277883
0.00248848
0.00220503
0.00192647
0.00165088
0.00141112
0.00120944
0.00103019
0.000878906
0.000751461
0.000634573
0.000526337
0.00042666
0.000333804
0.000248829
0.000173581
0.000109169
5.67391e-05
1.70949e-05
0.00812219
0.0111133
0.0125257
0.0124949
0.0114657
0.00995136
0.0083615
0.00694999
0.00583471
0.00504226
0.0045221
0.00418282
0.0039343
0.0037185
0.00350089
0.00325571
0.00297456
0.00266797
0.00236609
0.0020743
0.00178651
0.00153168
0.00131726
0.00112616
0.000962689
0.000825221
0.000700331
0.000585072
0.000479083
0.000379851
0.000288002
0.000205262
0.000132822
7.16191e-05
2.19808e-05
0.00779819
0.0108623
0.0123402
0.0123647
0.0113814
0.0099086
0.0083591
0.0069875
0.00591002
0.00515056
0.00465922
0.00434607
0.00412017
0.00391721
0.00370281
0.00345421
0.00316556
0.00284721
0.00252749
0.00222137
0.00192275
0.001654
0.00142684
0.00122438
0.001049
0.000901481
0.000768541
0.000646112
0.000533417
0.000427451
0.000328486
0.000238148
0.000157348
8.70717e-05
2.78216e-05
0.0075055
0.0106315
0.012165
0.0122368
0.0112936
0.00985718
0.00834301
0.00700592
0.00596097
0.00523054
0.00476609
0.0044793
0.00427843
0.00409314
0.0038867
0.00363914
0.00334778
0.00302201
0.00268671
0.00236668
0.00205803
0.00177562
0.00153572
0.00132338
0.00113738
0.000979976
0.000838651
0.000708573
0.000588853
0.000476176
0.000370058
0.000271886
0.000182423
0.000102795
3.38688e-05
0.00724118
0.0104201
0.0120005
0.0121122
0.0112027
0.00979632
0.00831092
0.00700205
0.0059851
0.00528216
0.00484503
0.00458492
0.00440925
0.00424379
0.00404909
0.00380657
0.00351564
0.00318629
0.0028402
0.00250804
0.00219011
0.00189531
0.00164344
0.00142215
0.00122629
0.00105908
0.000909618
0.000772031
0.000645333
0.000525617
0.000412101
0.00030591
0.000207847
0.000118444
3.87676e-05
0.00700084
0.0102245
0.0118439
0.0119882
0.0111062
0.00972392
0.00826195
0.00697727
0.0059862
0.00530973
0.00489845
0.00466263
0.00450986
0.00436494
0.0041857
0.0039534
0.00366666
0.00333737
0.00298578
0.00264293
0.00231631
0.00201218
0.00174919
0.00151894
0.00131459
0.00113872
0.000981835
0.000836906
0.000702721
0.000575707
0.000454881
0.000340624
0.000233795
0.00013448
4.27963e-05
0.00677223
0.0100349
0.0116888
0.0118617
0.0110028
0.00964003
0.00819674
0.00693164
0.00596187
0.00530768
0.00491893
0.00470584
0.00457536
0.00445247
0.00429204
0.00407402
0.00379535
0.00346947
0.00311704
0.00276652
0.0024328
0.00212262
0.0018503
0.00161234
0.00140159
0.0012183
0.00105408
0.000902305
0.000761347
0.000627499
0.000499007
0.000376671
0.00026109
0.000152915
5.34105e-05
0.00625412
0.00960483
0.0113356
0.0115682
0.0107532
0.00942384
0.0080098
0.00677413
0.00583651
0.00522009
0.0048758
0.0047138
0.00463775
0.00456865
0.00445435
0.0042716
0.00401797
0.00370772
0.0033623
0.00300586
0.00266157
0.00234101
0.00205235
0.00179981
0.00157754
0.00138056
0.00120376
0.00103989
0.000884549
0.00073553
0.000591328
0.000451803
0.000317184
0.000187927
6.39287e-05
0.00656716
0.00981597
0.0114356
0.0115571
0.0106425
0.00923463
0.00776789
0.00650608
0.00556711
0.00497106
0.00466338
0.00454824
0.00452312
0.00450355
0.00443431
0.00428965
0.00406692
0.00378073
0.00345424
0.00311175
0.00277556
0.00246082
0.00217588
0.00192314
0.00169944
0.00149965
0.00131722
0.00114555
0.000980475
0.000819163
0.0006602
0.000503779
0.000350891
0.000202893
6.18407e-05
0.00516323
0.00839762
0.0100615
0.0102805
0.00949744
0.00823151
0.00689747
0.00574729
0.00489649
0.0043659
0.00410255
0.00401296
0.0040016
0.00399575
0.00395106
0.00384625
0.003677
0.00345427
0.00319866
0.00293085
0.00266493
0.00241066
0.00217609
0.0019621
0.00176453
0.00158059
0.00140666
0.00123822
0.00107288
0.000909362
0.000746695
0.000584499
0.000422262
0.000258889
9.27172e-05
0.0040102
0.000584681
-0.00125542
-0.00163723
-0.00100865
0.00010446
0.00128072
0.00226182
0.00292824
0.00325677
0.00329968
0.00315106
0.00290797
0.0026455
0.00241085
0.00222778
0.00210205
0.00202318
0.00197139
0.00192716
0.00187747
0.00181264
0.00172558
0.00161751
0.00149332
0.00135648
0.00121208
0.00106505
0.000917835
0.000771848
0.000627697
0.000485077
0.000343553
0.000203018
6.41116e-05
0.00287191
-0.000583397
-0.00240035
-0.00271114
-0.00198443
-0.000771031
0.000489745
0.00153321
0.00224208
0.00259701
0.00265328
0.00250731
0.00226195
0.00200176
0.00178171
0.00162779
0.00154349
0.0015162
0.00152472
0.0015458
0.00155949
0.00155197
0.00151666
0.001453
0.00136419
0.00125608
0.00113548
0.001008
0.000877755
0.000747279
0.000617299
0.000487183
0.000355409
0.000219904
7.85335e-05
0.00370197
0.000116288
-0.00185072
-0.002321
-0.00174705
-0.00066547
0.000491571
0.00145919
0.00211678
0.00244003
0.00247778
0.00232024
0.00206478
0.00179194
0.00155547
0.0013825
0.00127923
0.00123634
0.00123529
0.0012547
0.00127518
0.00128268
0.00126884
0.00123002
0.00116724
0.00108456
0.000987065
0.000880074
0.000768007
0.000653694
0.000538562
0.000422811
0.000305751
0.000186318
6.356e-05
0.00336496
-0.000233931
-0.00221299
-0.00269415
-0.00212977
-0.0010562
9.45948e-05
0.00105784
0.00171294
0.00203543
0.00207379
0.00191787
0.00166477
0.00139496
0.00116221
0.000993973
0.000896857
0.000861926
0.000871
0.000902985
0.000938825
0.000964267
0.000970613
0.000954255
0.000915712
0.00085815
0.000786072
0.000704095
0.000616118
0.000524887
0.000432002
0.000338034
0.000242934
0.000146377
4.82262e-05
0.00336541
-0.000231752
-0.0022125
-0.00269831
-0.00214061
-0.00107489
6.75458e-05
0.0010223
0.00166895
0.00198319
0.00201363
0.00185019
0.00158998
0.00131348
0.00107454
0.00090071
0.000798714
0.000759716
0.000765684
0.000795736
0.000831017
0.000857384
0.000866297
0.000854263
0.000821727
0.000771775
0.00070873
0.000636928
0.000559969
0.000480279
0.000399057
0.000316424
0.000231693
0.000143673
5.10372e-05
0.00322894
-0.000370876
-0.00235456
-0.00284368
-0.00228971
-0.00122803
-8.98155e-05
0.000860699
0.00150322
0.00181352
0.00184025
0.00167339
0.00141011
0.00113095
0.000889819
0.000714333
0.000611277
0.000571925
0.000578344
0.000609741
0.000647335
0.000677092
0.000690546
0.000684238
0.00065866
0.000616904
0.000563261
0.000502045
0.000436836
0.000370082
0.000303098
0.000236258
0.000169346
0.000101925
3.37237e-05
0.00308534
-0.000513348
-0.00249593
-0.00298402
-0.00242911
-0.00136652
-0.000227347
0.00072426
0.00136805
0.0016798
0.00170816
0.00154307
0.00128171
0.0010046
0.00076566
0.000592504
0.000491962
0.000455355
0.000464794
0.00049953
0.000540843
0.000574773
0.00059291
0.000591865
0.000572203
0.000537064
0.000490759
0.000437602
0.000381133
0.000323709
0.000266492
0.000209602
0.000152436
9.40049e-05
3.3311e-05
0.00296648
-0.000630784
-0.00261234
-0.00309968
-0.00254413
-0.00148086
-0.000340941
0.000611494
0.00125617
0.00156885
0.00159818
0.0014341
0.00117376
0.00089772
0.000659919
0.00048802
0.000388891
0.000353887
0.000365162
0.000402022
0.000445787
0.000482514
0.000503806
0.000506282
0.000490506
0.000459635
0.000418021
0.000370033
0.000319274
0.000268192
0.000218056
0.000169146
0.000121085
7.32077e-05
2.49535e-05
0.00286193
-0.000734461
-0.00271529
-0.00320201
-0.00264587
-0.00158202
-0.000441448
0.000511725
0.00115723
0.00147083
0.00150114
0.00133813
0.00107893
0.00080411
0.000567621
0.00039715
0.000299587
0.00026631
0.000279501
0.00031849
0.000364621
0.000403976
0.000428194
0.000433937
0.000421812
0.000395021
0.000357959
0.000315036
0.000269893
0.000225012
0.000181677
0.000140165
0.000100062
6.06281e-05
2.11854e-05
0.00277566
-0.000820249
-0.00280051
-0.00328658
-0.00272974
-0.00166513
-0.000523762
0.000430264
0.00107669
0.00139128
0.00142265
0.00126076
0.00100276
0.000729218
0.000494099
0.000325098
0.000229118
0.00019756
0.000212619
0.000253643
0.000301993
0.000343774
0.00037064
0.000379277
0.000370309
0.000346956
0.000313624
0.000274733
0.000233931
0.000193702
0.000155335
0.000119106
8.46062e-05
5.10993e-05
1.79205e-05
0.00271409
-0.000881393
-0.0028612
-0.00334679
-0.00278944
-0.00172426
-0.000582276
0.000372417
0.00101956
0.00133492
0.00136711
0.00120609
0.000949011
0.000676441
0.000442353
0.000274452
0.000179652
0.000149361
0.000165786
0.000208286
0.000258235
0.000301743
0.000330478
0.000341134
0.000334348
0.000313346
0.000282551
0.000246392
0.000208531
0.000171468
0.000136505
0.000103938
7.33757e-05
4.41081e-05
1.55004e-05
0.00268137
-0.000913504
-0.00289285
-0.00337814
-0.00282059
-0.00175526
-0.000613116
0.000341762
0.000989136
0.00130479
0.00133735
0.00117676
0.000920168
0.000648138
0.000414633
0.000247354
0.000153213
0.00012362
0.000140782
0.000184064
0.00023485
0.00027926
0.000308968
0.00032068
0.000315039
0.000295283
0.00026584
0.000231146
0.000194872
0.000159521
0.000126405
9.58257e-05
6.73994e-05
4.04218e-05
1.42638e-05
0.0117912
0.0097768
0.009623
0.00927668
0.00951735
0.00924304
0.00915224
0.00915087
0.00920314
0.00914711
0.00952811
0.010009
0.0108465
0.0118051
0.0131229
0.0150151
0.016992
0.0198435
0.0233144
0.0273857
0.0117965
0.00976366
0.00962993
0.00926383
0.00952277
0.00920597
0.00916683
0.009113
0.00922914
0.0091043
0.0095624
0.00996034
0.0108755
0.0117446
0.0131389
0.0148766
0.016969
0.0195877
0.0226541
0.0258361
0.0117976
0.00974847
0.00963563
0.00924807
0.00952796
0.0091773
0.00917819
0.00907841
0.00925181
0.00906259
0.00958738
0.00991162
0.0108895
0.0116863
0.0131127
0.0147731
0.0168005
0.0191108
0.021677
0.0241632
0.0117934
0.00973273
0.0096395
0.00923203
0.00953327
0.00915077
0.00918363
0.00905068
0.00926113
0.00903846
0.00958236
0.00989434
0.0108587
0.011665
0.0130116
0.0146236
0.0164549
0.0184651
0.0205755
0.022632
0.0117857
0.00971711
0.00964297
0.00921709
0.00953658
0.00912883
0.00918272
0.00903398
0.00925449
0.00903447
0.00954787
0.00989982
0.0107777
0.0116225
0.012848
0.0143839
0.0160008
0.017698
0.0194578
0.0212311
0.0117759
0.00970309
0.00964576
0.00920525
0.00953511
0.00911531
0.00917125
0.00903121
0.00922924
0.0090473
0.00948941
0.00989654
0.0106746
0.0115193
0.0126261
0.0140366
0.0154667
0.0168821
0.0183559
0.0199118
0.0117642
0.00969235
0.00964597
0.00919893
0.00952484
0.0091124
0.009146
0.00904292
0.00918472
0.009068
0.00942422
0.00986756
0.0105582
0.0113476
0.0123099
0.0135484
0.0148361
0.0160534
0.017305
0.0186729
0.0117497
0.00968699
0.00964141
0.00919958
0.00950314
0.00912014
0.00910658
0.00906987
0.00913393
0.00907307
0.00936996
0.00981451
0.0104221
0.0111245
0.0119178
0.0129043
0.0139763
0.0151072
0.0163474
0.0175203
0.011731
0.0096894
0.00963071
0.00920753
0.00946814
0.00913503
0.00906115
0.00908051
0.00909875
0.00905722
0.00933015
0.00973893
0.010254
0.010843
0.0115015
0.012232
0.0130478
0.0139477
0.0149796
0.0163433
0.011706
0.00970287
0.0096124
0.00922351
0.00941898
0.00915418
0.00901879
0.00907763
0.0090829
0.00903374
0.00927825
0.00965676
0.0100575
0.010453
0.0108943
0.0114199
0.0120356
0.0127736
0.0137677
0.0152522
0.0116722
0.00973038
0.00958586
0.00924649
0.00935923
0.00916735
0.00899098
0.00906341
0.00906748
0.00900515
0.0091929
0.00946256
0.00972184
0.00997732
0.010255
0.0105994
0.0110382
0.0116633
0.0126509
0.0142428
0.011628
0.00977468
0.00955294
0.00926991
0.00930312
0.00916398
0.00898009
0.00904128
0.0090425
0.00892141
0.00900539
0.00921037
0.00937121
0.00948397
0.00959589
0.00977532
0.0100708
0.0106078
0.0115938
0.0132817
0.0115713
0.00983813
0.00951686
0.00928525
0.0092623
0.0091446
0.00896692
0.00900157
0.00895688
0.00879104
0.00880731
0.00893933
0.00899731
0.00896659
0.00892237
0.0089552
0.00913096
0.00958999
0.010572
0.0123503
0.0115009
0.00991973
0.00949063
0.00928492
0.00924022
0.00911555
0.00892659
0.0089104
0.00884607
0.00865226
0.00859377
0.00863887
0.00859325
0.00842888
0.00824056
0.00813618
0.00820446
0.00859768
0.00957943
0.0114472
0.0114174
0.0100056
0.00948353
0.00927593
0.00920995
0.00906978
0.00886063
0.00880564
0.00871908
0.00849507
0.00835688
0.00830761
0.00816213
0.00787617
0.00755143
0.00731425
0.00728282
0.00762503
0.00861769
0.0105776
0.0113208
0.0100897
0.00950644
0.00926293
0.00916596
0.00900507
0.00878
0.00868663
0.00856906
0.00831203
0.00809715
0.00795015
0.00770605
0.0073065
0.00685211
0.00649051
0.00636962
0.00667652
0.0076941
0.00975104
0.0112115
0.0101682
0.00955621
0.00925065
0.00910661
0.00892282
0.00868124
0.00854617
0.00839319
0.00810436
0.00781582
0.00756604
0.00722051
0.00671523
0.00614466
0.00567583
0.00548136
0.0057668
0.0068198
0.00897619
0.0110928
0.0102326
0.00962885
0.00924545
0.00903676
0.00882139
0.00855862
0.00838181
0.00819344
0.00787111
0.00750901
0.00715445
0.00670747
0.00610876
0.00544203
0.00488797
0.0046361
0.00490807
0.00599927
0.00825156
0.0109757
0.0102724
0.00970615
0.00925509
0.00896463
0.0087004
0.00841059
0.00819351
0.00796719
0.00761039
0.00717947
0.00672498
0.00617944
0.00549698
0.00475841
0.00413885
0.00384138
0.0041035
0.00523151
0.00757363
0.010867
0.0102952
0.00975944
0.00926568
0.00889186
0.00855641
0.00822617
0.00796809
0.00770729
0.00732057
0.00683081
0.00628555
0.00564771
0.00489199
0.00409537
0.00342438
0.00309127
0.00334846
0.00451325
0.00694041
0.0107626
0.0102661
0.00980218
0.00935625
0.00888633
0.00841683
0.00800363
0.00769964
0.00741255
0.00700231
0.00646213
0.00583483
0.00511198
0.00428882
0.00344338
0.00273464
0.00237781
0.0026372
0.00383964
0.00634665
0.0106812
0.0102451
0.00977973
0.00928211
0.00883827
0.00834533
0.00782227
0.00744798
0.00711665
0.00666979
0.00607865
0.00537905
0.00458155
0.00370042
0.0028178
0.00208509
0.00171538
0.00198139
0.00321923
0.00579772
0.0106426
0.010282
0.00974402
0.00916226
0.00863656
0.00813388
0.0076504
0.00724072
0.00684166
0.00633492
0.00568728
0.00492526
0.00406774
0.00314455
0.00223606
0.00148866
0.00111283
0.00138701
0.00265646
0.00529762
0.0105924
0.0102488
0.00967616
0.0090389
0.00846259
0.00795429
0.00747915
0.0070334
0.0065666
0.00599547
0.00529115
0.00447534
0.00356916
0.00261124
0.00168337
0.000927783
0.000552358
0.000838179
0.002138
0.00483555
0.010528
0.0102043
0.00961574
0.00893105
0.00830424
0.00776537
0.00727666
0.00679747
0.0062759
0.00564986
0.00489472
0.00402865
0.0030808
0.0020948
0.00115347
0.000395626
2.66079e-05
0.000328084
0.00165807
0.00440684
0.0104612
0.0101464
0.00953157
0.00880762
0.00813615
0.0075612
0.00704555
0.00653584
0.00597174
0.00530128
0.00450354
0.00359476
0.0026134
0.00160703
0.000658608
-9.62801e-05
-0.000454865
-0.000135445
0.00122355
0.00401803
0.0103862
0.0100696
0.00942737
0.00866752
0.00795749
0.00734815
0.00680492
0.00626608
0.00566504
0.00495637
0.00412362
0.0031837
0.00217717
0.00115626
0.000204877
-0.000543881
-0.000889877
-0.000551747
0.00083448
0.00366947
0.0102962
0.00997372
0.00930432
0.00851225
0.00776894
0.0071299
0.00656127
0.00599608
0.00536362
0.00462265
0.00376258
0.00279873
0.0017721
0.000738982
-0.000214652
-0.000956312
-0.00128787
-0.000929498
0.000483588
0.00335581
0.0101873
0.00985445
0.00916358
0.00834168
0.00757036
0.00690796
0.00631877
0.00573264
0.00507663
0.00430981
0.003427
0.00244431
0.00140169
0.000357637
-0.000600408
-0.00133888
-0.00165689
-0.00127633
0.000164236
0.00307166
0.0100576
0.00971761
0.0090009
0.00815399
0.00736157
0.00668396
0.0060821
0.00548228
0.00481203
0.00402874
0.00312868
0.00213238
0.00107841
2.60967e-05
-0.00093602
-0.0016731
-0.00198603
-0.00159329
-0.000129197
0.00280699
0.00968928
0.00933164
0.00856819
0.00767471
0.006851
0.00615822
0.00554913
0.0049409
0.00426203
0.00346853
0.00255586
0.00154663
0.00048073
-0.000581811
-0.00155277
-0.0022993
-0.00262338
-0.00223875
-0.000767765
0.0022118
0.00872006
0.00838281
0.00767248
0.00685236
0.00611686
0.00552188
0.00501685
0.00452025
0.00396829
0.00332184
0.00256502
0.0017045
0.000767027
-0.000196543
-0.00110198
-0.00181599
-0.0021361
-0.00177095
-0.000336829
0.00259536
0.00773191
0.00756335
0.00706519
0.00649069
0.00599614
0.00559292
0.00519849
0.00472308
0.00410699
0.00333102
0.00240611
0.00136279
0.000245769
-0.000883113
-0.00193555
-0.00278132
-0.00321951
-0.00295767
-0.00161022
0.00125159
0.0041188
0.00425242
0.00468994
0.00518743
0.00559162
0.00589094
0.00616797
0.00651439
0.00698806
0.00761035
0.00837411
0.00925293
0.0102052
0.0111707
0.0120619
0.0127482
0.0130296
0.0126146
0.0111159
0.00810057
0.00328881
0.00359667
0.00425215
0.00500342
0.00565587
0.00614435
0.00651151
0.00684055
0.00721126
0.0076779
0.00826423
0.00896703
0.00975936
0.0105885
0.0113676
0.0119604
0.0121602
0.0116704
0.0101029
0.00702504
0.00229514
0.00268561
0.00349398
0.00444104
0.00531427
0.00603317
0.00663019
0.00718665
0.00777844
0.00844931
0.00921128
0.0100515
0.0109374
0.0118148
0.0125996
0.0131619
0.0133046
0.0127424
0.011098
0.00794702
0.00186737
0.00230563
0.00318113
0.00421025
0.00517002
0.00596593
0.00661837
0.00720147
0.00779024
0.00843557
0.00915877
0.00995497
0.0107968
0.0116335
0.0123825
0.0129143
0.0130314
0.0124484
0.0107872
0.00762306
0.00151355
0.00196836
0.0028703
0.00393207
0.00492753
0.00575882
0.0064437
0.00705547
0.00766934
0.00833617
0.00907739
0.00988875
0.0107438
0.011592
0.0123506
0.0128901
0.0130132
0.012435
0.0107782
0.00761881
0.00125951
0.00172388
0.00264121
0.00372229
0.00473889
0.00559097
0.00629464
0.0069221
0.00754814
0.00822365
0.00897029
0.00978402
0.0106385
0.0114836
0.0122377
0.0127719
0.01289
0.0123073
0.0106468
0.00748478
0.00105881
0.00152733
0.00245116
0.00354028
0.00456551
0.0054257
0.00613592
0.00676812
0.00739728
0.00807465
0.00882228
0.0096365
0.0104912
0.0113366
0.012091
0.0126256
0.012744
0.0121617
0.0105017
0.00734026
0.000892694
0.00136313
0.00229008
0.00338303
0.00441239
0.00527671
0.00599084
0.00662641
0.00725833
0.00793789
0.0086873
0.00950302
0.0103592
0.0112061
0.0119622
0.0124985
0.0126186
0.012038
0.0103796
0.00721975
0.000757036
0.00122854
0.00215727
0.00325239
0.0042841
0.00515078
0.00586724
0.00650514
0.00713933
0.00782107
0.0085725
0.00939005
0.0102478
0.011096
0.0118531
0.0123902
0.012511
0.0119311
0.0102734
0.00711432
0.000651442
0.00112371
0.00205372
0.00315039
0.00418376
0.0050521
0.00577016
0.00640958
0.00704519
0.00772821
0.00848079
0.00929935
0.010158
0.0110069
0.0117646
0.0123023
0.0124235
0.011844
0.0101866
0.00702773
0.000576766
0.00104951
0.00198032
0.00307797
0.00411236
0.00498171
0.00570075
0.0063411
0.00697757
0.0076614
0.00841472
0.00923395
0.0100932
0.0109427
0.0117008
0.0122389
0.0123606
0.0117814
0.0101243
0.0069658
0.000536525
0.00100937
0.00194033
0.0030382
0.00407295
0.00494276
0.00566231
0.00630318
0.00694014
0.00762443
0.00837816
0.00919776
0.0100573
0.0109071
0.0116656
0.012204
0.012326
0.0117471
0.0100904
0.00693243
)
;

boundaryField
{
    top
    {
        type            zeroGradient;
    }
    inlet
    {
        type            zeroGradient;
    }
    outlet
    {
        type            fixedValue;
        value           uniform 0;
    }
    plate
    {
        type            zeroGradient;
    }
    symmBound
    {
        type            zeroGradient;
    }
    frontAndBack
    {
        type            empty;
    }
}


// ************************************************************************* //
