/*--------------------------------*- C++ -*----------------------------------*\
| =========                 |                                                 |
| \\      /  F ield         | OpenFOAM: The Open Source CFD Toolbox           |
|  \\    /   O peration     | Version:  5.x                                   |
|   \\  /    A nd           | Web:      www.OpenFOAM.org                      |
|    \\/     M anipulation  |                                                 |
\*---------------------------------------------------------------------------*/
FoamFile
{
    version     2.0;
    format      ascii;
    class       volVectorField;
    location    "0.9";
    object      U;
}
// * * * * * * * * * * * * * * * * * * * * * * * * * * * * * * * * * * * * * //

dimensions      [0 1 -1 0 0 0 0];

internalField   nonuniform List<vector> 
2475
(
(0.912669 0.0113336 0)
(0.814748 0.0147663 0)
(0.713897 0.0143802 0)
(0.609022 0.0130275 0)
(0.502952 0.0114336 0)
(0.401542 0.00908718 0)
(0.316466 0.00555464 0)
(0.259234 0.0018283 0)
(0.22631 -0.000129157 0)
(0.206133 -0.00051231 0)
(0.19234 -0.000399061 0)
(0.18211 -0.000223048 0)
(0.173388 -5.54872e-05 0)
(0.165448 6.42164e-05 0)
(0.157781 0.000124474 0)
(0.150641 0.000142549 0)
(0.143815 0.000137531 0)
(0.137696 0.000125019 0)
(0.131862 0.000109936 0)
(0.126734 9.75928e-05 0)
(0.121684 8.6328e-05 0)
(0.117322 7.7189e-05 0)
(0.112827 6.82897e-05 0)
(0.109067 6.26102e-05 0)
(0.104943 5.56052e-05 0)
(0.101701 5.08727e-05 0)
(0.0978378 4.5207e-05 0)
(0.0950929 4.18413e-05 0)
(0.0913703 3.67543e-05 0)
(0.0891439 3.45465e-05 0)
(0.0854058 3.04735e-05 0)
(0.0837549 2.91668e-05 0)
(0.0797731 2.57656e-05 0)
(0.0788716 2.47439e-05 0)
(0.0742598 2.47391e-05 0)
(0.967954 0.0194875 0)
(0.960118 0.0271285 0)
(0.945237 0.0284118 0)
(0.920573 0.0278525 0)
(0.885044 0.026858 0)
(0.839674 0.0247999 0)
(0.788067 0.0207103 0)
(0.737085 0.0147707 0)
(0.690943 0.0093941 0)
(0.648875 0.00605108 0)
(0.609802 0.00415893 0)
(0.574483 0.0030977 0)
(0.542285 0.00247154 0)
(0.513664 0.00206736 0)
(0.487608 0.001768 0)
(0.464564 0.0015311 0)
(0.443174 0.00132433 0)
(0.424296 0.00115235 0)
(0.40632 0.00100131 0)
(0.390545 0.000882603 0)
(0.374939 0.000776912 0)
(0.361485 0.000693672 0)
(0.34755 0.000614587 0)
(0.335946 0.000557589 0)
(0.323203 0.000495344 0)
(0.313244 0.000451962 0)
(0.301327 0.000401036 0)
(0.292922 0.000370056 0)
(0.281448 0.000325962 0)
(0.274634 0.000305972 0)
(0.263133 0.000267827 0)
(0.25811 0.000257598 0)
(0.245919 0.000222231 0)
(0.243185 0.000220444 0)
(0.229267 0.000198886 0)
(0.972162 0.0185269 0)
(0.972583 0.0263099 0)
(0.974679 0.029127 0)
(0.975665 0.0296941 0)
(0.973056 0.0296365 0)
(0.965919 0.0287075 0)
(0.953258 0.0257529 0)
(0.936283 0.0207082 0)
(0.916208 0.0155173 0)
(0.894455 0.0120434 0)
(0.870492 0.0100092 0)
(0.846176 0.00872988 0)
(0.820671 0.00771939 0)
(0.79564 0.00680909 0)
(0.769738 0.00595128 0)
(0.744924 0.00519071 0)
(0.719367 0.00450365 0)
(0.695629 0.00391971 0)
(0.671267 0.00340581 0)
(0.649386 0.00299589 0)
(0.626511 0.00263086 0)
(0.606691 0.00234145 0)
(0.585231 0.0020696 0)
(0.567482 0.0018653 0)
(0.547245 0.00165278 0)
(0.531684 0.00150335 0)
(0.512382 0.00133279 0)
(0.499078 0.0012275 0)
(0.480211 0.00108206 0)
(0.469303 0.0010142 0)
(0.450204 0.000886096 0)
(0.442117 0.000852338 0)
(0.421821 0.000731084 0)
(0.417366 0.000728753 0)
(0.394377 0.000636581 0)
(0.977023 0.0175304 0)
(0.97708 0.024214 0)
(0.979701 0.0276649 0)
(0.98417 0.0286852 0)
(0.98812 0.0287221 0)
(0.991548 0.027998 0)
(0.992497 0.025706 0)
(0.991477 0.02168 0)
(0.98675 0.0171635 0)
(0.980362 0.0139427 0)
(0.970965 0.0121701 0)
(0.961445 0.0111636 0)
(0.949622 0.0103557 0)
(0.93825 0.00957926 0)
(0.924217 0.00877697 0)
(0.9108 0.00803764 0)
(0.894265 0.00731148 0)
(0.878933 0.00665584 0)
(0.860341 0.00601157 0)
(0.843933 0.00547133 0)
(0.823929 0.00494327 0)
(0.807142 0.00451142 0)
(0.786051 0.00407219 0)
(0.769274 0.00373107 0)
(0.74722 0.00334713 0)
(0.731131 0.00307152 0)
(0.708466 0.0027424 0)
(0.693929 0.00254084 0)
(0.670632 0.0022533 0)
(0.658215 0.00211963 0)
(0.63375 0.00185804 0)
(0.62428 0.00179012 0)
(0.597792 0.00153903 0)
(0.592448 0.00153399 0)
(0.562368 0.00132525 0)
(0.981595 0.0171383 0)
(0.981601 0.0226903 0)
(0.983351 0.0263984 0)
(0.987853 0.0277656 0)
(0.992091 0.0277474 0)
(0.997248 0.0268768 0)
(1.00045 0.0248137 0)
(1.00367 0.0214415 0)
(1.00348 0.017474 0)
(1.00305 0.0144238 0)
(0.999397 0.0127097 0)
(0.997108 0.0118317 0)
(0.992232 0.0111768 0)
(0.989474 0.0105617 0)
(0.983494 0.00988319 0)
(0.979683 0.00927828 0)
(0.971691 0.00865807 0)
(0.966254 0.00811392 0)
(0.955929 0.00752912 0)
(0.949026 0.00705124 0)
(0.936501 0.0065332 0)
(0.928479 0.0061277 0)
(0.913768 0.00567359 0)
(0.904688 0.0053498 0)
(0.887396 0.00492028 0)
(0.877358 0.00462672 0)
(0.857479 0.0042054 0)
(0.847447 0.00396715 0)
(0.825334 0.0035717 0)
(0.816153 0.00341159 0)
(0.79132 0.00302709 0)
(0.783833 0.00294294 0)
(0.755788 0.00255729 0)
(0.751422 0.00255639 0)
(0.719073 0.00221808 0)
(0.985481 0.0170189 0)
(0.985695 0.0215693 0)
(0.986658 0.0251809 0)
(0.990991 0.0268146 0)
(0.994673 0.0268529 0)
(1.00017 0.0258963 0)
(1.00316 0.0239633 0)
(1.0073 0.0210746 0)
(1.0077 0.0175674 0)
(1.00914 0.0146491 0)
(1.00674 0.012875 0)
(1.00693 0.0119937 0)
(1.00387 0.0113849 0)
(1.00449 0.0108565 0)
(1.00125 0.0102304 0)
(1.00196 0.00969621 0)
(0.997732 0.00912796 0)
(0.997922 0.00866875 0)
(0.992239 0.0081381 0)
(0.991834 0.00773911 0)
(0.984596 0.00725786 0)
(0.983729 0.00691958 0)
(0.974807 0.0064977 0)
(0.973403 0.0062586 0)
(0.962191 0.00586829 0)
(0.959778 0.00565608 0)
(0.945621 0.0052351 0)
(0.942498 0.00503814 0)
(0.925637 0.00460646 0)
(0.922605 0.00449058 0)
(0.902551 0.00405784 0)
(0.899664 0.00400669 0)
(0.875906 0.0035454 0)
(0.874197 0.0035695 0)
(0.846317 0.00315523 0)
(0.988477 0.0170796 0)
(0.988935 0.0207467 0)
(0.989278 0.0239148 0)
(0.993433 0.0256418 0)
(0.996504 0.0257984 0)
(1.00214 0.0248874 0)
(1.00473 0.0230718 0)
(1.00917 0.0205738 0)
(1.00943 0.0174993 0)
(1.01161 0.0147609 0)
(1.00937 0.0129293 0)
(1.01039 0.0120088 0)
(1.0075 0.0114072 0)
(1.00913 0.0109354 0)
(1.00639 0.010332 0)
(1.00859 0.00982619 0)
(1.00543 0.00926263 0)
(1.0077 0.00883914 0)
(1.00376 0.00832388 0)
(1.00607 0.00796816 0)
(1.00126 0.00749988 0)
(1.00371 0.00720163 0)
(0.99799 0.00679291 0)
(1.00056 0.00661396 0)
(0.99356 0.00626452 0)
(0.995737 0.00613774 0)
(0.986707 0.00575568 0)
(0.988281 0.00561808 0)
(0.977233 0.0051878 0)
(0.978825 0.00512797 0)
(0.965651 0.00471724 0)
(0.966605 0.00472143 0)
(0.950544 0.00426504 0)
(0.951169 0.00431715 0)
(0.932323 0.00391745 0)
(0.990613 0.0174675 0)
(0.991168 0.0202956 0)
(0.991142 0.02284 0)
(0.995009 0.0244614 0)
(0.997624 0.0247184 0)
(1.00313 0.0239301 0)
(1.00553 0.0222423 0)
(1.00998 0.0200362 0)
(1.01026 0.017353 0)
(1.01267 0.0148423 0)
(1.0107 0.0129877 0)
(1.01192 0.0120097 0)
(1.00921 0.0113879 0)
(1.01088 0.0109479 0)
(1.00844 0.0103626 0)
(1.01075 0.00986981 0)
(1.00816 0.00929807 0)
(1.01069 0.00888189 0)
(1.00768 0.00836519 0)
(1.01039 0.0080255 0)
(1.00693 0.00755991 0)
(1.00988 0.0072735 0)
(1.00601 0.00686523 0)
(1.00924 0.00670551 0)
(1.00488 0.00638095 0)
(1.00806 0.00629838 0)
(1.00272 0.00595668 0)
(1.00557 0.00585467 0)
(0.999147 0.00543758 0)
(1.00202 0.00539275 0)
(0.994886 0.00503282 0)
(0.99707 0.00507205 0)
(0.988334 0.00466843 0)
(0.989696 0.00472362 0)
(0.979717 0.00439429 0)
(0.992042 0.0178043 0)
(0.992442 0.019939 0)
(0.992354 0.0218824 0)
(0.995762 0.0232979 0)
(0.99817 0.0236271 0)
(1.00324 0.0230077 0)
(1.0057 0.0215042 0)
(1.00985 0.0195428 0)
(1.01044 0.0172031 0)
(1.01269 0.014936 0)
(1.0113 0.0130952 0)
(1.01231 0.0120482 0)
(1.01013 0.0113886 0)
(1.01136 0.0109614 0)
(1.0095 0.0104021 0)
(1.01131 0.0099205 0)
(1.00951 0.00934297 0)
(1.0115 0.00891655 0)
(1.00949 0.0083927 0)
(1.01158 0.00805004 0)
(1.00935 0.00758734 0)
(1.01155 0.00729511 0)
(1.00916 0.00688879 0)
(1.0115 0.00672165 0)
(1.00902 0.00641265 0)
(1.01136 0.00633847 0)
(1.00854 0.00602608 0)
(1.01072 0.00593278 0)
(1.00747 0.00553341 0)
(1.00958 0.00546505 0)
(1.0064 0.00515196 0)
(1.00807 0.0051985 0)
(1.00419 0.00485374 0)
(1.00521 0.0048868 0)
(1.00102 0.00463005 0)
(0.993192 0.0175132 0)
(0.993209 0.0192403 0)
(0.993261 0.0207364 0)
(0.996099 0.021932 0)
(0.998493 0.0223155 0)
(1.00292 0.0218909 0)
(1.00557 0.0206389 0)
(1.00923 0.0189175 0)
(1.01026 0.0168778 0)
(1.01214 0.014858 0)
(1.01144 0.0130924 0)
(1.01208 0.0120026 0)
(1.01059 0.0113139 0)
(1.01123 0.0108954 0)
(1.01005 0.0103722 0)
(1.01119 0.00991044 0)
(1.01021 0.00933941 0)
(1.01149 0.00890205 0)
(1.01043 0.00837594 0)
(1.01172 0.00802726 0)
(1.01056 0.00757711 0)
(1.01182 0.0072803 0)
(1.01062 0.0068866 0)
(1.01188 0.00670836 0)
(1.01071 0.00641235 0)
(1.01196 0.00633382 0)
(1.01073 0.00604064 0)
(1.01193 0.00594482 0)
(1.01055 0.00556749 0)
(1.0116 0.00546648 0)
(1.01046 0.00518687 0)
(1.01132 0.0052271 0)
(1.00988 0.0049289 0)
(1.01039 0.00493147 0)
(1.00896 0.00472714 0)
(0.994218 0.0170234 0)
(0.993775 0.0185328 0)
(0.993985 0.019729 0)
(0.996286 0.0207088 0)
(0.99872 0.0210992 0)
(1.00251 0.0208286 0)
(1.00531 0.0198203 0)
(1.00848 0.0183212 0)
(1.0099 0.0165284 0)
(1.01142 0.0147447 0)
(1.01132 0.0130983 0)
(1.01165 0.0119862 0)
(1.01076 0.0112637 0)
(1.01092 0.0108351 0)
(1.01029 0.0103372 0)
(1.01088 0.00989513 0)
(1.01052 0.00933579 0)
(1.01124 0.00888907 0)
(1.01086 0.00835973 0)
(1.01155 0.00800098 0)
(1.01111 0.00756271 0)
(1.01172 0.00726189 0)
(1.01125 0.00688151 0)
(1.01181 0.00669389 0)
(1.01139 0.00640576 0)
(1.01195 0.00631984 0)
(1.01154 0.00603726 0)
(1.01212 0.00593468 0)
(1.01166 0.0055794 0)
(1.01209 0.00545215 0)
(1.01177 0.00519528 0)
(1.01214 0.00522375 0)
(1.01169 0.00495949 0)
(1.01192 0.0049344 0)
(1.01149 0.00476489 0)
(0.995162 0.0164522 0)
(0.994309 0.0178126 0)
(0.994571 0.0188111 0)
(0.996459 0.0196094 0)
(0.998876 0.0199674 0)
(1.00215 0.0197946 0)
(1.00498 0.0189974 0)
(1.00777 0.0177305 0)
(1.00944 0.0161622 0)
(1.01074 0.0146015 0)
(1.01103 0.013099 0)
(1.01123 0.011984 0)
(1.01074 0.0112249 0)
(1.01065 0.0107742 0)
(1.01033 0.0102897 0)
(1.01061 0.00986745 0)
(1.01057 0.0093267 0)
(1.01099 0.0088784 0)
(1.01098 0.00834697 0)
(1.01136 0.00797674 0)
(1.01129 0.00754705 0)
(1.01157 0.00724399 0)
(1.01145 0.0068757 0)
(1.01169 0.00668207 0)
(1.0116 0.00639884 0)
(1.01186 0.00630411 0)
(1.01179 0.0060284 0)
(1.01209 0.00591714 0)
(1.01201 0.005583 0)
(1.01219 0.00543755 0)
(1.01213 0.00519848 0)
(1.01231 0.00521121 0)
(1.01221 0.00497374 0)
(1.01232 0.00492683 0)
(1.01221 0.0047823 0)
(0.996022 0.0158602 0)
(0.994848 0.0170856 0)
(0.995043 0.0179521 0)
(0.996642 0.0186003 0)
(0.998965 0.0189025 0)
(1.00188 0.0187862 0)
(1.00463 0.0181599 0)
(1.00716 0.0171261 0)
(1.00892 0.0157699 0)
(1.01012 0.0144038 0)
(1.01062 0.0130524 0)
(1.01083 0.0119628 0)
(1.01058 0.0111721 0)
(1.01042 0.0106983 0)
(1.01024 0.0102202 0)
(1.01039 0.00981685 0)
(1.0105 0.00930173 0)
(1.01079 0.00885972 0)
(1.01094 0.00832837 0)
(1.0112 0.00794555 0)
(1.01128 0.00752178 0)
(1.01145 0.00721801 0)
(1.01146 0.00686275 0)
(1.01159 0.00666594 0)
(1.01162 0.006389 0)
(1.01177 0.00628379 0)
(1.01184 0.00601531 0)
(1.01203 0.0058933 0)
(1.01208 0.00557986 0)
(1.01219 0.00542169 0)
(1.0122 0.00520011 0)
(1.01231 0.00519422 0)
(1.01233 0.00498022 0)
(1.01241 0.00491664 0)
(1.01238 0.00479233 0)
(0.996806 0.015261 0)
(0.995384 0.0163566 0)
(0.995431 0.0171241 0)
(0.996811 0.0176533 0)
(0.998997 0.0178952 0)
(1.00166 0.0178168 0)
(1.00427 0.0173206 0)
(1.00661 0.0164948 0)
(1.00837 0.0153435 0)
(1.00955 0.0141471 0)
(1.01016 0.012946 0)
(1.01043 0.0119149 0)
(1.01034 0.0111046 0)
(1.0102 0.01061 0)
(1.01009 0.0101358 0)
(1.0102 0.00974568 0)
(1.01036 0.00925815 0)
(1.01061 0.00882959 0)
(1.01082 0.00830646 0)
(1.01105 0.00791378 0)
(1.01119 0.00749602 0)
(1.01133 0.00718977 0)
(1.0114 0.00684612 0)
(1.0115 0.00664456 0)
(1.01157 0.00637598 0)
(1.01169 0.00625911 0)
(1.0118 0.00600104 0)
(1.01195 0.00586767 0)
(1.01206 0.00557444 0)
(1.01214 0.0054053 0)
(1.01217 0.00520083 0)
(1.01226 0.0051755 0)
(1.01233 0.00498297 0)
(1.01239 0.00490674 0)
(1.01239 0.00479935 0)
(0.997519 0.0146487 0)
(0.995889 0.0156106 0)
(0.995753 0.016287 0)
(0.996946 0.0167268 0)
(0.998988 0.0169149 0)
(1.00145 0.0168625 0)
(1.00392 0.0164687 0)
(1.00612 0.0158154 0)
(1.00782 0.0148681 0)
(1.00899 0.0138345 0)
(1.00967 0.0127806 0)
(1.01 0.0118383 0)
(1.01004 0.0110308 0)
(1.00995 0.0105157 0)
(1.00989 0.0100435 0)
(1.00999 0.00965455 0)
(1.01018 0.00919035 0)
(1.01041 0.00878008 0)
(1.01065 0.008275 0)
(1.01088 0.00787535 0)
(1.01106 0.00746493 0)
(1.0112 0.00715553 0)
(1.01129 0.00682454 0)
(1.01139 0.00661834 0)
(1.01147 0.006361 0)
(1.01159 0.00623086 0)
(1.01172 0.00598393 0)
(1.01186 0.00583825 0)
(1.01198 0.00556534 0)
(1.01206 0.00538778 0)
(1.01211 0.00519998 0)
(1.01219 0.0051557 0)
(1.01228 0.00498228 0)
(1.01233 0.00489686 0)
(1.01235 0.004804 0)
(0.998164 0.0140368 0)
(0.996347 0.0148625 0)
(0.996024 0.0154538 0)
(0.997044 0.0158299 0)
(0.998947 0.0159809 0)
(1.00126 0.015947 0)
(1.00359 0.0156409 0)
(1.00566 0.0151232 0)
(1.0073 0.0143639 0)
(1.00845 0.0134871 0)
(1.00917 0.0125658 0)
(1.00956 0.0117242 0)
(1.00969 0.0109437 0)
(1.00967 0.0104055 0)
(1.00965 0.00993661 0)
(1.00976 0.00954609 0)
(1.00996 0.00910531 0)
(1.01019 0.00871849 0)
(1.01045 0.00824056 0)
(1.01069 0.00783691 0)
(1.0109 0.00743324 0)
(1.01104 0.00711834 0)
(1.01115 0.00679816 0)
(1.01126 0.00658546 0)
(1.01135 0.00634014 0)
(1.01147 0.00619795 0)
(1.01161 0.00596377 0)
(1.01174 0.00580746 0)
(1.01188 0.00555321 0)
(1.01196 0.00536863 0)
(1.01202 0.00519505 0)
(1.01209 0.00513469 0)
(1.0122 0.00497748 0)
(1.01224 0.00488653 0)
(1.01228 0.00480513 0)
(0.998738 0.0133925 0)
(0.996751 0.0140944 0)
(0.996257 0.0146138 0)
(0.997114 0.01495 0)
(0.998888 0.0150892 0)
(1.00107 0.0150747 0)
(1.00328 0.0148466 0)
(1.00525 0.0144385 0)
(1.00681 0.013839 0)
(1.00793 0.013116 0)
(1.00868 0.0123188 0)
(1.0091 0.0115765 0)
(1.00931 0.0108477 0)
(1.00936 0.0102928 0)
(1.00939 0.00982941 0)
(1.00951 0.00943952 0)
(1.00973 0.00901458 0)
(1.00995 0.00864578 0)
(1.01022 0.00819809 0)
(1.01047 0.00779625 0)
(1.01071 0.00740328 0)
(1.01086 0.00708617 0)
(1.01099 0.0067772 0)
(1.0111 0.00655839 0)
(1.01121 0.00632341 0)
(1.01132 0.00616943 0)
(1.01148 0.00594636 0)
(1.01161 0.00578109 0)
(1.01175 0.00554394 0)
(1.01183 0.00535591 0)
(1.0119 0.00519325 0)
(1.01198 0.00511919 0)
(1.0121 0.00497462 0)
(1.01213 0.00488126 0)
(1.01219 0.00480849 0)
(0.999255 0.0127248 0)
(0.997111 0.0133272 0)
(0.996468 0.0137841 0)
(0.997176 0.0140917 0)
(0.998827 0.0142269 0)
(1.00089 0.0142252 0)
(1.003 0.0140543 0)
(1.00487 0.0137321 0)
(1.00636 0.0132575 0)
(1.00744 0.0126769 0)
(1.00819 0.0119989 0)
(1.00864 0.0113441 0)
(1.0089 0.010689 0)
(1.00902 0.0101398 0)
(1.0091 0.0096839 0)
(1.00923 0.00929993 0)
(1.00947 0.00888642 0)
(1.00969 0.00853135 0)
(1.00997 0.00811927 0)
(1.01023 0.0077273 0)
(1.01049 0.00734936 0)
(1.01065 0.00703142 0)
(1.01081 0.00673147 0)
(1.01092 0.00650647 0)
(1.01105 0.00628294 0)
(1.01116 0.00612053 0)
(1.01133 0.00591014 0)
(1.01145 0.00573894 0)
(1.01161 0.00551816 0)
(1.01168 0.00532874 0)
(1.01177 0.00517673 0)
(1.01184 0.00509168 0)
(1.01197 0.00495963 0)
(1.01201 0.00486527 0)
(1.01208 0.0048022 0)
(0.999735 0.0121179 0)
(0.99744 0.0126392 0)
(0.996662 0.0130335 0)
(0.997233 0.0133102 0)
(0.998763 0.0134382 0)
(1.00072 0.0134478 0)
(1.00273 0.0133227 0)
(1.00452 0.0130744 0)
(1.00595 0.0127024 0)
(1.00699 0.012244 0)
(1.00773 0.0116825 0)
(1.0082 0.0111068 0)
(1.00849 0.0105335 0)
(1.00866 0.0100101 0)
(1.00879 0.00955551 0)
(1.00894 0.00917666 0)
(1.0092 0.00877221 0)
(1.00943 0.00842494 0)
(1.00971 0.00804806 0)
(1.00998 0.00767035 0)
(1.01026 0.00730685 0)
(1.01043 0.00699129 0)
(1.01061 0.00669874 0)
(1.01074 0.00646868 0)
(1.01088 0.00625302 0)
(1.01099 0.00608394 0)
(1.01117 0.0058822 0)
(1.01128 0.00570764 0)
(1.01145 0.00549944 0)
(1.01152 0.0053118 0)
(1.01163 0.00516517 0)
(1.0117 0.00507273 0)
(1.01184 0.00494831 0)
(1.01187 0.00485631 0)
(1.01197 0.00479774 0)
(1.00018 0.011476 0)
(0.997744 0.0119315 0)
(0.996843 0.0122695 0)
(0.997293 0.0125161 0)
(0.998716 0.0126432 0)
(1.00058 0.0126721 0)
(1.00251 0.0125929 0)
(1.00422 0.0124113 0)
(1.0056 0.0121279 0)
(1.00659 0.0117674 0)
(1.0073 0.0113178 0)
(1.00777 0.0108219 0)
(1.00809 0.0103233 0)
(1.00829 0.00984335 0)
(1.00847 0.00939693 0)
(1.00864 0.00902866 0)
(1.00892 0.00864155 0)
(1.00916 0.00830134 0)
(1.00945 0.0079571 0)
(1.00973 0.00759907 0)
(1.01003 0.00725128 0)
(1.01022 0.00694517 0)
(1.01041 0.00666234 0)
(1.01055 0.00643007 0)
(1.01071 0.00621938 0)
(1.01082 0.00604657 0)
(1.01101 0.00585232 0)
(1.01112 0.00567846 0)
(1.01129 0.00548087 0)
(1.01137 0.00529855 0)
(1.01149 0.00515599 0)
(1.01155 0.00505893 0)
(1.01171 0.00493988 0)
(1.01174 0.00485185 0)
(1.01185 0.00479689 0)
(1.00061 0.0107922 0)
(0.998029 0.0111891 0)
(0.997011 0.0114839 0)
(0.997356 0.0117027 0)
(0.998684 0.0118342 0)
(1.00046 0.0118798 0)
(1.00231 0.0118414 0)
(1.00395 0.0117118 0)
(1.00528 0.0115005 0)
(1.00623 0.0112171 0)
(1.00691 0.0108673 0)
(1.00738 0.0104541 0)
(1.00771 0.0100218 0)
(1.00793 0.00959903 0)
(1.00815 0.00918016 0)
(1.00835 0.00882792 0)
(1.00864 0.00846574 0)
(1.0089 0.00813018 0)
(1.0092 0.00781219 0)
(1.00947 0.00747725 0)
(1.0098 0.00714853 0)
(1.00999 0.00685467 0)
(1.01021 0.00658375 0)
(1.01036 0.00635086 0)
(1.01054 0.00614767 0)
(1.01065 0.0059741 0)
(1.01085 0.0057902 0)
(1.01095 0.00561841 0)
(1.01114 0.00543316 0)
(1.01121 0.00525505 0)
(1.01135 0.00511933 0)
(1.01141 0.00501844 0)
(1.01158 0.00490922 0)
(1.0116 0.00482263 0)
(1.01173 0.00477608 0)
(1.00101 0.0102152 0)
(0.998308 0.0105579 0)
(0.997186 0.0108214 0)
(0.997443 0.0110155 0)
(0.998689 0.0111486 0)
(1.00039 0.0112042 0)
(1.00217 0.011196 0)
(1.00374 0.0111066 0)
(1.00503 0.0109507 0)
(1.00593 0.0107319 0)
(1.00659 0.0104599 0)
(1.00702 0.0101268 0)
(1.00737 0.00975315 0)
(1.0076 0.00938491 0)
(1.00784 0.00900224 0)
(1.00806 0.0086625 0)
(1.00837 0.00832049 0)
(1.00865 0.00798937 0)
(1.00896 0.00768982 0)
(1.00923 0.00738194 0)
(1.00957 0.00707331 0)
(1.00978 0.00679519 0)
(1.01002 0.00653618 0)
(1.01018 0.0063051 0)
(1.01038 0.00610533 0)
(1.01049 0.00593079 0)
(1.01069 0.00575059 0)
(1.0108 0.00558221 0)
(1.01099 0.00540587 0)
(1.01106 0.005236 0)
(1.01122 0.00510283 0)
(1.01128 0.00500025 0)
(1.01146 0.00489403 0)
(1.01148 0.00481238 0)
(1.01163 0.00476734 0)
(1.00143 0.00964845 0)
(0.998622 0.00994437 0)
(0.997403 0.0101804 0)
(0.997578 0.0103514 0)
(0.99875 0.0104763 0)
(1.00037 0.0105366 0)
(1.0021 0.0105455 0)
(1.00361 0.0104896 0)
(1.00484 0.0103762 0)
(1.00571 0.0102141 0)
(1.00633 0.0100023 0)
(1.00674 0.00974345 0)
(1.00708 0.00942892 0)
(1.00731 0.00911237 0)
(1.00758 0.0087774 0)
(1.00781 0.00845993 0)
(1.00814 0.00814575 0)
(1.00843 0.00783338 0)
(1.00877 0.00755236 0)
(1.00904 0.0072705 0)
(1.0094 0.00697742 0)
(1.00962 0.00671344 0)
(1.00987 0.00646711 0)
(1.01004 0.00624163 0)
(1.01026 0.006046 0)
(1.01037 0.00587701 0)
(1.01059 0.00570394 0)
(1.01069 0.00554283 0)
(1.01089 0.00537293 0)
(1.01096 0.00520971 0)
(1.01114 0.00507829 0)
(1.01119 0.00497919 0)
(1.01138 0.0048766 0)
(1.0114 0.00480023 0)
(1.01156 0.00475541 0)
(1.00181 0.0090148 0)
(0.998902 0.00926917 0)
(0.997597 0.00947762 0)
(0.997696 0.00963041 0)
(0.998807 0.00974648 0)
(1.00037 0.00981617 0)
(1.00204 0.00984319 0)
(1.00349 0.00982527 0)
(1.00469 0.00975565 0)
(1.00552 0.00964838 0)
(1.00612 0.00949216 0)
(1.00649 0.00929776 0)
(1.00682 0.00904661 0)
(1.00705 0.00877802 0)
(1.00732 0.00849334 0)
(1.00757 0.00820219 0)
(1.0079 0.00791751 0)
(1.00821 0.00762565 0)
(1.00857 0.0073591 0)
(1.00884 0.00710068 0)
(1.00922 0.0068293 0)
(1.00945 0.00658483 0)
(1.00973 0.00636154 0)
(1.0099 0.00614694 0)
(1.01014 0.00595961 0)
(1.01025 0.00579249 0)
(1.01048 0.00562565 0)
(1.01057 0.0054686 0)
(1.01079 0.00531069 0)
(1.01086 0.00515652 0)
(1.01106 0.0050336 0)
(1.01111 0.00493331 0)
(1.01131 0.00483788 0)
(1.01133 0.00476349 0)
(1.01151 0.00472554 0)
(1.00214 0.0084426 0)
(0.99915 0.00866287 0)
(0.997768 0.00884597 0)
(0.997799 0.00898728 0)
(0.998859 0.00909649 0)
(1.00037 0.00917529 0)
(1.00199 0.00921625 0)
(1.0034 0.0092261 0)
(1.00456 0.00918766 0)
(1.00535 0.00911705 0)
(1.00592 0.00900145 0)
(1.00625 0.00885404 0)
(1.00656 0.00866041 0)
(1.00678 0.00843691 0)
(1.00706 0.00819928 0)
(1.00731 0.00794367 0)
(1.00766 0.00769264 0)
(1.00798 0.00742759 0)
(1.00836 0.00717715 0)
(1.00864 0.00694601 0)
(1.00902 0.00669911 0)
(1.00927 0.0064699 0)
(1.00956 0.0062618 0)
(1.00974 0.00605664 0)
(1.01 0.0058767 0)
(1.01012 0.00571768 0)
(1.01036 0.00555961 0)
(1.01045 0.00541109 0)
(1.01068 0.00526195 0)
(1.01075 0.0051142 0)
(1.01096 0.00499492 0)
(1.01101 0.00489904 0)
(1.01122 0.00480888 0)
(1.01125 0.00473863 0)
(1.01145 0.00470183 0)
(1.00244 0.00791127 0)
(0.999374 0.00810133 0)
(0.997928 0.0082597 0)
(0.9979 0.00838986 0)
(0.998916 0.00849049 0)
(1.00038 0.00857148 0)
(1.00196 0.00861872 0)
(1.00333 0.00864346 0)
(1.00445 0.00862724 0)
(1.0052 0.00858519 0)
(1.00574 0.00850754 0)
(1.00605 0.00840297 0)
(1.00633 0.0082614 0)
(1.00653 0.00808338 0)
(1.00681 0.00788887 0)
(1.00706 0.00767268 0)
(1.00742 0.00745378 0)
(1.00774 0.00721719 0)
(1.00814 0.00698242 0)
(1.00842 0.00677555 0)
(1.00882 0.00655035 0)
(1.00908 0.00633822 0)
(1.00939 0.00614889 0)
(1.00958 0.00596272 0)
(1.00985 0.00579305 0)
(1.00997 0.00564339 0)
(1.01022 0.00549042 0)
(1.01032 0.00534895 0)
(1.01055 0.00520579 0)
(1.01062 0.0050711 0)
(1.01085 0.0049577 0)
(1.0109 0.00486744 0)
(1.01113 0.00477844 0)
(1.01115 0.00471543 0)
(1.01138 0.004678 0)
(1.0027 0.00736018 0)
(0.999567 0.00752265 0)
(0.998068 0.00765844 0)
(0.997988 0.00777522 0)
(0.998965 0.007867 0)
(1.00039 0.00794518 0)
(1.00194 0.00799741 0)
(1.00326 0.00803281 0)
(1.00435 0.00803952 0)
(1.00507 0.00802452 0)
(1.00558 0.00798309 0)
(1.00586 0.00791321 0)
(1.00612 0.00781391 0)
(1.0063 0.00767629 0)
(1.00657 0.00752078 0)
(1.00681 0.00734233 0)
(1.00717 0.0071563 0)
(1.00749 0.00695532 0)
(1.00792 0.00674571 0)
(1.00821 0.00656139 0)
(1.00862 0.00636202 0)
(1.00888 0.00616809 0)
(1.00921 0.00599993 0)
(1.0094 0.00582973 0)
(1.0097 0.00567039 0)
(1.00982 0.00552914 0)
(1.01008 0.00538732 0)
(1.01018 0.00525597 0)
(1.01043 0.00512567 0)
(1.01049 0.00499753 0)
(1.01074 0.00489125 0)
(1.01079 0.00480555 0)
(1.01103 0.00472578 0)
(1.01105 0.00466502 0)
(1.0113 0.00463362 0)
(1.00291 0.00682763 0)
(0.999725 0.00696578 0)
(0.99818 0.00708337 0)
(0.998056 0.00718718 0)
(0.999001 0.00727336 0)
(1.00039 0.00734864 0)
(1.00191 0.00740859 0)
(1.0032 0.00745335 0)
(1.00426 0.00748162 0)
(1.00495 0.00748588 0)
(1.00544 0.00747246 0)
(1.00569 0.00742768 0)
(1.00592 0.00736505 0)
(1.00608 0.00726526 0)
(1.00634 0.00714954 0)
(1.00657 0.00700907 0)
(1.00693 0.00685584 0)
(1.00724 0.00669167 0)
(1.00769 0.00651121 0)
(1.00798 0.0063441 0)
(1.0084 0.00617495 0)
(1.00868 0.00599739 0)
(1.00902 0.00584733 0)
(1.00921 0.00569283 0)
(1.00952 0.00555093 0)
(1.00965 0.00541959 0)
(1.00992 0.00529205 0)
(1.01002 0.00516393 0)
(1.01028 0.0050441 0)
(1.01035 0.00492178 0)
(1.01061 0.00482906 0)
(1.01066 0.00474449 0)
(1.01092 0.00467426 0)
(1.01094 0.00461223 0)
(1.0112 0.00458955 0)
(1.00308 0.00628392 0)
(0.999845 0.00640512 0)
(0.998262 0.00650883 0)
(0.998104 0.0066039 0)
(0.999021 0.00668553 0)
(1.00038 0.00675984 0)
(1.00188 0.00682468 0)
(1.00315 0.00687728 0)
(1.00418 0.00691942 0)
(1.00484 0.00694025 0)
(1.0053 0.00694885 0)
(1.00552 0.00693245 0)
(1.00573 0.00690123 0)
(1.00586 0.00684427 0)
(1.00611 0.00676373 0)
(1.00632 0.00666651 0)
(1.00669 0.0065409 0)
(1.00699 0.00641523 0)
(1.00744 0.00626166 0)
(1.00775 0.00611774 0)
(1.00817 0.00597712 0)
(1.00845 0.00582544 0)
(1.00881 0.00568814 0)
(1.009 0.00555853 0)
(1.00933 0.00542658 0)
(1.00946 0.00530991 0)
(1.00974 0.00518663 0)
(1.00984 0.0050737 0)
(1.01011 0.00495769 0)
(1.01018 0.00484935 0)
(1.01046 0.00475404 0)
(1.0105 0.00468187 0)
(1.01078 0.00460758 0)
(1.01081 0.00455723 0)
(1.01109 0.00452209 0)
(1.00321 0.00569912 0)
(0.999936 0.0058065 0)
(0.99832 0.0059003 0)
(0.998131 0.00598603 0)
(0.999026 0.00606337 0)
(1.00037 0.00613452 0)
(1.00185 0.00620193 0)
(1.00309 0.00626069 0)
(1.0041 0.00631518 0)
(1.00473 0.006356 0)
(1.00517 0.00638844 0)
(1.00537 0.0064041 0)
(1.00556 0.00640246 0)
(1.00566 0.00638431 0)
(1.0059 0.00633685 0)
(1.00608 0.00628057 0)
(1.00645 0.00619204 0)
(1.00673 0.00610509 0)
(1.00719 0.00599102 0)
(1.0075 0.0058778 0)
(1.00793 0.00576808 0)
(1.00821 0.0056479 0)
(1.00859 0.00553344 0)
(1.00878 0.00543122 0)
(1.00912 0.00531938 0)
(1.00924 0.00522346 0)
(1.00955 0.00511746 0)
(1.00964 0.00502294 0)
(1.00993 0.00491877 0)
(1.00999 0.00482498 0)
(1.01029 0.00473957 0)
(1.01033 0.00468022 0)
(1.01063 0.00461159 0)
(1.01064 0.00456979 0)
(1.01095 0.00453493 0)
(1.00343 0.00435816 0)
(1.00006 0.00439869 0)
(0.998374 0.00444205 0)
(0.998122 0.00448437 0)
(0.998975 0.00453412 0)
(1.00028 0.004584 0)
(1.00173 0.00464257 0)
(1.00294 0.00469853 0)
(1.00392 0.00476001 0)
(1.00451 0.00481431 0)
(1.00491 0.00486754 0)
(1.00504 0.00490873 0)
(1.00518 0.00494065 0)
(1.00521 0.00495791 0)
(1.0054 0.00495996 0)
(1.00555 0.00494977 0)
(1.00589 0.00492582 0)
(1.00615 0.00489073 0)
(1.0066 0.00484708 0)
(1.0069 0.00478898 0)
(1.00735 0.00473714 0)
(1.00762 0.00467076 0)
(1.00803 0.00461288 0)
(1.00822 0.00455228 0)
(1.00858 0.00449621 0)
(1.00871 0.00443744 0)
(1.00903 0.00438095 0)
(1.00912 0.00431553 0)
(1.00944 0.00425543 0)
(1.0095 0.00418878 0)
(1.00983 0.00414576 0)
(1.00986 0.00410389 0)
(1.0102 0.00407236 0)
(1.01021 0.00404073 0)
(1.01057 0.00403562 0)
(1.00222 0.00310286 0)
(0.99895 0.0031683 0)
(0.997366 0.00324283 0)
(0.997224 0.00332386 0)
(0.998175 0.00340956 0)
(0.999555 0.00349686 0)
(1.00106 0.00358512 0)
(1.00229 0.00367246 0)
(1.00327 0.00375927 0)
(1.00383 0.00384431 0)
(1.0042 0.0039274 0)
(1.00428 0.00400885 0)
(1.00436 0.00408754 0)
(1.00434 0.00416561 0)
(1.00449 0.00423859 0)
(1.00459 0.00430809 0)
(1.00489 0.00436763 0)
(1.00513 0.00441962 0)
(1.00555 0.00445948 0)
(1.00584 0.00448769 0)
(1.00628 0.00450388 0)
(1.00653 0.00450963 0)
(1.00693 0.00450847 0)
(1.00712 0.00449971 0)
(1.00747 0.00448678 0)
(1.0076 0.00447121 0)
(1.00793 0.00444484 0)
(1.00802 0.00441721 0)
(1.00834 0.00438131 0)
(1.00842 0.00434292 0)
(1.00875 0.00431644 0)
(1.00881 0.00429694 0)
(1.00916 0.00426978 0)
(1.00919 0.00424811 0)
(1.00955 0.00423528 0)
(1.00264 -0.00302799 0)
(0.999386 -0.00270909 0)
(0.99777 -0.00212641 0)
(0.997523 -0.00142157 0)
(0.998354 -0.000721712 0)
(0.999581 -0.000114685 0)
(1.00097 0.000361375 0)
(1.00207 0.000703126 0)
(1.00298 0.000934838 0)
(1.00346 0.00109089 0)
(1.00379 0.00121265 0)
(1.00383 0.00133269 0)
(1.00392 0.00147338 0)
(1.00387 0.00164451 0)
(1.004 0.00184336 0)
(1.00404 0.00206338 0)
(1.00431 0.00228859 0)
(1.00446 0.00250738 0)
(1.00482 0.00270595 0)
(1.00501 0.0028774 0)
(1.0054 0.0030201 0)
(1.00557 0.00313133 0)
(1.00594 0.00322022 0)
(1.00606 0.00328827 0)
(1.00641 0.00334355 0)
(1.00649 0.00338883 0)
(1.00684 0.00342233 0)
(1.00689 0.00345012 0)
(1.00725 0.00346919 0)
(1.00728 0.00348185 0)
(1.00766 0.00350304 0)
(1.00767 0.00352275 0)
(1.00808 0.00353038 0)
(1.00807 0.00353265 0)
(1.00852 0.00353493 0)
(1.00024 -0.00355434 0)
(1.00363 -0.00325833 0)
(1.00549 -0.00269908 0)
(1.00585 -0.00201762 0)
(1.00525 -0.00133965 0)
(1.00411 -0.000752662 0)
(1.00298 -0.000293316 0)
(1.00197 3.45666e-05 0)
(1.00135 0.000256246 0)
(1.00098 0.000404683 0)
(1.001 0.000522172 0)
(1.00111 0.000639323 0)
(1.00141 0.000779812 0)
(1.00163 0.000951194 0)
(1.00193 0.00115261 0)
(1.00206 0.00137609 0)
(1.00226 0.0016079 0)
(1.00229 0.0018356 0)
(1.00243 0.00204658 0)
(1.00242 0.00223329 0)
(1.00257 0.00239538 0)
(1.00257 0.00252836 0)
(1.00276 0.0026427 0)
(1.0028 0.00273672 0)
(1.00305 0.00282099 0)
(1.00311 0.00289429 0)
(1.00339 0.00295702 0)
(1.00345 0.00301223 0)
(1.00376 0.00305877 0)
(1.00381 0.00309572 0)
(1.00412 0.00314059 0)
(1.00416 0.00317942 0)
(1.00449 0.00320526 0)
(1.00452 0.00322003 0)
(1.00487 0.00323151 0)
(1.00049 0.00110974 0)
(1.00391 0.00113401 0)
(1.00575 0.00116514 0)
(1.00603 0.00120258 0)
(1.00534 0.00124472 0)
(1.0041 0.00129073 0)
(1.00289 0.00134042 0)
(1.00181 0.00139339 0)
(1.00115 0.00145057 0)
(1.00076 0.00151115 0)
(1.00076 0.00157612 0)
(1.00086 0.00164514 0)
(1.00117 0.0017191 0)
(1.00138 0.00179869 0)
(1.00167 0.00188192 0)
(1.00177 0.00196991 0)
(1.00194 0.00205753 0)
(1.0019 0.00214777 0)
(1.00199 0.00223406 0)
(1.0019 0.00231882 0)
(1.00198 0.00239795 0)
(1.00192 0.00247275 0)
(1.00207 0.00254516 0)
(1.00205 0.00261158 0)
(1.00226 0.00267498 0)
(1.00228 0.00273501 0)
(1.00255 0.00278307 0)
(1.00257 0.00282736 0)
(1.00286 0.00285973 0)
(1.00288 0.00288624 0)
(1.00319 0.00291739 0)
(1.00319 0.00294689 0)
(1.00353 0.00296086 0)
(1.00352 0.00296994 0)
(1.00389 0.00297335 0)
(0.998699 0.000768141 0)
(1.00226 0.000754407 0)
(1.00424 0.000746846 0)
(1.00469 0.000745344 0)
(1.00414 0.000752535 0)
(1.00304 0.000766395 0)
(1.00192 0.000788883 0)
(1.00092 0.00081633 0)
(1.00031 0.000850997 0)
(0.999951 0.000888629 0)
(0.999959 0.000932032 0)
(1.00008 0.000977321 0)
(1.00039 0.00102744 0)
(1.00062 0.0010797 0)
(1.00091 0.00113637 0)
(1.00104 0.00119613 0)
(1.00121 0.00125965 0)
(1.0012 0.00132607 0)
(1.00128 0.00139538 0)
(1.0012 0.00146559 0)
(1.00127 0.00153909 0)
(1.0012 0.00161052 0)
(1.00131 0.00168654 0)
(1.00128 0.00175837 0)
(1.00145 0.00183302 0)
(1.00145 0.00190252 0)
(1.00167 0.00196655 0)
(1.0017 0.00202353 0)
(1.00195 0.00207399 0)
(1.00196 0.00211479 0)
(1.00223 0.00216318 0)
(1.00224 0.00220436 0)
(1.00253 0.00223623 0)
(1.00253 0.00225623 0)
(1.00285 0.00227251 0)
(0.998579 0.00103294 0)
(1.00215 0.00104842 0)
(1.00415 0.00106511 0)
(1.00461 0.00108319 0)
(1.00407 0.00110315 0)
(1.00298 0.00112467 0)
(1.00186 0.00114871 0)
(1.00087 0.00117439 0)
(1.00025 0.00120311 0)
(0.999904 0.00123361 0)
(0.999903 0.00126733 0)
(1.00003 0.00130313 0)
(1.00033 0.00134179 0)