/*--------------------------------*- C++ -*----------------------------------*\
| =========                 |                                                 |
| \\      /  F ield         | OpenFOAM: The Open Source CFD Toolbox           |
|  \\    /   O peration     | Version:  5.x                                   |
|   \\  /    A nd           | Web:      www.OpenFOAM.org                      |
|    \\/     M anipulation  |                                                 |
\*---------------------------------------------------------------------------*/
FoamFile
{
    version     2.0;
    format      ascii;
    class       volScalarField;
    location    "0.6";
    object      p;
}
// * * * * * * * * * * * * * * * * * * * * * * * * * * * * * * * * * * * * * //

dimensions      [0 2 -2 0 0 0 0];

internalField   nonuniform List<scalar> 
10800
(
0.0448671
0.0396755
0.0329249
0.0271153
0.0219532
0.0168326
0.0116631
0.00706278
0.00401334
0.00292364
0.00333682
0.00441884
0.00555247
0.00644601
0.00702875
0.00734567
0.00747944
0.00750498
0.00747514
0.0074218
0.00736128
0.00729937
0.0072371
0.00717513
0.00711494
0.00705736
0.00700123
0.00694337
0.00688078
0.00681269
0.00673996
0.00666332
0.0065831
0.00650025
0.00641665
0.00633394
0.0062524
0.00617116
0.00608934
0.00600677
0.0059238
0.00584071
0.00575746
0.00567445
0.00559175
0.00550845
0.00542371
0.00533764
0.00525012
0.00516148
0.00507235
0.00498344
0.00489447
0.0048053
0.00471572
0.00462626
0.00453726
0.00444907
0.00436092
0.00427231
0.00418243
0.00409166
0.00399981
0.0039072
0.00381347
0.00371875
0.0036227
0.00352649
0.00343025
0.00333414
0.00323711
0.00313933
0.00304061
0.00294136
0.00284041
0.00273782
0.00263378
0.00252931
0.00242386
0.00231752
0.00221054
0.00210302
0.00199434
0.00188409
0.00177284
0.00166003
0.00154664
0.00143174
0.00131733
0.00120109
0.00108583
0.000967806
0.000851829
0.000732073
0.000616923
0.000496853
0.000385014
0.000265827
0.000160682
4.25678e-05
0.0413936
0.0382511
0.0324647
0.0268346
0.0217501
0.016796
0.011841
0.00741789
0.00440002
0.00322604
0.00354306
0.0045626
0.00565497
0.00651896
0.00708189
0.00738689
0.00751369
0.00753494
0.00750209
0.00744637
0.0073838
0.00732001
0.00725595
0.00719231
0.00713062
0.00707175
0.00701455
0.00695575
0.00689234
0.00682348
0.00675007
0.00667281
0.00659202
0.00650864
0.00642454
0.00634138
0.00625944
0.00617783
0.00609566
0.00601277
0.00592949
0.00584611
0.00576259
0.00567933
0.0055964
0.00551289
0.00542794
0.00534169
0.00525399
0.00516516
0.00507587
0.00498681
0.00489769
0.00480839
0.00471867
0.00462908
0.00453997
0.00445166
0.00436341
0.00427471
0.00418474
0.00409387
0.00400194
0.00390924
0.00381544
0.00372064
0.00362452
0.00352823
0.00343193
0.00333575
0.00323867
0.00314083
0.00304206
0.00294276
0.00284177
0.00273912
0.00263504
0.00253052
0.00242503
0.00231864
0.00221163
0.00210406
0.00199536
0.00188507
0.00177379
0.00166094
0.00154753
0.00143259
0.00131817
0.00120188
0.00108662
0.000968551
0.000852569
0.000732771
0.000617621
0.000497511
0.000385676
0.000266451
0.000161314
4.31766e-05
0.0388049
0.0369496
0.0320863
0.0266683
0.0216314
0.0168451
0.0121928
0.00805651
0.00511818
0.00380207
0.00390952
0.00477807
0.00578323
0.00659604
0.00713151
0.0074238
0.00754555
0.00756486
0.0075309
0.00747395
0.00740984
0.00734428
0.00727835
0.00721278
0.00714917
0.00708845
0.00702958
0.00696934
0.00690468
0.00683475
0.00676042
0.00668235
0.00660084
0.00651682
0.00643215
0.00634847
0.00626608
0.00618406
0.00610152
0.00601829
0.00593471
0.00585104
0.00576725
0.00568374
0.00560059
0.00551687
0.00543172
0.00534528
0.00525741
0.00516841
0.00507897
0.00498976
0.00490051
0.00481107
0.00472124
0.00463153
0.00454231
0.00445391
0.00436557
0.00427677
0.00418673
0.00409577
0.00400377
0.003911
0.00381713
0.00372226
0.00362608
0.00352972
0.00343336
0.00333713
0.00324
0.0031421
0.0030433
0.00294395
0.00284292
0.00274022
0.0026361
0.00253154
0.00242603
0.00231959
0.00221255
0.00210495
0.00199622
0.00188589
0.0017746
0.00166171
0.00154828
0.0014333
0.00131887
0.00120255
0.00108728
0.000969174
0.000853188
0.000733352
0.000618202
0.000498054
0.000386223
0.000266962
0.000161821
4.36468e-05
0.0367874
0.0356349
0.0315919
0.0264976
0.0215609
0.0169479
0.0126001
0.00876041
0.00593525
0.00450665
0.00439188
0.00507003
0.00596058
0.00671282
0.00721577
0.00748983
0.00760093
0.00761364
0.0075751
0.0075144
0.00744687
0.00737815
0.00730937
0.00724114
0.0071749
0.00711155
0.00705018
0.00698775
0.00692128
0.00684986
0.00677425
0.00669507
0.00661257
0.00652767
0.00644219
0.00635776
0.00627465
0.00619199
0.00610889
0.00602518
0.00594116
0.00585711
0.00577296
0.00568911
0.00560564
0.00552164
0.00543622
0.00534952
0.00526142
0.00517221
0.00508256
0.00499315
0.00490373
0.00481413
0.00472415
0.0046343
0.00454495
0.00445643
0.00436798
0.00427907
0.00418893
0.00409787
0.00400578
0.00391292
0.00381897
0.00372402
0.00362776
0.00353133
0.00343491
0.00333861
0.00324143
0.00314347
0.00304462
0.00294521
0.00284414
0.00274139
0.00263723
0.00253261
0.00242707
0.00232059
0.00221352
0.00210587
0.00199712
0.00188675
0.00177543
0.00166251
0.00154906
0.00143404
0.0013196
0.00120324
0.00108795
0.000969814
0.000853819
0.000733945
0.000618787
0.000498603
0.000386765
0.000267475
0.000162296
4.40907e-05
0.0350734
0.0342987
0.0309487
0.0262744
0.0215169
0.0170843
0.0130056
0.00943056
0.00672535
0.00521986
0.00490716
0.00539287
0.00615984
0.00684821
0.00731895
0.00757463
0.00767365
0.00767783
0.00763299
0.00756721
0.00749525
0.00742259
0.00735033
0.00727893
0.00720951
0.00714286
0.00707823
0.00701285
0.00694392
0.00687048
0.00679312
0.0067124
0.00662857
0.00654252
0.00645599
0.00637051
0.00628637
0.00620275
0.00611882
0.00603441
0.00594979
0.00586518
0.00578052
0.00569619
0.00561228
0.00552787
0.00544208
0.00535505
0.00526664
0.00517714
0.00508721
0.00499753
0.00490784
0.004818
0.00472781
0.00463778
0.00454825
0.00445956
0.00437096
0.00428191
0.00419163
0.00410045
0.00400824
0.00391526
0.00382119
0.00372614
0.00362978
0.00353325
0.00343675
0.00334037
0.00324312
0.00314509
0.00304617
0.0029467
0.00284557
0.00274275
0.00263853
0.00253386
0.00242827
0.00232174
0.00221462
0.00210693
0.00199815
0.00188773
0.00177638
0.00166341
0.00154993
0.00143487
0.0013204
0.00120401
0.0010887
0.000970524
0.000854511
0.000734598
0.00061942
0.000499201
0.000387337
0.000268029
0.000162756
4.45405e-05
0.0335631
0.0329892
0.0301994
0.0259987
0.0214938
0.0172506
0.0133993
0.0100485
0.00746095
0.00590922
0.0054302
0.00573318
0.00637194
0.00699178
0.00742985
0.00766834
0.00775576
0.00775092
0.00769893
0.00762735
0.00755049
0.00747365
0.00739782
0.00732315
0.00725043
0.00718023
0.00711197
0.00704328
0.00697159
0.00689585
0.0068165
0.006734
0.00664865
0.00656131
0.00647357
0.00638687
0.00630147
0.00621663
0.00613164
0.00604632
0.00596091
0.00587558
0.00579024
0.00570529
0.00562078
0.00553584
0.00544957
0.00536212
0.00527333
0.00518349
0.00509321
0.00500317
0.00491312
0.00482296
0.0047325
0.00464222
0.00455245
0.00446353
0.00437471
0.00428548
0.00419503
0.00410369
0.00401132
0.00391818
0.00382396
0.00372877
0.00363228
0.00353563
0.00343901
0.00334253
0.00324518
0.00314706
0.00304805
0.0029485
0.00284729
0.00274439
0.0026401
0.00253536
0.0024297
0.0023231
0.00221593
0.00210818
0.00199935
0.00188888
0.00177749
0.00166446
0.00155094
0.00143583
0.00132133
0.00120489
0.00108955
0.000971332
0.000855288
0.000735332
0.000620119
0.000499865
0.000387948
0.000268637
0.000163193
4.50055e-05
0.0321998
0.0317414
0.0293984
0.0256759
0.0214785
0.0174381
0.0137807
0.0106162
0.00813991
0.00656799
0.00595476
0.00608976
0.00659803
0.0071434
0.00754649
0.00776845
0.00784508
0.00783101
0.007771
0.00769271
0.00761029
0.00752887
0.00744927
0.0073712
0.00729503
0.00722111
0.00714907
0.00707692
0.00700235
0.00692422
0.00684279
0.00675845
0.00667153
0.00658287
0.00649391
0.00640594
0.00631921
0.00623307
0.00614691
0.00606058
0.00597427
0.00588811
0.00580198
0.00571627
0.00563105
0.00554546
0.00545864
0.0053707
0.00528148
0.00519126
0.0051006
0.00501015
0.00491968
0.00482914
0.00473834
0.00464775
0.00455768
0.00446846
0.00437935
0.00428988
0.00419923
0.0041077
0.00401514
0.00392182
0.00382741
0.00373203
0.00363539
0.00353859
0.00344181
0.00334518
0.00324771
0.00314948
0.00305037
0.0029507
0.00284939
0.0027464
0.00264201
0.00253717
0.00243143
0.00232475
0.00221751
0.00210969
0.0020008
0.00189026
0.00177881
0.00166572
0.00155214
0.00143697
0.00132242
0.00120593
0.00109055
0.000972273
0.000856181
0.000736178
0.000620906
0.000500619
0.000388612
0.000269318
0.000163604
4.55079e-05
0.0309509
0.0305723
0.0285879
0.0253143
0.0214551
0.0176335
0.01415
0.0111423
0.00876778
0.0071942
0.00647603
0.00646082
0.00683945
0.0073045
0.00766875
0.00787383
0.00794055
0.00791738
0.00784864
0.00776265
0.00767383
0.00758724
0.00750351
0.00742183
0.00734204
0.00726427
0.00718836
0.00711265
0.00703512
0.00695454
0.00687096
0.00678471
0.00669619
0.00660618
0.00651601
0.00642677
0.0063387
0.00625124
0.00616389
0.00607652
0.00598928
0.00590222
0.00581525
0.00572871
0.00564271
0.00555641
0.00546897
0.00538048
0.00529082
0.00520021
0.00510917
0.0050183
0.0049274
0.00483645
0.00474528
0.00465436
0.00456393
0.00447434
0.00438488
0.00429512
0.00420423
0.00411248
0.00401971
0.00392619
0.00383157
0.00373599
0.00363916
0.00354219
0.00344522
0.0033484
0.00325077
0.00315241
0.00305317
0.00295337
0.00285194
0.00274884
0.00264434
0.00253938
0.00243353
0.00232675
0.00221943
0.00211152
0.00200254
0.00189192
0.0017804
0.00166722
0.00155358
0.00143833
0.00132372
0.00120716
0.00109172
0.000973387
0.000857228
0.00073717
0.000621814
0.000501495
0.000389351
0.000270098
0.000163996
4.60791e-05
0.0297986
0.0294881
0.0277948
0.0249249
0.021412
0.0178238
0.0145061
0.0116341
0.00935022
0.00778621
0.00698784
0.00684177
0.00709555
0.00747599
0.00779669
0.0079834
0.00804091
0.00800929
0.00793149
0.00783695
0.00774083
0.00764838
0.00756007
0.00747455
0.00739102
0.00730929
0.00722941
0.00715007
0.0070695
0.00698637
0.00690057
0.00681232
0.00672213
0.00663073
0.00653931
0.00644878
0.00635938
0.00627058
0.00618204
0.00609362
0.00600543
0.00591744
0.00582959
0.00574219
0.00565536
0.00556831
0.00548022
0.00539115
0.00530101
0.00521
0.00511859
0.0050273
0.00493598
0.00484463
0.0047531
0.00466183
0.00457104
0.00448104
0.0043912
0.0043011
0.00420993
0.00411792
0.00402494
0.0039312
0.00383636
0.00374058
0.00364357
0.0035464
0.00344922
0.00335219
0.00325437
0.00315585
0.00305646
0.00295651
0.00285494
0.00275172
0.0026471
0.00254201
0.00243603
0.00232913
0.0022217
0.00211368
0.00200462
0.0018939
0.00178229
0.00166902
0.00155529
0.00143995
0.00132527
0.00120862
0.00109311
0.000974704
0.000858462
0.000738339
0.000622871
0.000502519
0.000390185
0.000270998
0.000164388
4.67459e-05
0.0287285
0.0284847
0.0270342
0.0245202
0.0213444
0.0179983
0.0148459
0.0120961
0.0098923
0.0083437
0.00748495
0.00722724
0.00736447
0.00765846
0.00793087
0.00809662
0.00814517
0.0081061
0.00801942
0.00791567
0.0078114
0.00771233
0.00761891
0.00752927
0.00744187
0.00735609
0.00727212
0.00718907
0.00710535
0.00701958
0.00693146
0.00684114
0.0067492
0.00665634
0.00656361
0.00647177
0.006381
0.00629085
0.00620108
0.00611159
0.00602242
0.00593348
0.00584471
0.00575642
0.00566874
0.00558091
0.00549214
0.00540246
0.00531182
0.0052204
0.00512861
0.00503692
0.00494518
0.00485344
0.00476157
0.00466995
0.00457878
0.00448836
0.00439812
0.00430765
0.00421618
0.00412389
0.00403067
0.00393671
0.00384166
0.00374567
0.00364851
0.00355114
0.00345374
0.00335646
0.00325845
0.00315974
0.00306019
0.00296006
0.00285835
0.00275501
0.00265028
0.00254503
0.00243892
0.00233188
0.00222433
0.00211617
0.00200701
0.00189618
0.00178449
0.0016711
0.0015573
0.00144184
0.00132708
0.00121032
0.00109474
0.000976237
0.000859899
0.000739702
0.000624093
0.000503708
0.000391129
0.000272032
0.000164799
4.75185e-05
0.0277286
0.0275552
0.0263154
0.0241121
0.0212519
0.0181497
0.0151644
0.01253
0.0103985
0.00886801
0.00796399
0.00761239
0.00764367
0.00785216
0.00807234
0.00821377
0.00825276
0.00820724
0.00811224
0.00799891
0.00788566
0.0077792
0.00768009
0.007586
0.0074946
0.00740469
0.00731653
0.00722966
0.00714273
0.00705421
0.00696366
0.00687117
0.00677739
0.00668298
0.00658889
0.00649568
0.0064035
0.00631195
0.00622092
0.00613032
0.00604014
0.00595022
0.0058605
0.00577129
0.00568274
0.00559411
0.00550463
0.00541431
0.00532314
0.00523129
0.00513912
0.005047
0.00495485
0.00486272
0.00477051
0.00467855
0.00458701
0.00449616
0.0044055
0.00431465
0.00422287
0.00413027
0.00403679
0.0039426
0.00384735
0.00375114
0.00365384
0.00355629
0.00345867
0.00336115
0.00326292
0.003164
0.00306428
0.00296394
0.0028621
0.00275862
0.00265379
0.00254838
0.00244216
0.00233495
0.00222729
0.00211896
0.0020097
0.00189874
0.00178698
0.00167346
0.00155957
0.00144399
0.00132913
0.00121225
0.00109658
0.00097798
0.000861537
0.000741257
0.000625483
0.000505065
0.000392186
0.000273198
0.000165248
4.83848e-05
0.0267948
0.0266976
0.0256454
0.0237112
0.0211377
0.0182732
0.0154566
0.0129353
0.0108717
0.00936079
0.00842282
0.007993
0.00792986
0.00805639
0.0082219
0.00833527
0.00836304
0.00831161
0.00820918
0.00808627
0.00796344
0.00784893
0.00774358
0.00764467
0.00754912
0.00745503
0.00736261
0.00727182
0.00718159
0.00709025
0.00699715
0.0069024
0.00680668
0.00671066
0.00661511
0.00652047
0.00642683
0.00633386
0.00624152
0.00614977
0.00605855
0.00596761
0.00587692
0.00578676
0.00569731
0.00560785
0.00551764
0.00542666
0.00533494
0.00524263
0.00515005
0.0050575
0.00496493
0.0048724
0.00477985
0.00468754
0.00459562
0.00450434
0.00441326
0.00432202
0.00422991
0.00413698
0.00404323
0.0039488
0.00385333
0.00375692
0.00365947
0.00356174
0.00346392
0.00336614
0.00326771
0.00316856
0.00306866
0.00296809
0.00286611
0.00276248
0.00265757
0.002552
0.00244567
0.0023383
0.00223051
0.00212199
0.00201264
0.00190153
0.00178969
0.00167604
0.00156208
0.00144635
0.00133141
0.00121439
0.00109862
0.000979906
0.000863353
0.000742989
0.000627027
0.000506579
0.00039335
0.000274481
0.000165745
4.93133e-05
0.0259353
0.0259177
0.0250329
0.0233299
0.0210096
0.0183688
0.0157195
0.0133117
0.0113149
0.00982506
0.00886161
0.00836688
0.00822044
0.00827016
0.00838014
0.00846182
0.00847576
0.0084183
0.00830952
0.00817762
0.0080449
0.00792173
0.00780956
0.00770537
0.00760536
0.00750701
0.00741026
0.00731547
0.00722186
0.00712763
0.00703189
0.00693476
0.00683702
0.0067393
0.00664224
0.00654612
0.00645098
0.00635654
0.00626286
0.00616993
0.00607762
0.00598564
0.00589393
0.00580279
0.00571243
0.00562212
0.00553116
0.00543949
0.00534719
0.0052544
0.00516139
0.0050684
0.00497539
0.00488246
0.00478955
0.00469688
0.00460458
0.00451286
0.00442135
0.0043297
0.00423726
0.00414398
0.00404996
0.00395527
0.00385959
0.00376295
0.00366536
0.00356744
0.00346943
0.00337139
0.00327275
0.00317337
0.00307327
0.00297247
0.00287035
0.00276656
0.00266157
0.00255583
0.0024494
0.00234186
0.00223395
0.00212523
0.00201577
0.0019045
0.00179259
0.0016788
0.00156478
0.0014489
0.00133387
0.0012167
0.00110083
0.000981989
0.000865316
0.000744871
0.000628702
0.000508231
0.000394606
0.000275859
0.000166295
5.02632e-05
0.0251578
0.0252197
0.0244839
0.022977
0.0208755
0.0184391
0.0159522
0.0136589
0.0117305
0.0102646
0.00928256
0.00873357
0.00851399
0.00849269
0.00854772
0.00859497
0.00859202
0.00852766
0.00841353
0.00827359
0.00813087
0.00799831
0.00787863
0.00776859
0.00766372
0.0075609
0.00745976
0.00736088
0.00726379
0.00716657
0.00706806
0.00696842
0.00686856
0.00676906
0.00667038
0.00657272
0.00647603
0.00638007
0.00628499
0.00619084
0.00609741
0.00600434
0.00591156
0.00581942
0.00572811
0.00563694
0.00554519
0.0054528
0.0053599
0.0052666
0.00517316
0.0050797
0.00498624
0.00489288
0.00479961
0.00470656
0.00461387
0.00452169
0.00442975
0.00433769
0.0042449
0.00415127
0.00405695
0.003962
0.00386609
0.00376922
0.00367149
0.00357337
0.00347517
0.00337687
0.00327802
0.00317839
0.0030781
0.00297705
0.00287477
0.00277082
0.00266575
0.00255984
0.00245331
0.0023456
0.00223758
0.00212865
0.00201908
0.00190763
0.00179565
0.00168171
0.00156763
0.00145161
0.00133648
0.00121915
0.00110317
0.000984202
0.000867395
0.000746879
0.000630481
0.000509999
0.000395938
0.000277307
0.000166894
5.11974e-05
0.0244391
0.0245935
0.023995
0.0226527
0.0207345
0.0184805
0.0161489
0.013971
0.0121145
0.0106769
0.00968327
0.00908964
0.00880613
0.00872014
0.00872276
0.00873445
0.00871185
0.00863901
0.00852009
0.00837328
0.00822084
0.00807832
0.00795048
0.00783417
0.00772408
0.00761657
0.007511
0.00740802
0.00730735
0.00720706
0.0071057
0.00700343
0.00690132
0.00679995
0.00669959
0.0066003
0.006502
0.00640447
0.00630794
0.00621252
0.00611793
0.00602372
0.00592984
0.00583666
0.00574438
0.00565232
0.00555976
0.00546663
0.00537309
0.00527927
0.00518535
0.00509141
0.00499749
0.00490369
0.00481003
0.0047166
0.00462349
0.00453085
0.00443847
0.00434599
0.00425283
0.00415883
0.00406421
0.00396899
0.00387284
0.00377573
0.00367785
0.00357953
0.00348113
0.00338256
0.00328349
0.00318361
0.00308313
0.00298182
0.00287938
0.00277526
0.00267009
0.00256402
0.00245739
0.0023495
0.00224136
0.00213222
0.00202253
0.0019109
0.00179884
0.00168475
0.00157061
0.00145445
0.00133922
0.00122173
0.00110562
0.000986531
0.000869569
0.000748993
0.000632342
0.000511863
0.000397334
0.000278806
0.000167539
5.20899e-05
0.0237864
0.0240506
0.023574
0.0223633
0.0205919
0.0184951
0.0163084
0.0142448
0.0124638
0.0110599
0.0100615
0.00943221
0.00909369
0.0089494
0.00890313
0.00887956
0.00883498
0.00875133
0.0086274
0.00847499
0.00831368
0.00816099
0.0080245
0.00790161
0.00778606
0.00767358
0.00756349
0.00745645
0.00735219
0.00724876
0.00714451
0.00703955
0.0069351
0.00683179
0.00672968
0.00662871
0.00652877
0.00642964
0.00633162
0.00623489
0.00613912
0.00604375
0.00594873
0.00585449
0.00576121
0.00566823
0.00557484
0.00548095
0.00538676
0.00529239
0.00519798
0.00510354
0.00500913
0.00491487
0.00482081
0.00472698
0.00463345
0.00454033
0.0044475
0.00435459
0.00426106
0.00416668
0.00407175
0.00397624
0.00387985
0.00378249
0.00368444
0.00358592
0.0034873
0.00338847
0.00328917
0.00318904
0.00308835
0.00298678
0.00288417
0.00277987
0.00267461
0.00256836
0.00246162
0.00235356
0.0022453
0.00213594
0.00202612
0.00191431
0.00180216
0.00168792
0.00157371
0.00145741
0.00134207
0.00122443
0.00110817
0.000988965
0.000871824
0.000751203
0.000634271
0.000513808
0.000398782
0.000280341
0.000168228
5.29273e-05
0.0232361
0.0236194
0.0232388
0.0221252
0.0204657
0.0184997
0.0164437
0.0144891
0.0127845
0.0114189
0.0104219
0.0097647
0.00937898
0.00918207
0.00909008
0.00903197
0.00896367
0.00886648
0.00873639
0.00857927
0.00841024
0.00824744
0.00810167
0.00797174
0.00785043
0.00773262
0.00761771
0.00750656
0.00739871
0.00729202
0.00718476
0.00707704
0.00697014
0.00686475
0.00676082
0.00665812
0.00655646
0.00645569
0.00635613
0.00625805
0.00616104
0.00606447
0.00596828
0.00587293
0.00577864
0.00568473
0.00559047
0.0054958
0.00540092
0.00530598
0.00521106
0.0051161
0.00502118
0.00492645
0.00483197
0.00473773
0.00464376
0.00455015
0.00445686
0.0043635
0.00426959
0.00417483
0.00407957
0.00398377
0.00388713
0.0037895
0.00369127
0.00359254
0.0034937
0.00339459
0.00329506
0.00319467
0.00309376
0.00299193
0.00288914
0.00278466
0.00267929
0.00257287
0.00246601
0.00235778
0.00224937
0.00213981
0.00202985
0.00191786
0.0018056
0.00169122
0.00157691
0.00146049
0.00134502
0.00122724
0.00111081
0.000991501
0.000874154
0.000753501
0.000636262
0.000515824
0.00040028
0.0002819
0.000168961
5.37054e-05
0.0227613
0.0232787
0.0229786
0.0219354
0.0203583
0.0184974
0.0165566
0.0147039
0.0130749
0.011752
0.0107632
0.0100861
0.00966107
0.009417
0.00928216
0.00919077
0.00909811
0.00898518
0.00884729
0.00868583
0.00851036
0.00833788
0.00818225
0.00804471
0.0079174
0.00779395
0.00767384
0.00755843
0.007447
0.00733699
0.0072266
0.00711603
0.00700657
0.00689899
0.00679313
0.00668861
0.00658518
0.00648269
0.00638154
0.00628205
0.00618377
0.00608595
0.00598853
0.00589205
0.00579671
0.00570183
0.0056067
0.0055112
0.00541561
0.00532006
0.00522461
0.00512911
0.00503367
0.00493843
0.00484352
0.00474885
0.00465442
0.00456032
0.00446655
0.00437275
0.00427844
0.00418327
0.00408768
0.00399158
0.00389467
0.00379677
0.00369835
0.00359939
0.00350033
0.00340093
0.00330116
0.00320051
0.00309938
0.00299728
0.0028943
0.00278964
0.00268415
0.00257754
0.00247056
0.00236215
0.0022536
0.00214383
0.00203371
0.00192155
0.00180916
0.00169465
0.00158023
0.00146368
0.00134807
0.00123016
0.00111353
0.000994137
0.000876559
0.000755885
0.000638314
0.000517902
0.000401827
0.000283477
0.000169738
5.44255e-05
0.0223066
0.0229669
0.0227528
0.0217743
0.0202636
0.0184863
0.0166443
0.0148857
0.013331
0.0120548
0.0110815
0.0103925
0.00993604
0.00965044
0.00947577
0.00935309
0.00923685
0.00910687
0.00895923
0.00879304
0.00861231
0.00843112
0.00826547
0.00811975
0.00798626
0.0078571
0.00773149
0.00761155
0.00749659
0.00738334
0.00726974
0.00715623
0.00704419
0.0069343
0.00682642
0.00672004
0.00661479
0.00651053
0.00640776
0.00630682
0.00620723
0.00610812
0.00600945
0.00591179
0.00581539
0.00571953
0.00562348
0.00552713
0.00543081
0.00533463
0.00523863
0.00514257
0.00504658
0.00495083
0.00485547
0.00476034
0.00466545
0.00457083
0.00447659
0.00438232
0.00428761
0.00419203
0.00409609
0.00399967
0.00390248
0.00380431
0.00370568
0.00360649
0.00350719
0.00340751
0.00330749
0.00320656
0.0031052
0.00300283
0.00289965
0.0027948
0.00268918
0.00258239
0.00247526
0.00236668
0.00225798
0.00214799
0.00203771
0.00192538
0.00181285
0.00169821
0.00158367
0.001467
0.00135122
0.0012332
0.00111635
0.000996874
0.00087904
0.000758354
0.000640429
0.000520039
0.000403425
0.000285065
0.000170559
5.5092e-05
0.021857
0.0226637
0.0225457
0.0216352
0.0201832
0.018472
0.0167122
0.0150389
0.0135553
0.0123277
0.0113758
0.0106825
0.0102025
0.00988167
0.00967055
0.0095184
0.00937973
0.00923209
0.0090727
0.00890067
0.00871549
0.00852687
0.00835141
0.00819693
0.00805697
0.00792217
0.00779089
0.00766608
0.0075475
0.00743111
0.00731428
0.0071977
0.00708301
0.00697076
0.00686075
0.00675244
0.00664533
0.00653925
0.0064348
0.00633238
0.00623145
0.00613102
0.00603105
0.00593219
0.0058347
0.00573782
0.00564084
0.00554363
0.00544654
0.00534971
0.00525312
0.00515649
0.00505993
0.00496365
0.00486782
0.00477223
0.00467686
0.0045817
0.00448698
0.00439224
0.0042971
0.0042011
0.0041048
0.00400806
0.00391058
0.00381212
0.00371327
0.00361384
0.0035143
0.00341432
0.00331404
0.00321284
0.00311123
0.00300859
0.0029052
0.00280016
0.00269439
0.00258742
0.00248014
0.00237138
0.00226251
0.00215232
0.00204186
0.00192936
0.00181668
0.0017019
0.00158722
0.00147045
0.00135448
0.00123634
0.00111926
0.000999711
0.0008816
0.000760905
0.00064261
0.00052223
0.000405078
0.000286662
0.000171423
5.57103e-05
0.0214163
0.0223684
0.0223533
0.0215152
0.0201185
0.0184611
0.0167682
0.0151698
0.0137522
0.0125724
0.0116461
0.0109554
0.0104595
0.0101102
0.00986641
0.00968639
0.00952643
0.00936125
0.00918852
0.00900912
0.0088197
0.00862494
0.00844031
0.00827663
0.00812974
0.00798937
0.00785242
0.00772234
0.00759983
0.00748034
0.00736033
0.00724054
0.00712309
0.00700845
0.00689621
0.00678588
0.00667688
0.00656892
0.00646272
0.00635879
0.00625647
0.00615468
0.00605337
0.00595327
0.00585466
0.00575675
0.00565881
0.0055607
0.00546283
0.00536531
0.00526812
0.00517089
0.00507374
0.0049769
0.00488059
0.00478452
0.00468865
0.00459295
0.00449773
0.00440251
0.00430694
0.0042105
0.00411383
0.00401676
0.00391898
0.00382021
0.00372113
0.00362145
0.00352165
0.00342137
0.00332082
0.00321934
0.00311749
0.00301456
0.00291095
0.00280572
0.00269979
0.00259264
0.00248519
0.00237626
0.00226719
0.0021568
0.00204615
0.00193349
0.00182063
0.00170574
0.00159089
0.00147402
0.00135784
0.0012396
0.00112227
0.00100265
0.000884244
0.000763537
0.000644862
0.000524472
0.000406789
0.000288267
0.000172328
5.62866e-05
0.0209912
0.022084
0.022174
0.0214108
0.0200687
0.0184571
0.0168176
0.0152827
0.0139247
0.0127903
0.011892
0.0112101
0.0107057
0.0103348
0.0100626
0.0098564
0.00967632
0.00949425
0.00930721
0.00911872
0.00892462
0.00872477
0.00853192
0.0083589
0.00820451
0.00805849
0.00791602
0.00778038
0.00765346
0.00753083
0.00740781
0.00728479
0.00716443
0.00704734
0.00693284
0.00682038
0.00670943
0.00659956
0.00649154
0.00638603
0.0062823
0.0061791
0.00607643
0.00597505
0.0058753
0.00577632
0.00567739
0.00557835
0.00547967
0.00538145
0.00528363
0.00518578
0.00508802
0.0049906
0.00489379
0.00479723
0.00470083
0.00460458
0.00450885
0.00441315
0.00431712
0.00422024
0.00412319
0.00402577
0.00392768
0.0038286
0.00372927
0.00362933
0.00352926
0.00342868
0.00332784
0.00322609
0.00312396
0.00302076
0.00291691
0.00281149
0.00270539
0.00259804
0.00249042
0.00238131
0.00227205
0.00216146
0.0020506
0.00193777
0.00182473
0.00170972
0.00159468
0.00147772
0.00136131
0.00124298
0.00112537
0.00100569
0.000886977
0.000766248
0.000647188
0.000526762
0.00040856
0.000289878
0.000173273
5.68275e-05
0.020585
0.0218127
0.0220057
0.0213181
0.0200309
0.0184609
0.0168637
0.0153804
0.0140749
0.0129834
0.0121141
0.0114456
0.0109394
0.0105536
0.0102578
0.0100276
0.00982849
0.00963049
0.00942874
0.00922958
0.0090299
0.00882558
0.00862559
0.00844347
0.00828108
0.00812918
0.00798142
0.0078402
0.00770845
0.00758245
0.00745662
0.00733047
0.00720701
0.00708737
0.00697059
0.00685591
0.00674291
0.00663112
0.00652124
0.00641409
0.00630892
0.00620427
0.00610019
0.00599752
0.00589658
0.00579653
0.0056966
0.00559661
0.00549707
0.00539812
0.00529965
0.00520116
0.00510277
0.00500476
0.00490743
0.00481035
0.00471341
0.0046166
0.00452035
0.00442416
0.00432765
0.00423033
0.00413288
0.0040351
0.00393668
0.00383729
0.00373769
0.00363748
0.00353713
0.00343624
0.00333511
0.00323307
0.00313067
0.00302719
0.00292309
0.00281747
0.00271118
0.00260365
0.00249582
0.00238655
0.00227707
0.00216628
0.0020552
0.00194222
0.00182897
0.00171384
0.00159861
0.00148155
0.00136491
0.00124648
0.00112859
0.00100883
0.000889803
0.000769038
0.000649595
0.000529099
0.000410394
0.000291497
0.000174253
5.7339e-05
0.0201978
0.0215547
0.0218473
0.0212342
0.0200023
0.0184715
0.0169083
0.0154655
0.0142052
0.0131533
0.012313
0.0116612
0.0111588
0.0107646
0.0104505
0.0101988
0.00998189
0.00976906
0.00955282
0.00934179
0.0091354
0.00892682
0.00872073
0.00853007
0.0083594
0.00820129
0.00804846
0.00790188
0.00776499
0.0076352
0.0075066
0.00737749
0.00725084
0.00712844
0.0070094
0.0068925
0.00677732
0.00666356
0.00655183
0.00644298
0.00633633
0.00623022
0.00612469
0.00602069
0.00591855
0.00581738
0.00571643
0.00561546
0.00551504
0.00541534
0.0053162
0.00521704
0.005118
0.00501938
0.00492151
0.0048239
0.00472641
0.00462902
0.00453223
0.00443554
0.00433855
0.00424077
0.00414291
0.00404477
0.003946
0.00384629
0.0037464
0.00364592
0.00354528
0.00344407
0.00334263
0.00324031
0.00313762
0.00303386
0.0029295
0.00282367
0.00271718
0.00260946
0.00250142
0.00239197
0.00228227
0.00217129
0.00205997
0.00194683
0.00183336
0.00171812
0.00160267
0.00148552
0.00136862
0.00125009
0.00113191
0.00101208
0.000892727
0.000771905
0.000652083
0.000531481
0.000412291
0.000293126
0.000175265
5.78269e-05
0.0198289
0.02131
0.0216985
0.0211577
0.0199797
0.0184869
0.0169519
0.0155403
0.0143175
0.0133019
0.0124902
0.0118569
0.0113625
0.0109656
0.0106387
0.0103689
0.0101357
0.00990929
0.00967925
0.00945564
0.00924139
0.0090283
0.00881682
0.00861836
0.00843943
0.00827478
0.00811692
0.0079653
0.00782315
0.0076891
0.00755755
0.00742571
0.00729591
0.00717057
0.00704921
0.00693017
0.00681276
0.00669691
0.00658331
0.00647273
0.00636454
0.00625695
0.00614994
0.00604456
0.00594119
0.00583889
0.00573688
0.00563493
0.0055336
0.00543311
0.00533329
0.00523345
0.00513372
0.00503446
0.00493604
0.00483789
0.00473982
0.00464184
0.00454451
0.00444732
0.00434982
0.00425157
0.00415329
0.00405477
0.00395565
0.0038556
0.00375541
0.00365465
0.0035537
0.00345218
0.00335041
0.0032478
0.00314482
0.00304077
0.00293613
0.0028301
0.0027234
0.00261548
0.00250722
0.00239759
0.00228765
0.00217647
0.0020649
0.00195161
0.00183791
0.00172255
0.00160688
0.00148962
0.00137246
0.00125383
0.00113535
0.00101542
0.000895753
0.000774848
0.000654657
0.000533909
0.00041425
0.000294767
0.000176306
5.82965e-05
0.0194774
0.0210784
0.0215592
0.0210872
0.0199609
0.0185046
0.0169944
0.0156066
0.0144139
0.0134307
0.0126468
0.012033
0.0115496
0.0111551
0.0108209
0.0105368
0.0102891
0.0100507
0.00980785
0.0095713
0.009348
0.00912983
0.00891337
0.00870786
0.00852101
0.00834961
0.00818659
0.00803019
0.00788291
0.00774422
0.00760941
0.00747502
0.00734229
0.00721387
0.00709
0.00696888
0.00684927
0.0067312
0.00661566
0.00650333
0.00639352
0.00628443
0.00617592
0.00606914
0.00596452
0.00586107
0.00575798
0.00565501
0.00555274
0.00545145
0.00535092
0.00525037
0.00514994
0.00505003
0.00495103
0.00485232
0.00475366
0.00465509
0.0045572
0.00445949
0.00436148
0.00426274
0.00416404
0.00406512
0.00396563
0.00386525
0.00376472
0.00366367
0.00356242
0.00346056
0.00335846
0.00325556
0.00315227
0.00304793
0.00294301
0.00283676
0.00272983
0.00262171
0.00251321
0.00240341
0.00229321
0.00218184
0.00207001
0.00195656
0.00184262
0.00172713
0.00161122
0.00149386
0.00137644
0.00125769
0.00113891
0.00101887
0.000898886
0.000777869
0.000657318
0.000536383
0.000416271
0.000296423
0.000177371
5.87523e-05
0.019143
0.0208596
0.021429
0.0210219
0.0199436
0.018522
0.0170346
0.0156657
0.0144968
0.0135418
0.0127844
0.0121908
0.0117202
0.0113319
0.0109958
0.0107015
0.0104414
0.0101923
0.00993801
0.0096885
0.0094551
0.00923123
0.00901005
0.00879816
0.00860387
0.00842566
0.00825728
0.00809628
0.00794419
0.00780073
0.00766225
0.00752528
0.00738992
0.00725837
0.00713172
0.00700846
0.00688677
0.00676641
0.00664881
0.00653475
0.00642329
0.00631266
0.00620266
0.00609443
0.00598853
0.00588392
0.00577973
0.00567571
0.00557248
0.00547036
0.00536909
0.00526783
0.00516666
0.00506609
0.00496649
0.00486721
0.00476794
0.00466875
0.0045703
0.00447206
0.00437352
0.0042743
0.00417515
0.00407582
0.00397595
0.00387522
0.00377435
0.003673
0.00357142
0.00346924
0.00336679
0.00326359
0.00315998
0.00305535
0.00295013
0.00284366
0.00273649
0.00262817
0.00251942
0.00240943
0.00229897