/*--------------------------------*- C++ -*----------------------------------*\
| =========                 |                                                 |
| \\      /  F ield         | OpenFOAM: The Open Source CFD Toolbox           |
|  \\    /   O peration     | Version:  5.x                                   |
|   \\  /    A nd           | Web:      www.OpenFOAM.org                      |
|    \\/     M anipulation  |                                                 |
\*---------------------------------------------------------------------------*/
FoamFile
{
    version     2.0;
    format      ascii;
    class       surfaceScalarField;
    location    "0.6";
    object      phi;
}
// * * * * * * * * * * * * * * * * * * * * * * * * * * * * * * * * * * * * * //

dimensions      [0 3 -1 0 0 0 0];

internalField   nonuniform List<scalar> 
21390
(
7.4115e-08
6.72799e-09
-8.0843e-08
6.5741e-08
8.37407e-09
5.75026e-08
8.23837e-09
4.94873e-08
8.01526e-09
4.17174e-08
7.76993e-09
3.45151e-08
7.2023e-09
2.83756e-08
6.13947e-09
2.36995e-08
4.67611e-09
2.05457e-08
3.15385e-09
1.85706e-08
1.97503e-09
1.73183e-08
1.25236e-09
1.64705e-08
8.47759e-10
1.58431e-08
6.27473e-10
1.5324e-08
5.19043e-10
1.48495e-08
4.74514e-10
1.4393e-08
4.56543e-10
1.39484e-08
4.44556e-10
1.35183e-08
4.3014e-10
1.31069e-08
4.11389e-10
1.27175e-08
3.89354e-10
1.23516e-08
3.65894e-10
1.2009e-08
3.4264e-10
1.16885e-08
3.20437e-10
1.1389e-08
2.99529e-10
1.11089e-08
2.80088e-10
1.08466e-08
2.62377e-10
1.05998e-08
2.4675e-10
1.03665e-08
2.33293e-10
1.01448e-08
2.21682e-10
9.93354e-09
2.1129e-10
9.73172e-09
2.01814e-10
9.53859e-09
1.93129e-10
9.35336e-09
1.85233e-10
9.17556e-09
1.77798e-10
9.00485e-09
1.70712e-10
8.84097e-09
1.63886e-10
8.68336e-09
1.5761e-10
8.53151e-09
1.51848e-10
8.38486e-09
1.46652e-10
8.24315e-09
1.41707e-10
8.10608e-09
1.37068e-10
7.97352e-09
1.32557e-10
7.84515e-09
1.28373e-10
7.72094e-09
1.24207e-10
7.60057e-09
1.20375e-10
7.48381e-09
1.16757e-10
7.37028e-09
1.13534e-10
7.25995e-09
1.10324e-10
7.15248e-09
1.07474e-10
7.04792e-09
1.04561e-10
6.94605e-09
1.01866e-10
6.847e-09
9.90514e-11
6.75039e-09
9.6612e-11
6.65627e-09
9.41183e-11
6.56429e-09
9.19823e-11
6.47466e-09
8.96326e-11
6.38711e-09
8.75502e-11
6.30187e-09
8.52361e-11
6.2185e-09
8.33657e-11
6.13717e-09
8.13315e-11
6.05741e-09
7.97648e-11
5.97955e-09
7.78599e-11
5.90316e-09
7.63835e-11
5.8286e-09
7.45646e-11
5.75537e-09
7.32268e-11
5.68382e-09
7.1551e-11
5.61341e-09
7.04121e-11
5.5447e-09
6.87143e-11
5.47716e-09
6.75323e-11
5.41129e-09
6.58762e-11
5.34636e-09
6.4927e-11
5.28295e-09
6.34078e-11
5.22043e-09
6.2517e-11
5.15946e-09
6.09707e-11
5.09918e-09
6.02801e-11
5.04028e-09
5.89028e-11
4.98201e-09
5.82749e-11
4.92523e-09
5.67783e-11
4.86898e-09
5.62521e-11
4.81413e-09
5.48489e-11
4.75975e-09
5.43749e-11
4.70683e-09
5.29183e-11
4.65421e-09
5.26223e-11
4.60296e-09
5.12489e-11
4.55193e-09
5.10371e-11
4.50227e-09
4.96549e-11
4.45271e-09
4.95577e-11
4.40455e-09
4.81637e-11
4.35643e-09
4.81159e-11
4.30969e-09
4.67464e-11
4.26287e-09
4.68146e-11
4.21736e-09
4.55139e-11
4.17168e-09
4.56752e-11
4.12718e-09
4.45007e-11
4.08253e-09
4.4648e-11
4.03882e-09
4.3713e-11
3.99505e-09
4.37724e-11
3.95168e-09
4.33682e-11
3.90864e-09
4.30432e-11
4.52549e-11
8.53881e-08
6.16366e-09
-8.48237e-08
8.44954e-08
9.26677e-09
8.26399e-08
1.00938e-08
8.02433e-08
1.04119e-08
7.73036e-08
1.07096e-08
7.38511e-08
1.06549e-08
7.00381e-08
9.95248e-09
6.61319e-08
8.58224e-09
6.24448e-08
6.84099e-09
5.91693e-08
5.25056e-09
5.62917e-08
4.12994e-09
5.3724e-08
3.4154e-09
5.14147e-08
2.93679e-09
4.93356e-08
2.59812e-09
4.74543e-08
2.35591e-09
4.57415e-08
2.16931e-09
4.4173e-08
2.01301e-09
4.27292e-08
1.87399e-09
4.13943e-08
1.74631e-09
4.01556e-08
1.62797e-09
3.90026e-08
1.51893e-09
3.79262e-08
1.4191e-09
3.6919e-08
1.32756e-09
3.59756e-08
1.24299e-09
3.50905e-08
1.16512e-09
3.42586e-08
1.09432e-09
3.34739e-08
1.03139e-09
3.27312e-08
9.76038e-10
3.20257e-08
9.27194e-10
3.1354e-08
8.83027e-10
3.0713e-08
8.42751e-10
3.01005e-08
8.05679e-10
2.9514e-08
7.7169e-10
2.89521e-08
7.39749e-10
2.8413e-08
7.0976e-10
2.78955e-08
6.81369e-10
2.73977e-08
6.55403e-10
2.69181e-08
6.31454e-10
2.64551e-08
6.09691e-10
2.60078e-08
5.89004e-10
2.55752e-08
5.69674e-10
2.51568e-08
5.50952e-10
2.47516e-08
5.33539e-10
2.43594e-08
5.16474e-10
2.39789e-08
5.00797e-10
2.36099e-08
4.85775e-10
2.32513e-08
4.72168e-10
2.29029e-08
4.58694e-10
2.25639e-08
4.46508e-10
2.22343e-08
4.34165e-10
2.19133e-08
4.22846e-10
2.1601e-08
4.113e-10
2.12965e-08
4.01183e-10
2.09997e-08
3.90857e-10
2.07099e-08
3.81825e-10
2.04274e-08
3.72095e-10
2.01515e-08
3.63516e-10
1.98825e-08
3.54226e-10
1.96193e-08
3.46548e-10
1.93624e-08
3.38191e-10
1.91107e-08
3.31462e-10
1.8865e-08
3.23578e-10
1.86241e-08
3.17329e-10
1.83888e-08
3.09853e-10
1.81578e-08
3.04218e-10
1.79321e-08
2.97266e-10
1.77102e-08
2.92261e-10
1.74936e-08
2.85337e-10
1.72806e-08
2.80492e-10
1.70727e-08
2.73856e-10
1.68678e-08
2.69784e-10
1.66677e-08
2.63516e-10
1.64705e-08
2.59767e-10
1.62779e-08
2.53566e-10
1.60876e-08
2.50529e-10
1.59018e-08
2.44718e-10
1.57181e-08
2.4197e-10
1.55389e-08
2.35927e-10
1.53615e-08
2.33667e-10
1.51886e-08
2.2782e-10
1.5017e-08
2.25891e-10
1.485e-08
2.19943e-10
1.4684e-08
2.18694e-10
1.45223e-08
2.12863e-10
1.43613e-08
2.12055e-10
1.42049e-08
2.06121e-10
1.40486e-08
2.05858e-10
1.3897e-08
1.9976e-10
1.37451e-08
1.99954e-10
1.35981e-08
1.93772e-10
1.34503e-08
1.94622e-10
1.33074e-08
1.88401e-10
1.31632e-08
1.89909e-10
1.30239e-08
1.83722e-10
1.28829e-08
1.85719e-10
1.27467e-08
1.79847e-10
1.26083e-08
1.82258e-10
1.24741e-08
1.77476e-10
1.23377e-08
1.79495e-10
1.821e-10
8.92102e-08
5.69067e-09
-8.87372e-08
8.96535e-08
8.82346e-09
8.96154e-08
1.01319e-08
8.93932e-08
1.06341e-08
8.90374e-08
1.10653e-08
8.84107e-08
1.12817e-08
8.73965e-08
1.09667e-08
8.59974e-08
9.98128e-09
8.43355e-08
8.50292e-09
8.25908e-08
6.99524e-09
8.08631e-08
5.85769e-09
7.91514e-08
5.12708e-09
7.74428e-08
4.64534e-09
7.57458e-08
4.29518e-09
7.40732e-08
4.02846e-09
7.2432e-08
3.81052e-09
7.08259e-08
3.61909e-09
6.92575e-08
3.44242e-09
6.77286e-08
3.27517e-09
6.62411e-08
3.11552e-09
6.4796e-08
2.964e-09
6.33944e-08
2.82074e-09
6.2037e-08
2.6849e-09
6.07253e-08
2.55475e-09
5.94599e-08
2.43049e-09
5.8241e-08
2.31317e-09
5.70675e-08
2.20497e-09
5.59375e-08
2.10597e-09
5.48493e-08
2.01542e-09
5.38014e-08
1.93096e-09
5.27919e-08
1.8522e-09
5.18194e-08
1.77817e-09
5.0882e-08
1.70911e-09
4.99785e-08
1.64331e-09
4.91071e-08
1.58115e-09
4.82665e-08
1.52195e-09
4.74544e-08
1.46748e-09
4.6669e-08
1.41684e-09
4.59081e-08
1.37067e-09
4.51703e-08
1.32674e-09
4.44542e-08
1.28582e-09
4.3759e-08
1.24611e-09
4.30834e-08
1.20913e-09
4.2427e-08
1.17285e-09
4.17884e-08
1.13941e-09
4.11673e-08
1.10693e-09
4.05622e-08
1.07721e-09
3.99733e-08
1.0476e-09
3.93993e-08
1.02057e-09
3.88403e-08
9.93104e-10
3.82952e-08
9.67953e-10
3.77641e-08
9.42393e-10
3.72454e-08
9.19932e-10
3.67393e-08
8.96977e-10
3.62443e-08
8.76827e-10
3.57611e-08
8.55231e-10
3.52884e-08
8.3628e-10
3.48268e-08
8.15827e-10
3.43745e-08
7.98785e-10
3.39326e-08
7.80081e-10
3.34993e-08
7.6478e-10
3.30759e-08
7.47005e-10
3.26604e-08
7.3282e-10
3.22543e-08
7.15947e-10
3.18554e-08
7.03152e-10
3.14652e-08
6.87391e-10
3.10816e-08
6.75883e-10
3.07066e-08
6.60317e-10
3.03377e-08
6.49455e-10
2.9977e-08
6.34564e-10
2.96215e-08
6.25214e-10
2.92741e-08
6.10941e-10
2.89315e-08
6.02395e-10
2.85967e-08
5.88382e-10
2.82659e-08
5.81309e-10
2.79427e-08
5.67907e-10
2.76231e-08
5.6158e-10
2.73111e-08
5.47875e-10
2.70021e-08
5.42682e-10
2.67007e-08
5.29222e-10
2.64017e-08
5.24906e-10
2.61104e-08
5.11263e-10
2.58207e-08
5.08425e-10
2.55387e-08
4.94828e-10
2.52576e-08
4.93118e-10
2.49846e-08
4.79188e-10
2.47116e-08
4.78816e-10
2.4447e-08
4.64375e-10
2.41816e-08
4.65296e-10
2.3925e-08
4.50419e-10
2.36666e-08
4.53036e-10
2.34173e-08
4.37702e-10
2.31651e-08
4.4212e-10
2.29224e-08
4.26347e-10
2.26757e-08
4.32443e-10
2.24389e-08
4.16654e-10
2.21967e-08
4.24433e-10
2.19642e-08
4.10049e-10
2.17258e-08
4.17893e-10
4.16662e-10
9.29883e-08
5.48345e-09
-9.27811e-08
9.35331e-08
8.27865e-09
9.38176e-08
9.84746e-09
9.40077e-08
1.04439e-08
9.42638e-08
1.08093e-08
9.45106e-08
1.10348e-08
9.46001e-08
1.08772e-08
9.44323e-08
1.0149e-08
9.3997e-08
8.93829e-09
9.33871e-08
7.60506e-09
9.27063e-08
6.53857e-09
9.1983e-08
5.85035e-09
9.12064e-08
5.42192e-09
9.03766e-08
5.12501e-09
8.95051e-08
4.89999e-09
8.86001e-08
4.7155e-09
8.76658e-08
4.55334e-09
8.67049e-08
4.40335e-09
8.57194e-08
4.26074e-09
8.47117e-08
4.12316e-09
8.36846e-08
3.99111e-09
8.2641e-08
3.86429e-09
8.1584e-08
3.74191e-09
8.05172e-08
3.62161e-09
7.94438e-08
3.50387e-09
7.83673e-08
3.38965e-09
7.72902e-08
3.28206e-09
7.62151e-08
3.18109e-09
7.51441e-08
3.08644e-09
7.408e-08
2.99508e-09
7.30249e-08
2.90723e-09
7.19816e-08
2.82147e-09
7.09519e-08
2.7388e-09
6.99384e-08
2.65684e-09
6.89425e-08
2.57705e-09
6.79659e-08
2.49854e-09
6.70087e-08
2.42473e-09
6.60711e-08
2.35443e-09
6.51521e-08
2.28967e-09
6.42516e-08
2.22719e-09
6.33685e-08
2.16895e-09
6.25027e-08
2.11192e-09
6.1653e-08
2.05883e-09
6.08197e-08
2.00615e-09
6.00015e-08
1.95756e-09
5.9199e-08
1.90942e-09
5.84112e-08
1.86503e-09
5.7639e-08
1.81983e-09
5.68814e-08
1.77818e-09
5.61396e-08
1.7349e-09
5.54125e-08
1.69509e-09
5.47009e-08
1.65397e-09
5.4003e-08
1.61782e-09
5.33195e-08
1.58043e-09
5.26485e-08
1.54783e-09
5.19911e-08
1.51264e-09
5.13453e-08
1.48213e-09
5.07123e-08
1.44884e-09
5.00898e-08
1.42128e-09
4.94794e-08
1.39041e-09
4.88791e-08
1.36516e-09
4.82907e-08
1.33534e-09
4.77119e-08
1.31166e-09
4.71449e-08
1.28299e-09
4.65866e-08
1.26142e-09
4.60395e-08
1.23444e-09
4.55005e-08
1.21493e-09
4.49725e-08
1.18834e-09
4.44518e-08
1.17015e-09
4.39417e-08
1.14466e-09
4.34381e-08
1.12879e-09
4.2945e-08
1.10402e-09
4.24579e-08
1.08948e-09
4.19812e-08
1.06509e-09
4.15097e-08
1.0529e-09
4.10483e-08
1.02924e-09
4.05915e-08
1.01843e-09
4.01449e-08
9.94395e-10
3.97021e-08
9.85574e-10
3.92696e-08
9.617e-10
3.884e-08
9.54494e-10
3.8421e-08
9.30236e-10
3.80039e-08
9.25519e-10
3.75977e-08
9.01069e-10
3.71923e-08
8.98462e-10
3.67982e-08
8.73279e-10
3.64039e-08
8.73127e-10
3.60215e-08
8.46852e-10
3.56376e-08
8.49203e-10
3.52661e-08
8.21854e-10
3.48918e-08
8.2738e-10
3.45306e-08
7.98829e-10
3.4165e-08
8.07813e-10
3.38133e-08
7.77974e-10
3.34554e-08
7.90401e-10
3.31122e-08
7.59847e-10
3.27608e-08
7.7579e-10
3.2424e-08
7.46837e-10
3.20784e-08
7.63539e-10
7.53776e-10
9.69914e-08
5.40523e-09
-9.69132e-08
9.74774e-08
7.7927e-09
9.78526e-08
9.47224e-09
9.81087e-08
1.01878e-08
9.84234e-08
1.04946e-08
9.88019e-08
1.06563e-08
9.91417e-08
1.05375e-08
9.93355e-08
9.95515e-09
9.9333e-08
8.94084e-09
9.91774e-08
7.76064e-09
9.89567e-08
6.7593e-09
9.87133e-08
6.0937e-09
9.84419e-08
5.69339e-09
9.8134e-08
5.43288e-09
9.77935e-08
5.24044e-09
9.74258e-08
5.08325e-09
9.70324e-08
4.94675e-09
9.66128e-08
4.82298e-09
9.61651e-08
4.70835e-09
9.56885e-08
4.59982e-09
9.51819e-08
4.49769e-09
9.46454e-08
4.40076e-09
9.4079e-08
4.30835e-09
9.34833e-08
4.21731e-09
9.28588e-08
4.12839e-09
9.22066e-08
4.04184e-09
9.15273e-08
3.96136e-09
9.08222e-08
3.88618e-09
9.00922e-08
3.81646e-09
8.93392e-08
3.74801e-09
8.8565e-08
3.68152e-09
8.77721e-08
3.61434e-09
8.69629e-08
3.54797e-09
8.61411e-08
3.47862e-09
8.53096e-08
3.40858e-09
8.44722e-08
3.33595e-09
8.36311e-08
3.2658e-09
8.27893e-08
3.19629e-09
8.19474e-08
3.13149e-09
8.11075e-08
3.06713e-09
8.02693e-08
3.00715e-09
7.9434e-08
2.94724e-09
7.86007e-08
2.8921e-09
7.77705e-08
2.83637e-09
7.69422e-08
2.78582e-09
7.61172e-08
2.73447e-09
7.52946e-08
2.6876e-09
7.44765e-08
2.63791e-09
7.36627e-08
2.59204e-09
7.28558e-08
2.54182e-09
7.20556e-08
2.49521e-09
7.12649e-08
2.4447e-09
7.04825e-08
2.40024e-09
6.97104e-08
2.3525e-09
6.89468e-08
2.31144e-09
6.81936e-08
2.26589e-09
6.74482e-08
2.22744e-09
6.67127e-08
2.18437e-09
6.59842e-08
2.14982e-09
6.5265e-08
2.10961e-09
6.45526e-08
2.07756e-09
6.38501e-08
2.03778e-09
6.31549e-08
2.00692e-09
6.24704e-08
1.9675e-09
6.17932e-08
1.93855e-09
6.1127e-08
1.90064e-09
6.04678e-08
1.87412e-09
5.98197e-08
1.83649e-09
5.91778e-08
1.81198e-09
5.85467e-08
1.7758e-09
5.79211e-08
1.75443e-09
5.73063e-08
1.7188e-09
5.66967e-08
1.69902e-09
5.60984e-08
1.66346e-09
5.55046e-08
1.64667e-09
5.49223e-08
1.61155e-09
5.4344e-08
1.5967e-09
5.37774e-08
1.56098e-09
5.32139e-08
1.54908e-09
5.26624e-08
1.51324e-09
5.21131e-08
1.50376e-09
5.15763e-08
1.46707e-09
5.10407e-08
1.46112e-09
5.05181e-08
1.42367e-09
4.99956e-08
1.42094e-09
4.94868e-08
1.38212e-09
4.89767e-08
1.38317e-09
4.84812e-08
1.3424e-09
4.7983e-08
1.34742e-09
4.75002e-08
1.3046e-09
4.70131e-08
1.31454e-09
4.65425e-08
1.26942e-09
4.60654e-08
1.28483e-09
4.56062e-08
1.23723e-09
4.51384e-08
1.25823e-09
4.46893e-08
1.2089e-09
4.42295e-08
1.23556e-09
4.37884e-08
1.18794e-09
4.33357e-08
1.21629e-09
1.19338e-09
1.01166e-07
5.37644e-09
-1.01137e-07
1.01566e-07
7.39296e-09
1.01978e-07
9.0603e-09
1.02276e-07
9.88966e-09
1.02579e-07
1.01914e-08
1.02941e-07
1.02946e-08
1.03304e-07
1.01742e-08
1.03572e-07
9.6872e-09
1.03687e-07
8.82626e-09
1.03666e-07
7.78147e-09
1.03585e-07
6.83974e-09
1.03497e-07
6.18214e-09
1.03406e-07
5.7848e-09
1.03301e-07
5.53743e-09
1.03182e-07
5.35953e-09
1.03052e-07
5.21308e-09
1.02913e-07
5.08545e-09
1.02765e-07
4.97095e-09
1.02606e-07
4.86818e-09
1.02432e-07
4.77377e-09
1.02241e-07
4.68814e-09
1.02033e-07
4.60903e-09
1.01805e-07
4.53624e-09
1.01556e-07
4.46583e-09
1.01286e-07
4.39924e-09
1.00992e-07
4.33581e-09
1.00673e-07
4.28004e-09
1.00329e-07
4.23019e-09
9.99582e-08
4.18725e-09
9.95604e-08
4.14577e-09
9.91348e-08
4.10719e-09
9.86819e-08
4.06724e-09
9.82017e-08
4.02809e-09
9.76964e-08
3.98395e-09
9.71671e-08
3.93789e-09
9.6617e-08
3.88603e-09
9.6048e-08
3.83486e-09
9.54633e-08
3.78097e-09
9.48642e-08
3.73064e-09
9.42531e-08
3.67816e-09
9.36304e-08
3.62993e-09
9.29976e-08
3.58003e-09
9.23538e-08
3.53585e-09
9.17003e-08
3.48991e-09
9.10353e-08
3.45077e-09
9.036e-08
3.40983e-09
8.96726e-08
3.37496e-09
8.8975e-08
3.33554e-09
8.82662e-08
3.30086e-09
8.75494e-08
3.25862e-09
8.68247e-08
3.21985e-09
8.60964e-08
3.17299e-09
8.53645e-08
3.13218e-09
8.46328e-08
3.08415e-09
8.39004e-08
3.04388e-09
8.31704e-08
2.99587e-09
8.24405e-08
2.95734e-09
8.17133e-08
2.91162e-09
8.09853e-08
2.87781e-09
8.02593e-08
2.83561e-09
7.95319e-08
2.80489e-09
7.88072e-08
2.76253e-09
7.8082e-08
2.73215e-09
7.73613e-08
2.68817e-09
7.6642e-08
2.65787e-09
7.59292e-08
2.61341e-09
7.52189e-08
2.58445e-09
7.45164e-08
2.53903e-09
7.38162e-08
2.51217e-09
7.31237e-08
2.46829e-09
7.24326e-08
2.44551e-09
7.17494e-08
2.40199e-09
7.10675e-08
2.38093e-09
7.03944e-08
2.33654e-09
6.97227e-08
2.31841e-09
6.9061e-08
2.27327e-09
6.84007e-08
2.25696e-09
6.77513e-08
2.21042e-09
6.71024e-08
2.19792e-09
6.64649e-08
2.15076e-09
6.58272e-08
2.1415e-09
6.52015e-08
2.09273e-09
6.45748e-08
2.08784e-09
6.39613e-08
2.03719e-09
6.33458e-08
2.0364e-09
6.27446e-08
1.9833e-09
6.21402e-08
1.98763e-09
6.15511e-08
1.93144e-09
6.09573e-08
1.94127e-09
6.03802e-08
1.88169e-09
5.97965e-08
1.89821e-09
5.92311e-08
1.83484e-09
5.8657e-08
1.85889e-09
5.81027e-08
1.79153e-09
5.75375e-08
1.82343e-09
5.69933e-08
1.7531e-09
5.6436e-08
1.79284e-09
5.58998e-08
1.72419e-09
5.53494e-08
1.76669e-09
1.72733e-09
1.05478e-07
5.35746e-09
-1.05459e-07
1.05797e-07
7.07431e-09
1.06211e-07
8.64643e-09
1.06548e-07
9.55238e-09
1.06851e-07
9.88878e-09
1.07187e-07
9.95841e-09
1.07536e-07
9.82541e-09
1.07816e-07
9.40676e-09
1.07969e-07
8.6735e-09
1.07995e-07
7.75548e-09
1.07955e-07
6.87913e-09
1.07907e-07
6.2303e-09
1.07866e-07
5.82579e-09
1.07825e-07
5.579e-09
1.07778e-07
5.40671e-09
1.07727e-07
5.26362e-09
1.07676e-07
5.13662e-09
1.07625e-07
5.02136e-09
1.07574e-07
4.91947e-09
1.0752e-07
4.82758e-09
1.07462e-07
4.74671e-09
1.07397e-07
4.67334e-09
1.07326e-07
4.60811e-09
1.07245e-07
4.54604e-09
1.07155e-07
4.48971e-09
1.07053e-07
4.43737e-09
1.06939e-07
4.39478e-09
1.0681e-07
4.35901e-09
1.06665e-07
4.33247e-09
1.06502e-07
4.30835e-09
1.0632e-07
4.28943e-09
1.06117e-07
4.26968e-09
1.05893e-07
4.25247e-09
1.05647e-07
4.22977e-09
1.05379e-07
4.20587e-09
1.05091e-07
4.1743e-09
1.04783e-07
4.1431e-09
1.04457e-07
4.10653e-09
1.04114e-07
4.07322e-09
1.03757e-07
4.03538e-09
1.03385e-07
4.00221e-09
1.02999e-07
3.96558e-09
1.02599e-07
3.93607e-09
1.02185e-07
3.90367e-09
1.01756e-07
3.88037e-09
1.01311e-07
3.85464e-09
1.00848e-07
3.83794e-09
1.00368e-07
3.81603e-09
9.98667e-08
3.80163e-09
9.93477e-08
3.77764e-09
9.88092e-08
3.75837e-09
9.82553e-08
3.72688e-09
9.7686e-08
3.70154e-09
9.71062e-08
3.66388e-09
9.65156e-08
3.63446e-09
9.59188e-08
3.59268e-09
9.53138e-08
3.56236e-09
9.47041e-08
3.52133e-09
9.4086e-08
3.49591e-09
9.34623e-08
3.45927e-09
9.28285e-08
3.4387e-09
9.21882e-08
3.40288e-09
9.15371e-08
3.38322e-09
9.08809e-08
3.34442e-09
9.02162e-08
3.32254e-09
8.95498e-08
3.27976e-09
8.88781e-08
3.25618e-09
8.8208e-08
3.20913e-09
8.7534e-08
3.18615e-09
8.68626e-08
3.13974e-09
8.61864e-08
3.12167e-09
8.55125e-08
3.07593e-09
8.4833e-08
3.06039e-09
8.41565e-08
3.01301e-09
8.3475e-08
2.99997e-09
8.27986e-08
2.94961e-09
8.21186e-08
2.93702e-09
8.14458e-08
2.88315e-09
8.07693e-08
2.87446e-09
8.0101e-08
2.81908e-09
7.94279e-08
2.81454e-09
7.87638e-08
2.75686e-09
7.80942e-08
2.75747e-09
7.74351e-08
2.69622e-09
7.67704e-08
2.70117e-09
7.61181e-08
2.63561e-09
7.54592e-08
2.64654e-09
7.48142e-08
2.57644e-09
7.4161e-08
2.59438e-09
7.35234e-08
2.51939e-09
7.2876e-08
2.54554e-09
7.2246e-08
2.46484e-09
7.16047e-08
2.50019e-09
7.09825e-08
2.41372e-09
7.0347e-08
2.45892e-09
6.9732e-08
2.36817e-09
6.91017e-08
2.42308e-09
6.8492e-08
2.33392e-09
6.78662e-08
2.39245e-09
2.33618e-09
1.09916e-07
5.33304e-09
-1.09892e-07
1.1017e-07
6.82101e-09
1.10563e-07
8.25306e-09
1.10927e-07
9.18826e-09
1.11241e-07
9.57488e-09
1.11562e-07
9.63707e-09
1.11892e-07
9.49533e-09
1.12173e-07
9.1261e-09
1.12347e-07
8.49918e-09
1.12404e-07
7.6988e-09
1.12387e-07
6.89581e-09
1.12354e-07
6.26367e-09
1.12328e-07
5.85139e-09
1.12308e-07
5.59937e-09
1.12286e-07
5.42926e-09
1.12261e-07
5.28846e-09
1.12236e-07
5.16117e-09
1.12215e-07
5.04274e-09
1.12196e-07
4.93802e-09
1.1218e-07
4.84399e-09
1.12164e-07
4.76293e-09
1.12147e-07
4.68975e-09
1.12129e-07
4.62617e-09
1.12109e-07
4.56584e-09
1.12086e-07
4.51269e-09
1.1206e-07
4.46357e-09
1.12029e-07
4.42588e-09
1.11993e-07
4.39523e-09
1.11949e-07
4.37588e-09
1.11898e-07
4.35944e-09
1.11837e-07
4.35064e-09
1.11765e-07
4.34141e-09
1.11681e-07
4.33699e-09
1.11584e-07
4.32692e-09
1.11472e-07
4.31731e-09
1.11348e-07
4.29882e-09
1.11209e-07
4.28145e-09
1.11059e-07
4.25658e-09
1.10897e-07
4.23557e-09
1.10724e-07
4.20797e-09
1.10541e-07
4.1861e-09
1.10347e-07
4.15898e-09
1.10142e-07
4.14075e-09
1.09928e-07
4.11829e-09
1.09701e-07
4.1075e-09
1.09462e-07
4.09352e-09
1.09208e-07
4.09219e-09
1.08938e-07
4.08548e-09
1.08649e-07
4.09057e-09
1.08341e-07
4.08537e-09
1.08012e-07
4.08817e-09
1.07663e-07
4.0758e-09
1.07293e-07
4.071e-09
1.06908e-07
4.04891e-09
1.06507e-07
4.03587e-09
1.06094e-07
4.00522e-09
1.05669e-07
3.98783e-09
1.05235e-07
3.95533e-09
1.04789e-07
3.94205e-09
1.04334e-07
3.91432e-09
1.03864e-07
3.90822e-09
1.03383e-07
3.88409e-09
1.02884e-07
3.88209e-09
1.02372e-07
3.85633e-09
1.01843e-07
3.85182e-09
1.01303e-07
3.81928e-09
1.0075e-07
3.80953e-09
1.00191e-07
3.76797e-09
9.9622e-08
3.75529e-09
9.90501e-08
3.7116e-09
9.84681e-08
3.7037e-09
9.78828e-08
3.66123e-09
9.72853e-08
3.65795e-09
9.66836e-08
3.61463e-09
9.60691e-08
3.61455e-09
9.54524e-08
3.56629e-09
9.48249e-08
3.56451e-09
9.4199e-08
3.50904e-09
9.35639e-08
3.50957e-09
9.29323e-08
3.45069e-09
9.22908e-08
3.45606e-09
9.16529e-08
3.39467e-09
9.10038e-08
3.4066e-09
9.03597e-08
3.34028e-09
8.97046e-08
3.35629e-09
8.90573e-08
3.28289e-09
8.83993e-08
3.3046e-09
8.77511e-08
3.22459e-09
8.7091e-08
3.25452e-09
8.6442e-08
3.1684e-09
8.57796e-08
3.20794e-09
8.51303e-08
3.11414e-09
8.44668e-08
3.16368e-09
8.38185e-08
3.06198e-09
8.31548e-08
3.12261e-09
8.25074e-08
3.01555e-09
8.18433e-08
3.08717e-09
8.11954e-08
2.9819e-09
8.05306e-08
3.05726e-09
2.98762e-09
1.14485e-07
5.30156e-09
-1.14453e-07
1.14691e-07
6.61469e-09
1.15051e-07
7.89303e-09
1.15426e-07
8.81331e-09
1.15756e-07
9.24532e-09
1.16071e-07
9.32163e-09
1.16384e-07
9.18219e-09
1.1666e-07
8.85053e-09
1.16848e-07
8.31059e-09
1.16932e-07
7.61558e-09
1.16937e-07
6.89085e-09
1.16916e-07
6.28479e-09
1.16898e-07
5.86882e-09
1.16888e-07
5.60897e-09
1.16879e-07
5.43883e-09
1.16867e-07
5.3007e-09
1.16853e-07
5.17488e-09
1.16841e-07
5.05423e-09
1.16833e-07
4.94657e-09
1.16828e-07
4.84934e-09
1.16824e-07
4.76689e-09
1.16821e-07
4.69238e-09
1.16818e-07
4.62888e-09
1.16816e-07
4.56822e-09
1.16813e-07
4.51592e-09
1.16809e-07
4.46697e-09
1.16804e-07
4.43073e-09
1.16799e-07
4.40093e-09
1.16791e-07
4.38408e-09
1.1678e-07
4.36983e-09
1.16765e-07
4.36532e-09
1.16747e-07
4.36018e-09
1.16722e-07
4.36204e-09
1.16691e-07
4.35775e-09
1.16652e-07
4.35582e-09
1.16607e-07
4.34379e-09
1.16555e-07
4.33416e-09
1.16496e-07
4.31505e-09
1.16431e-07
4.30094e-09
1.16361e-07
4.27822e-09
1.16284e-07
4.26276e-09
1.16203e-07
4.2401e-09
1.16115e-07
4.2283e-09
1.16023e-07
4.2105e-09
1.15924e-07
4.20682e-09
1.15819e-07
4.19857e-09
1.15704e-07
4.20646e-09
1.15581e-07
4.20841e-09
1.15445e-07
4.22685e-09
1.15296e-07
4.2347e-09
1.15129e-07
4.2551e-09
1.14946e-07
4.25843e-09
1.14745e-07
4.27214e-09
1.1453e-07
4.26442e-09
1.14298e-07
4.26738e-09
1.14056e-07
4.24766e-09
1.138e-07
4.24326e-09
1.13537e-07
4.21894e-09
1.13261e-07
4.21718e-09
1.12979e-07
4.19714e-09
1.12683e-07
4.20429e-09
1.12376e-07
4.19103e-09
1.12051e-07
4.20715e-09
1.1171e-07
4.1964e-09
1.1135e-07
4.21279e-09
1.10974e-07
4.19508e-09
1.10579e-07
4.20431e-09
1.10174e-07
4.17334e-09
1.09753e-07
4.17537e-09
1.09327e-07
4.13786e-09
1.08888e-07
4.14275e-09
1.08443e-07
4.10628e-09
1.07983e-07
4.11843e-09
1.07513e-07
4.0838e-09
1.07026e-07
4.10225e-09
1.06529e-07
4.06294e-09
1.06015e-07
4.07858e-09
1.05496e-07
4.02805e-09
1.04963e-07
4.04272e-09
1.04428e-07
3.98519e-09
1.0388e-07
4.00423e-09
1.03331e-07
3.94427e-09
1.02765e-07
3.97232e-09
1.02197e-07
3.90776e-09
1.01613e-07
3.94036e-09
1.0103e-07
3.8659e-09
1.00432e-07
3.90251e-09
9.98387e-08
3.81833e-09
9.92299e-08
3.86333e-09
9.86259e-08
3.77239e-09
9.80052e-08
3.82865e-09
9.73904e-08
3.72899e-09
9.67587e-08
3.79532e-09
9.61353e-08
3.68541e-09
9.54953e-08
3.76259e-09
9.48642e-08
3.64663e-09
9.42162e-08
3.73524e-09
9.35757e-08
3.62232e-09
9.29192e-08
3.71381e-09
3.63854e-09
1.19199e-07
5.26714e-09
-1.19165e-07
1.19373e-07
6.44052e-09
1.19696e-07
7.57076e-09
1.20067e-07
8.44194e-09
1.2041e-07
8.90225e-09
1.20725e-07
9.00693e-09
1.21024e-07
8.88259e-09
1.21291e-07
8.58349e-09
1.21488e-07
8.11435e-09
1.21593e-07
7.51062e-09
1.21619e-07
6.86431e-09
1.21611e-07
6.29286e-09
1.21601e-07
5.87938e-09
1.21598e-07
5.61147e-09
1.21598e-07
5.43915e-09
1.21595e-07
5.30338e-09
1.21589e-07
5.18093e-09
1.21583e-07
5.06004e-09
1.21579e-07
4.95055e-09
1.21578e-07
4.85023e-09
1.21579e-07
4.76632e-09
1.21581e-07
4.69032e-09
1.21583e-07
4.62688e-09
1.21585e-07
4.56568e-09
1.21587e-07
4.51398e-09
1.2159e-07
4.46456e-09
1.21592e-07
4.42887e-09
1.21594e-07
4.39852e-09
1.21596e-07
4.38244e-09
1.21598e-07
4.36804e-09
1.21598e-07
4.36515e-09
1.21597e-07
4.3609e-09
1.21593e-07
4.3656e-09
1.21588e-07
4.36329e-09
1.21578e-07
4.36527e-09
1.21566e-07
4.35582e-09
1.2155e-07
4.35026e-09
1.21532e-07
4.3333e-09
1.2151e-07
4.32276e-09
1.21487e-07
4.30162e-09
1.2146e-07
4.28944e-09
1.21432e-07
4.26803e-09
1.21401e-07
4.25945e-09
1.21369e-07
4.24279e-09
1.21333e-07
4.24246e-09
1.21296e-07
4.23554e-09
1.21255e-07
4.24771e-09
1.21211e-07
4.25262e-09
1.21159e-07
4.27818e-09
1.21102e-07
4.2925e-09
1.21033e-07
4.32402e-09
1.20954e-07
4.33701e-09
1.20862e-07
4.3639e-09
1.20761e-07
4.366e-09
1.20647e-07
4.38114e-09
1.20525e-07
4.36917e-09
1.20394e-07
4.37489e-09
1.20257e-07
4.3561e-09
1.20111e-07
4.36292e-09
1.19961e-07
4.34723e-09
1.19802e-07
4.36351e-09
1.19636e-07
4.35683e-09
1.19456e-07
4.38669e-09
1.19265e-07
4.38772e-09
1.19055e-07
4.42266e-09
1.18831e-07
4.41907e-09
1.18588e-07
4.44727e-09
1.18333e-07
4.42818e-09
1.18063e-07
4.44579e-09
1.17785e-07
4.41551e-09
1.17495e-07
4.43267e-09
1.172e-07
4.40187e-09
1.1689e-07
4.42818e-09
1.16571e-07
4.40266e-09
1.16233e-07
4.44018e-09
1.15883e-07
4.41318e-09
1.15512e-07
4.44936e-09
1.15131e-07
4.40882e-09
1.14734e-07
4.44047e-09
1.14331e-07
4.38814e-09
1.13913e-07
4.42175e-09
1.13491e-07
4.36639e-09
1.13052e-07
4.41181e-09
1.12605e-07
4.35444e-09
1.12138e-07
4.40691e-09
1.11666e-07
4.33861e-09
1.11175e-07
4.39291e-09
1.10683e-07
4.31087e-09
1.10174e-07
4.37178e-09
1.09664e-07
4.28245e-09
1.09136e-07
4.35652e-09
1.08606e-07
4.25954e-09
1.08057e-07
4.34399e-09
1.07508e-07
4.23494e-09
1.06942e-07
4.32807e-09
1.06376e-07
4.21251e-09
1.05795e-07
4.31629e-09
1.05211e-07
4.20672e-09
1.04612e-07
4.31219e-09
4.2418e-09
1.24076e-07
5.23728e-09
-1.24046e-07
1.24228e-07
6.2882e-09
1.24515e-07
7.28367e-09
1.24873e-07
8.08408e-09
1.25223e-07
8.55235e-09
1.2554e-07
8.69041e-09
1.25829e-07
8.59291e-09
1.26086e-07
8.3264e-09
1.26285e-07
7.91608e-09
1.26405e-07
7.38983e-09
1.26452e-07
6.81772e-09
1.26458e-07
6.28729e-09
1.26454e-07
5.88299e-09
1.26456e-07
5.60907e-09
1.26463e-07
5.43276e-09
1.26468e-07
5.29814e-09
1.26469e-07
5.18017e-09
1.26468e-07
5.06105e-09
1.26467e-07
4.95125e-09
1.26469e-07
4.84836e-09
1.26472e-07
4.76308e-09
1.26477e-07
4.68567e-09
1.26481e-07
4.6225e-09
1.26486e-07
4.561e-09
1.2649e-07
4.51016e-09
1.26494e-07
4.46039e-09
1.26498e-07
4.42522e-09
1.26502e-07
4.39404e-09
1.26506e-07
4.3782e-09
1.26511e-07
4.3628e-09
1.26516e-07
4.36037e-09
1.26522e-07
4.35557e-09
1.26526e-07
4.36145e-09
1.2653e-07
4.35927e-09
1.26532e-07
4.36325e-09
1.26533e-07
4.35451e-09
1.26532e-07
4.35129e-09
1.2653e-07
4.3349e-09
1.26527e-07
4.32648e-09
1.26523e-07
4.3056e-09
1.26517e-07
4.29539e-09
1.26511e-07
4.27399e-09
1.26503e-07
4.26728e-09
1.26495e-07
4.25039e-09
1.26486e-07
4.25174e-09
1.26477e-07
4.24424e-09
1.26467e-07
4.25815e-09
1.26457e-07
4.26294e-09
1.26443e-07
4.29163e-09
1.26428e-07
4.3079e-09
1.26406e-07
4.34534e-09
1.26381e-07
4.36282e-09
1.26347e-07
4.39763e-09
1.26308e-07
4.405e-09
1.26261e-07
4.42796e-09
1.2621e-07
4.42024e-09
1.26152e-07
4.43266e-09
1.26092e-07
4.41671e-09
1.26026e-07
4.42901e-09
1.25958e-07
4.4148e-09
1.25885e-07
4.43614e-09
1.2581e-07
4.43177e-09
1.25727e-07
4.46976e-09
1.25638e-07
4.47754e-09
1.25535e-07
4.52555e-09
1.25422e-07
4.53214e-09
1.25294e-07
4.57532e-09
1.25156e-07
4.56618e-09
1.25004e-07
4.59706e-09
1.24847e-07
4.57317e-09
1.24679e-07
4.59998e-09
1.24508e-07
4.57302e-09
1.24327e-07
4.60941e-09
1.24139e-07
4.59049e-09
1.23936e-07
4.64313e-09
1.23722e-07
4.62772e-09
1.23488e-07
4.68284e-09
1.23243e-07
4.65428e-09
1.22981e-07
4.70253e-09
1.22711e-07
4.65765e-09
1.22429e-07
4.70396e-09
1.22141e-07
4.65418e-09
1.21839e-07
4.71409e-09
1.21527e-07
4.66617e-09
1.21196e-07
4.73767e-09
1.20854e-07
4.68083e-09
1.20494e-07
4.75305e-09
1.20126e-07
4.67882e-09
1.19744e-07
4.75373e-09
1.19356e-07
4.67097e-09
1.18952e-07
4.76039e-09
1.18538e-07
4.67332e-09
1.18107e-07
4.77485e-09
1.17666e-07
4.67583e-09
1.17212e-07
4.78236e-09
1.16748e-07
4.67629e-09
1.16273e-07
4.79095e-09
1.15785e-07
4.69525e-09
1.15286e-07
4.81145e-09
4.7565e-09
1.29128e-07
5.22115e-09
-1.29112e-07
1.29267e-07
6.14901e-09
1.29525e-07
7.02579e-09
1.29864e-07
7.74487e-09
1.30213e-07
8.2036e-09
1.30532e-07
8.37192e-09
1.30815e-07
8.30981e-09
1.31062e-07
8.0788e-09
1.31259e-07
7.71948e-09
1.3139e-07
7.25881e-09
1.31454e-07
6.75372e-09
1.31473e-07
6.26795e-09
1.31477e-07
5.87921e-09
1.31483e-07
5.60288e-09
1.31494e-07
5.42176e-09
1.31506e-07
5.28662e-09
1.31513e-07
5.17315e-09
1.31516e-07
5.05747e-09
1.31519e-07
4.94905e-09
1.31522e-07
4.84443e-09
1.31528e-07
4.75787e-09
1.31534e-07
4.67911e-09
1.3154e-07
4.61633e-09
1.31547e-07
4.55476e-09
1.31552e-07
4.50497e-09
1.31557e-07
4.45513e-09
1.31562e-07
4.4206e-09
1.31567e-07
4.38865e-09
1.31572e-07
4.37287e-09
1.31579e-07
4.35624e-09
1.31586e-07
4.35372e-09
1.31593e-07
4.34774e-09
1.31601e-07
4.35389e-09
1.31609e-07
4.351e-09
1.31617e-07
4.35592e-09
1.31624e-07
4.3471e-09
1.3163e-07
4.34535e-09
1.31636e-07
4.32904e-09
1.3164e-07
4.32217e-09
1.31644e-07
4.30133e-09
1.31647e-07
4.29269e-09
1.3165e-07
4.27118e-09
1.31651e-07
4.26596e-09
1.31653e-07
4.24874e-09
1.31653e-07
4.2513e-09
1.31655e-07
4.24293e-09
1.31655e-07
4.25767e-09
1.31657e-07
4.26136e-09
1.31657e-07
4.2912e-09
1.31658e-07
4.30721e-09
1.31656e-07
4.34728e-09
1.31653e-07
4.36609e-09
1.31645e-07
4.40501e-09
1.31636e-07
4.41456e-09
1.31622e-07
4.44197e-09
1.31606e-07
4.43617e-09
1.31586e-07
4.45262e-09
1.31565e-07
4.43788e-09
1.3154e-07
4.45347e-09
1.31516e-07
4.43938e-09
1.31489e-07
4.46313e-09
1.31462e-07
4.45866e-09
1.31431e-07
4.50042e-09
1.31398e-07
4.5109e-09
1.31357e-07
4.56636e-09
1.3131e-07
4.57883e-09
1.31254e-07
4.63159e-09
1.31191e-07
4.62923e-09
1.31119e-07
4.66941e-09
1.31041e-07
4.65037e-09
1.30958e-07
4.68352e-09
1.30872e-07
4.65874e-09
1.30781e-07
4.70071e-09
1.30686e-07
4.68542e-09
1.30582e-07
4.74733e-09
1.30469e-07
4.74047e-09
1.30342e-07
4.80947e-09
1.30204e-07
4.79203e-09
1.30053e-07
4.85355e-09
1.29894e-07
4.81677e-09
1.29726e-07
4.87212e-09
1.29553e-07
4.82766e-09
1.2937e-07
4.8967e-09
1.29179e-07
4.8577e-09
1.28973e-07
4.9435e-09
1.28753e-07
4.90028e-09
1.28519e-07
4.98757e-09
1.28273e-07
4.92506e-09
1.28016e-07
5.01002e-09
1.27751e-07
4.93671e-09
1.27475e-07
5.03604e-09
1.27185e-07
4.96287e-09
1.26883e-07
5.07766e-09
1.26563e-07
4.99562e-09
1.26234e-07
5.11152e-09
1.25888e-07
5.02188e-09
1.25537e-07
5.14148e-09
1.25166e-07
5.06661e-09
1.24788e-07
5.18958e-09
5.15786e-09
1.34373e-07
5.19464e-09
-1.34346e-07
1.34503e-07
6.01858e-09
1.34737e-07
6.79204e-09
1.35057e-07
7.42507e-09
1.35398e-07
7.86218e-09
1.35716e-07
8.05394e-09
1.35995e-07
8.03077e-09
1.36235e-07
7.83893e-09
1.36428e-07
7.52618e-09
1.36565e-07
7.12177e-09
1.36643e-07
6.67592e-09
1.36676e-07
6.23505e-09
1.36688e-07
5.86754e-09
1.36697e-07
5.59298e-09
1.36712e-07
5.40754e-09
1.36728e-07
5.27049e-09
1.3674e-07
5.16051e-09
1.36749e-07
5.04932e-09
1.36754e-07
4.94397e-09
1.36759e-07
4.83881e-09
1.36766e-07
4.75112e-09
1.36774e-07
4.67106e-09
1.36782e-07
4.60864e-09
1.36789e-07