/*--------------------------------*- C++ -*----------------------------------*\
| =========                 |                                                 |
| \\      /  F ield         | OpenFOAM: The Open Source CFD Toolbox           |
|  \\    /   O peration     | Version:  5.x                                   |
|   \\  /    A nd           | Web:      www.OpenFOAM.org                      |
|    \\/     M anipulation  |                                                 |
\*---------------------------------------------------------------------------*/
FoamFile
{
    version     2.0;
    format      ascii;
    class       volVectorField;
    location    "0.6";
    object      U;
}
// * * * * * * * * * * * * * * * * * * * * * * * * * * * * * * * * * * * * * //

dimensions      [0 1 -1 0 0 0 0];

internalField   nonuniform List<vector> 
10800
(
(0.912019 0.0100291 0)
(0.818886 0.0138613 0)
(0.725996 0.0138181 0)
(0.631739 0.0128933 0)
(0.537556 0.0118785 0)
(0.446863 0.0103431 0)
(0.365766 0.00801627 0)
(0.301349 0.00479698 0)
(0.257104 0.00174395 0)
(0.229248 -9.54767e-06 0)
(0.211278 -0.000547745 0)
(0.19911 -0.000573046 0)
(0.19046 -0.000447491 0)
(0.183743 -0.00027575 0)
(0.17792 -0.000109536 0)
(0.172457 1.57534e-05 0)
(0.167168 9.4014e-05 0)
(0.162021 0.000134644 0)
(0.157069 0.000150028 0)
(0.152349 0.0001507 0)
(0.147902 0.000144101 0)
(0.143723 0.000134947 0)
(0.139819 0.000125501 0)
(0.136162 0.000116416 0)
(0.132751 0.00010773 0)
(0.129552 9.9585e-05 0)
(0.126556 9.23115e-05 0)
(0.123723 8.61146e-05 0)
(0.121046 8.08076e-05 0)
(0.118488 7.60313e-05 0)
(0.116058 7.16371e-05 0)
(0.113723 6.76346e-05 0)
(0.111498 6.40161e-05 0)
(0.109351 6.05794e-05 0)
(0.107302 5.72274e-05 0)
(0.105321 5.39558e-05 0)
(0.103433 5.0954e-05 0)
(0.101599 4.82507e-05 0)
(0.099847 4.58484e-05 0)
(0.0981367 4.35896e-05 0)
(0.0965015 4.14704e-05 0)
(0.0949006 3.94292e-05 0)
(0.0933719 3.75342e-05 0)
(0.0918703 3.56438e-05 0)
(0.0904395 3.39092e-05 0)
(0.0890274 3.23207e-05 0)
(0.0876824 3.09153e-05 0)
(0.0863468 2.95378e-05 0)
(0.0850771 2.83272e-05 0)
(0.0838094 2.71076e-05 0)
(0.0826089 2.59557e-05 0)
(0.0814047 2.47692e-05 0)
(0.0802699 2.37359e-05 0)
(0.0791232 2.27189e-05 0)
(0.0780474 2.18418e-05 0)
(0.0769517 2.09057e-05 0)
(0.0759315 2.00483e-05 0)
(0.0748849 1.91289e-05 0)
(0.0739187 1.83681e-05 0)
(0.0729162 1.75929e-05 0)
(0.0719978 1.69781e-05 0)
(0.0710331 1.62739e-05 0)
(0.0701595 1.56965e-05 0)
(0.0692296 1.50406e-05 0)
(0.0683989 1.45197e-05 0)
(0.0675002 1.39381e-05 0)
(0.0667093 1.35065e-05 0)
(0.0658381 1.29309e-05 0)
(0.0650874 1.24744e-05 0)
(0.0642433 1.19258e-05 0)
(0.0635317 1.15603e-05 0)
(0.0627098 1.10838e-05 0)
(0.0620353 1.0737e-05 0)
(0.0612334 1.02618e-05 0)
(0.0605957 9.98384e-06 0)
(0.059809 9.5921e-06 0)
(0.0592062 9.33396e-06 0)
(0.0584323 8.91522e-06 0)
(0.0578665 8.68295e-06 0)
(0.0571024 8.31707e-06 0)
(0.0565736 8.09326e-06 0)
(0.0558165 7.72627e-06 0)
(0.0553261 7.54809e-06 0)
(0.054571 7.23068e-06 0)
(0.0541195 7.06601e-06 0)
(0.0533619 6.76811e-06 0)
(0.0529515 6.62256e-06 0)
(0.0521865 6.34558e-06 0)
(0.0518207 6.1941e-06 0)
(0.051043 5.948e-06 0)
(0.0507254 5.806e-06 0)
(0.0499275 5.60445e-06 0)
(0.0496624 5.46098e-06 0)
(0.048835 5.31918e-06 0)
(0.0486282 5.14041e-06 0)
(0.0477609 5.08054e-06 0)
(0.0476198 4.84323e-06 0)
(0.0466983 4.9233e-06 0)
(0.0466314 4.56497e-06 0)
(0.0456333 5.12379e-06 0)
(0.967056 0.0189876 0)
(0.960563 0.0266855 0)
(0.947897 0.0278886 0)
(0.926754 0.0274426 0)
(0.896732 0.0268977 0)
(0.858852 0.0257232 0)
(0.815804 0.023365 0)
(0.771236 0.0193615 0)
(0.728924 0.0144326 0)
(0.690632 0.0100088 0)
(0.655975 0.00691285 0)
(0.624574 0.0049348 0)
(0.596394 0.00367488 0)
(0.571255 0.00290555 0)
(0.548751 0.00245178 0)
(0.528417 0.00217286 0)
(0.509906 0.00197796 0)
(0.492899 0.00181911 0)
(0.477213 0.0016753 0)
(0.462656 0.00154016 0)
(0.449132 0.0014133 0)
(0.436498 0.00129551 0)
(0.424703 0.001187 0)
(0.413638 0.00108776 0)
(0.403287 0.000998297 0)
(0.393545 0.000918948 0)
(0.384396 0.000849791 0)
(0.375725 0.000789918 0)
(0.367529 0.000737643 0)
(0.359705 0.000690756 0)
(0.352278 0.00064821 0)
(0.345151 0.00060936 0)
(0.33837 0.000573977 0)
(0.331836 0.000541027 0)
(0.325612 0.000510239 0)
(0.319598 0.000481301 0)
(0.313863 0.00045484 0)
(0.308293 0.000430519 0)
(0.302972 0.000408362 0)
(0.297779 0.000387496 0)
(0.292816 0.000368079 0)
(0.287956 0.000349596 0)
(0.283317 0.000332495 0)
(0.278756 0.00031602 0)
(0.27441 0.00030089 0)
(0.270116 0.000286668 0)
(0.26603 0.00027375 0)
(0.261972 0.000261245 0)
(0.25812 0.000249886 0)
(0.254274 0.000238714 0)
(0.250637 0.00022838 0)
(0.246985 0.000218133 0)
(0.243547 0.000208963 0)
(0.240068 0.000199927 0)
(0.236809 0.00019185 0)
(0.233486 0.000183591 0)
(0.230396 0.000176121 0)
(0.227219 0.000168454 0)
(0.224288 0.000161832 0)
(0.221242 0.000155078 0)
(0.218456 0.000149332 0)
(0.215526 0.000143158 0)
(0.212877 0.000137911 0)
(0.210053 0.000132228 0)
(0.207535 0.000127521 0)
(0.204806 0.00012237 0)
(0.202411 0.000118217 0)
(0.199768 0.000113309 0)
(0.197494 0.000109374 0)
(0.19493 0.000104817 0)
(0.192772 0.000101441 0)
(0.190276 9.72942e-05 0)
(0.188231 9.42022e-05 0)
(0.185794 9.02585e-05 0)
(0.18386 8.76202e-05 0)
(0.18147 8.40685e-05 0)
(0.179645 8.16612e-05 0)
(0.177295 7.8158e-05 0)
(0.175581 7.60399e-05 0)
(0.173261 7.28081e-05 0)
(0.171659 7.08907e-05 0)
(0.169359 6.77679e-05 0)
(0.167874 6.61828e-05 0)
(0.16558 6.32845e-05 0)
(0.164213 6.19041e-05 0)
(0.161912 5.9126e-05 0)
(0.160672 5.79702e-05 0)
(0.15835 5.52949e-05 0)
(0.157245 5.42946e-05 0)
(0.154884 5.1753e-05 0)
(0.153926 5.0962e-05 0)
(0.151505 4.85776e-05 0)
(0.150707 4.79646e-05 0)
(0.1482 4.57683e-05 0)
(0.14758 4.52371e-05 0)
(0.144955 4.33121e-05 0)
(0.144536 4.28077e-05 0)
(0.141754 4.13687e-05 0)
(0.141559 4.06792e-05 0)
(0.138568 4.14364e-05 0)
(0.971285 0.0174194 0)
(0.972701 0.0254265 0)
(0.975781 0.0282285 0)
(0.97725 0.0289761 0)
(0.975374 0.0294119 0)
(0.969535 0.0293292 0)
(0.95975 0.0279945 0)
(0.94639 0.0248886 0)
(0.930347 0.0205592 0)
(0.912656 0.016289 0)
(0.893922 0.0130629 0)
(0.874612 0.010904 0)
(0.855284 0.0094286 0)
(0.836276 0.0083626 0)
(0.817732 0.00754275 0)
(0.799601 0.00687112 0)
(0.781916 0.00629144 0)
(0.76461 0.00577357 0)
(0.747748 0.00530206 0)
(0.731285 0.00487009 0)
(0.715303 0.00447569 0)
(0.699748 0.00411675 0)
(0.684705 0.00378924 0)
(0.670112 0.00348855 0)
(0.656064 0.00321353 0)
(0.64248 0.00296478 0)
(0.629446 0.00274361 0)
(0.616847 0.00254808 0)
(0.604768 0.00237477 0)
(0.593081 0.0022187 0)
(0.581885 0.00207752 0)
(0.571037 0.00194883 0)
(0.560649 0.00183173 0)
(0.550566 0.0017234 0)
(0.540921 0.00162342 0)
(0.531538 0.00153057 0)
(0.522565 0.00144611 0)
(0.513803 0.00136855 0)
(0.505414 0.00129785 0)
(0.497184 0.00123144 0)
(0.489305 0.00116979 0)
(0.481544 0.00111118 0)
(0.474125 0.0010569 0)
(0.466791 0.00100498 0)
(0.459792 0.000957219 0)
(0.452842 0.000911973 0)
(0.446228 0.000870568 0)
(0.439628 0.000830619 0)
(0.433367 0.000794047 0)
(0.427091 0.000758289 0)
(0.421163 0.00072538 0)
(0.415186 0.000693107 0)
(0.409566 0.000664055 0)
(0.403855 0.000635447 0)
(0.398514 0.000609643 0)
(0.393044 0.000583525 0)
(0.387965 0.000559951 0)
(0.382718 0.000536024 0)
(0.377886 0.000515092 0)
(0.372839 0.000493724 0)
(0.368237 0.000475205 0)
(0.363374 0.000455635 0)
(0.358993 0.000438839 0)
(0.354298 0.000420879 0)
(0.350127 0.000405834 0)
(0.345582 0.000389474 0)
(0.34161 0.00037601 0)
(0.337201 0.000360583 0)
(0.333425 0.000348158 0)
(0.329139 0.000333908 0)
(0.325551 0.000323034 0)
(0.321372 0.000309898 0)
(0.317969 0.000300027 0)
(0.313884 0.000287678 0)
(0.310663 0.000279113 0)
(0.306653 0.000267739 0)
(0.303612 0.000259977 0)
(0.299666 0.000248987 0)
(0.296808 0.000242181 0)
(0.292908 0.00023189 0)
(0.290236 0.000225831 0)
(0.286366 0.000215965 0)
(0.283886 0.000210897 0)
(0.280025 0.00020157 0)
(0.277744 0.000197235 0)
(0.273869 0.000188239 0)
(0.271799 0.000184673 0)
(0.267887 0.000175929 0)
(0.266043 0.000173033 0)
(0.262066 0.00016458 0)
(0.260467 0.000162461 0)
(0.25639 0.000154292 0)
(0.25506 0.00015291 0)
(0.250839 0.000145039 0)
(0.249809 0.000144256 0)
(0.245396 0.000136838 0)
(0.2447 0.000136593 0)
(0.240032 0.00013008 0)
(0.239709 0.000129854 0)
(0.234719 0.000128339 0)
(0.975725 0.0160656 0)
(0.976574 0.0232423 0)
(0.980284 0.0267923 0)
(0.984799 0.0280516 0)
(0.988673 0.0286525 0)
(0.991391 0.0287802 0)
(0.992752 0.0278546 0)
(0.992346 0.0254229 0)
(0.989859 0.0218525 0)
(0.985216 0.0181269 0)
(0.978779 0.0151727 0)
(0.971012 0.0131991 0)
(0.962531 0.0119102 0)
(0.953627 0.0109867 0)
(0.94452 0.0102503 0)
(0.935127 0.00961755 0)
(0.92552 0.00905044 0)
(0.915581 0.00852859 0)
(0.905419 0.00804029 0)
(0.894942 0.00757911 0)
(0.884294 0.00714418 0)
(0.873386 0.00673415 0)
(0.862384 0.0063464 0)
(0.851187 0.0059764 0)
(0.839978 0.00562417 0)
(0.82864 0.00529147 0)
(0.817365 0.00498286 0)
(0.80601 0.00469801 0)
(0.79478 0.00443517 0)
(0.783512 0.00418909 0)
(0.77243 0.00395898 0)
(0.761351 0.0037426 0)
(0.750518 0.00354047 0)
(0.739724 0.00334911 0)
(0.729233 0.00316946 0)
(0.718807 0.00300007 0)
(0.708723 0.00284416 0)
(0.698699 0.00269958 0)
(0.689031 0.00256731 0)
(0.679396 0.00244283 0)
(0.670121 0.00232732 0)
(0.660846 0.00221716 0)
(0.651938 0.00211475 0)
(0.642999 0.00201631 0)
(0.634437 0.00192524 0)
(0.625813 0.001838 0)
(0.617584 0.00175749 0)
(0.609264 0.00167929 0)
(0.601366 0.00160722 0)
(0.593351 0.00153648 0)
(0.585789 0.00147133 0)
(0.578077 0.00140744 0)
(0.570846 0.00134986 0)
(0.563416 0.00129312 0)
(0.556494 0.00124189 0)
(0.549321 0.0011901 0)
(0.54269 0.00114338 0)
(0.535753 0.00109594 0)
(0.529397 0.00105421 0)
(0.522675 0.00101139 0)
(0.516582 0.000973988 0)
(0.510062 0.000934557 0)
(0.504229 0.000900596 0)
(0.4979 0.000864329 0)
(0.492324 0.000833865 0)
(0.486169 0.000800746 0)
(0.480839 0.000773349 0)
(0.474843 0.000742217 0)
(0.469755 0.000717128 0)
(0.4639 0.000688327 0)
(0.459048 0.000666126 0)
(0.453315 0.000639373 0)
(0.4487 0.000619246 0)
(0.443076 0.000594146 0)
(0.438696 0.000576532 0)
(0.433161 0.000553198 0)
(0.429018 0.000537302 0)
(0.423554 0.000514909 0)
(0.419652 0.000500948 0)
(0.414238 0.000479822 0)
(0.410584 0.000467463 0)
(0.405199 0.000447216 0)
(0.401802 0.000436811 0)
(0.396419 0.000417517 0)
(0.393291 0.000408686 0)
(0.387881 0.00039001 0)
(0.38504 0.000382801 0)
(0.379571 0.000364562 0)
(0.377038 0.000358859 0)
(0.371473 0.000341072 0)
(0.369275 0.000337052 0)
(0.363567 0.000319652 0)
(0.361738 0.000317284 0)
(0.355832 0.000300233 0)
(0.354414 0.000299358 0)
(0.348243 0.000282879 0)
(0.347285 0.000283421 0)
(0.340771 0.000268321 0)
(0.340319 0.000269211 0)
(0.333386 0.00026224 0)
(0.979693 0.0155419 0)
(0.98016 0.0217709 0)
(0.983219 0.0256717 0)
(0.98756 0.0272563 0)
(0.991965 0.0278 0)
(0.995896 0.0277665 0)
(0.999343 0.0268656 0)
(1.00199 0.0247771 0)
(1.00351 0.0217274 0)
(1.00347 0.018448 0)
(1.00202 0.0157277 0)
(0.999431 0.0138695 0)
(0.996322 0.0126863 0)
(0.992896 0.0118745 0)
(0.98943 0.011238 0)
(0.985759 0.010687 0)
(0.981989 0.0101901 0)
(0.977889 0.00973321 0)
(0.9736 0.00930775 0)
(0.968911 0.00890617 0)
(0.964013 0.00852684 0)
(0.958696 0.0081665 0)
(0.953184 0.00782252 0)
(0.947254 0.00748914 0)
(0.941152 0.00716693 0)
(0.934635 0.00685678 0)
(0.927974 0.00656465 0)
(0.920904 0.00628967 0)
(0.913726 0.00603109 0)
(0.906152 0.00578235 0)
(0.898516 0.00554387 0)
(0.890507 0.00531235 0)
(0.882499 0.00508963 0)
(0.874159 0.004871 0)
(0.865901 0.00465931 0)
(0.85736 0.00445276 0)
(0.848986 0.00425771 0)
(0.840366 0.00407198 0)
(0.831981 0.00389946 0)
(0.823358 0.00373444 0)
(0.815016 0.00358038 0)
(0.806424 0.00343192 0)
(0.798145 0.00329345 0)
(0.78959 0.00315891 0)
(0.781376 0.00303392 0)
(0.772855 0.00291226 0)
(0.764712 0.0027989 0)
(0.756236 0.00268667 0)
(0.748189 0.00258201 0)
(0.739793 0.00247724 0)
(0.731893 0.00237979 0)
(0.723627 0.00228283 0)
(0.715924 0.00219503 0)
(0.707818 0.0021078 0)
(0.700332 0.0020292 0)
(0.692389 0.00194937 0)
(0.685121 0.00187767 0)
(0.67733 0.00180435 0)
(0.670268 0.0017399 0)
(0.662608 0.00167297 0)
(0.655745 0.00161432 0)
(0.648212 0.0015518 0)
(0.641562 0.00149789 0)
(0.634161 0.00143971 0)
(0.627742 0.00139089 0)
(0.620476 0.00133744 0)
(0.614292 0.00129336 0)
(0.607153 0.00124308 0)
(0.601209 0.0012028 0)
(0.594179 0.00115612 0)
(0.588469 0.00112017 0)
(0.58153 0.00107641 0)
(0.576062 0.00104363 0)
(0.569206 0.0010024 0)
(0.563987 0.000973488 0)
(0.557198 0.000934843 0)
(0.55224 0.000908765 0)
(0.545502 0.000871741 0)
(0.540812 0.000848798 0)
(0.5341 0.000813628 0)
(0.529692 0.000793324 0)
(0.522983 0.000759519 0)
(0.518871 0.000742317 0)
(0.512139 0.000709891 0)
(0.508342 0.000695345 0)
(0.501555 0.000663848 0)
(0.498097 0.000652017 0)
(0.491216 0.00062113 0)
(0.488126 0.00061189 0)
(0.481108 0.000581578 0)
(0.478423 0.000575192 0)
(0.471214 0.000545324 0)
(0.468977 0.000541792 0)
(0.461512 0.000512268 0)
(0.459774 0.000511406 0)
(0.451978 0.000482536 0)
(0.450797 0.000484201 0)
(0.442582 0.000457288 0)
(0.442013 0.000459699 0)
(0.433294 0.000444105 0)
(0.983013 0.0153067 0)
(0.98331 0.0206839 0)
(0.985857 0.024648 0)
(0.98975 0.0264991 0)
(0.994003 0.0270403 0)
(0.997907 0.0268577 0)
(1.00149 0.0259295 0)
(1.00447 0.024075 0)
(1.00674 0.0214183 0)
(1.0078 0.0184892 0)
(1.00782 0.0159429 0)
(1.00687 0.0141248 0)
(1.0056 0.0129547 0)
(1.00413 0.0121736 0)
(1.00283 0.0115777 0)
(1.00148 0.0110619 0)
(1.00027 0.0105936 0)
(0.998854 0.0101638 0)
(0.997486 0.00976945 0)
(0.995819 0.00940276 0)
(0.994153 0.00906204 0)
(0.992138 0.0087417 0)
(0.990117 0.00843922 0)
(0.987711 0.00814731 0)
(0.985292 0.00786761 0)
(0.982445 0.00759942 0)
(0.979579 0.00734962 0)
(0.976245 0.00711549 0)
(0.972892 0.00689715 0)
(0.969036 0.00668587 0)
(0.965165 0.00648296 0)
(0.960761 0.00628267 0)
(0.956366 0.00608765 0)
(0.951429 0.00589046 0)
(0.946551 0.00569528 0)
(0.941142 0.0054981 0)
(0.935865 0.00530779 0)
(0.930081 0.00512081 0)
(0.924507 0.00494448 0)
(0.918437 0.00477172 0)
(0.912639 0.00460933 0)
(0.906334 0.00445026 0)
(0.900348 0.00430214 0)
(0.893823 0.00415639 0)
(0.887654 0.00402182 0)
(0.880899 0.003889 0)
(0.874537 0.0037656 0)
(0.86754 0.00364065 0)
(0.860986 0.00352347 0)
(0.853764 0.00340223 0)
(0.847065 0.00328798 0)
(0.839681 0.0031703 0)
(0.832921 0.00306265 0)
(0.825455 0.0029528 0)
(0.818712 0.00285383 0)
(0.811219 0.0027516 0)
(0.804537 0.00266066 0)
(0.797033 0.00256643 0)
(0.790414 0.0024846 0)
(0.782882 0.00239813 0)
(0.776317 0.00232294 0)
(0.768744 0.00224073 0)
(0.762245 0.00217011 0)
(0.754646 0.00209168 0)
(0.748253 0.0020261 0)
(0.740662 0.00195266 0)
(0.734416 0.00189267 0)
(0.726852 0.00182307 0)
(0.72078 0.00176821 0)
(0.713237 0.00170339 0)
(0.707339 0.00165425 0)
(0.699798 0.00159292 0)
(0.694082 0.00154766 0)
(0.686534 0.00148917 0)
(0.681022 0.00144871 0)
(0.673467 0.00139322 0)
(0.668186 0.00135652 0)
(0.66062 0.0013032 0)
(0.655591 0.00127088 0)
(0.647991 0.0012199 0)
(0.643231 0.00119125 0)
(0.635575 0.00114195 0)
(0.631105 0.00111749 0)
(0.623368 0.00106979 0)
(0.619221 0.00104909 0)
(0.611375 0.00100254 0)
(0.607582 0.000985755 0)
(0.599588 0.000939896 0)
(0.596186 0.000926897 0)
(0.587999 0.000881616 0)
(0.585032 0.000872747 0)
(0.576597 0.000827865 0)
(0.574117 0.000823194 0)
(0.565368 0.000778581 0)
(0.563434 0.000777894 0)
(0.554292 0.000733979 0)
(0.55297 0.000737014 0)
(0.543342 0.0006957 0)
(0.542694 0.000699947 0)
(0.532493 0.000672953 0)
(0.985691 0.0151738 0)
(0.985898 0.0198464 0)
(0.988071 0.023633 0)
(0.991518 0.0256454 0)
(0.995546 0.0262452 0)
(0.999295 0.0259934 0)
(1.0028 0.0250663 0)
(1.00569 0.0234029 0)
(1.00803 0.0210769 0)
(1.00931 0.0184562 0)
(1.00978 0.0160742 0)
(1.00932 0.0142819 0)
(1.00864 0.0130917 0)
(1.00771 0.0123019 0)
(1.00709 0.0117142 0)
(1.00641 0.0112072 0)
(1.00605 0.0107422 0)
(1.00552 0.0103119 0)
(1.00521 0.00992002 0)
(1.00464 0.00955971 0)
(1.00426 0.00923039 0)
(1.00356 0.00892418 0)
(1.00307 0.00863947 0)
(1.00222 0.00836708 0)
(1.00157 0.00811042 0)
(1.00052 0.00786701 0)
(0.999678 0.00764521 0)
(0.998372 0.00744011 0)
(0.99727 0.00725368 0)
(0.995652 0.00707481 0)
(0.994234 0.00690648 0)
(0.992241 0.00674 0)
(0.990454 0.00657949 0)
(0.988044 0.00641409 0)
(0.985865 0.0062495 0)
(0.983032 0.0060782 0)
(0.980481 0.00591118 0)
(0.977266 0.00574203 0)
(0.974401 0.00558146 0)
(0.970859 0.00541997 0)
(0.967731 0.00526824 0)
(0.963897 0.0051167 0)
(0.960531 0.00497714 0)
(0.956414 0.00483795 0)
(0.952804 0.00471207 0)
(0.948379 0.00458651 0)
(0.944497 0.00447281 0)
(0.939721 0.00435557 0)
(0.935524 0.00424767 0)
(0.930357 0.00413181 0)
(0.925832 0.00402265 0)
(0.920287 0.00390443 0)
(0.915489 0.00379553 0)
(0.90964 0.00367892 0)
(0.904664 0.00357376 0)
(0.898597 0.00346108 0)
(0.893522 0.00336204 0)
(0.887284 0.00325683 0)
(0.882138 0.0031678 0)
(0.875724 0.00307157 0)
(0.870494 0.00299044 0)
(0.863871 0.00289853 0)
(0.85854 0.00282133 0)
(0.851694 0.00273124 0)
(0.84629 0.00265679 0)
(0.839262 0.00256928 0)
(0.833853 0.00249888 0)
(0.826698 0.00241397 0)
(0.821348 0.00234883 0)
(0.814089 0.00226927 0)
(0.808818 0.00221114 0)
(0.801438 0.00213563 0)
(0.796245 0.00208185 0)
(0.788723 0.00200879 0)
(0.783625 0.0019598 0)
(0.775967 0.001889 0)
(0.771012 0.0018437 0)
(0.763236 0.00177488 0)
(0.758469 0.00173491 0)
(0.750568 0.0016687 0)
(0.746012 0.00163332 0)
(0.73796 0.00156884 0)
(0.733638 0.00153843 0)
(0.725412 0.00147527 0)
(0.721364 0.00144934 0)
(0.712949 0.00138717 0)
(0.709223 0.00136621 0)
(0.700588 0.00130465 0)
(0.697227 0.00128861 0)
(0.688326 0.00122743 0)
(0.685377 0.00121666 0)
(0.67616 0.00115561 0)
(0.673684 0.00115026 0)
(0.664092 0.00108929 0)
(0.662155 0.00108919 0)
(0.652113 0.0010289 0)
(0.650782 0.00103361 0)
(0.640203 0.000976545 0)
(0.639543 0.000982908 0)
(0.628345 0.000942777 0)
(0.987783 0.0150835 0)
(0.98792 0.0191666 0)
(0.989814 0.0226453 0)
(0.992839 0.0247049 0)
(0.99662 0.0253871 0)
(1.00019 0.0251384 0)
(1.00361 0.0242407 0)
(1.00638 0.0227317 0)
(1.00874 0.0206793 0)
(1.01007 0.0183376 0)
(1.01077 0.0161292 0)
(1.01052 0.0143813 0)
(1.01013 0.0131732 0)
(1.00938 0.0123636 0)
(1.00901 0.0117735 0)
(1.00849 0.0112704 0)
(1.00841 0.0108053 0)
(1.00809 0.0103683 0)
(1.00813 0.00996998 0)
(1.00784 0.00960486 0)
(1.0079 0.00927495 0)
(1.00757 0.00896994 0)
(1.00761 0.00868992 0)
(1.00724 0.00842291 0)
(1.00726 0.00817444 0)
(1.00682 0.00793976 0)
(1.0068 0.00772969 0)
(1.00626 0.00753687 0)
(1.00615 0.00736615 0)
(1.00547 0.00720391 0)
(1.00523 0.00705573 0)
(1.00436 0.00690978 0)
(1.00395 0.00677265 0)
(1.00284 0.00662972 0)
(1.00221 0.00648905 0)
(1.00083 0.00633889 0)
(0.999976 0.00619287 0)
(0.998335 0.00604064 0)
(0.997285 0.00589665 0)
(0.99541 0.00574804 0)
(0.99419 0.00560972 0)
(0.992098 0.00546866 0)
(0.990721 0.00534129 0)
(0.988413 0.00521222 0)
(0.986871 0.00509923 0)
(0.984322 0.0049853 0)
(0.982585 0.00488703 0)
(0.979744 0.00478436 0)
(0.97775 0.00469492 0)
(0.974542 0.00459536 0)
(0.972228 0.00450452 0)
(0.968605 0.00439976 0)
(0.965966 0.00430432 0)
(0.961955 0.00419475 0)
(0.959056 0.00409661 0)
(0.95473 0.0039851 0)
(0.951654 0.00388881 0)
(0.947073 0.00378197 0)
(0.943866 0.0036949 0)
(0.939042 0.00359757 0)
(0.935701 0.00352025 0)
(0.930592 0.00342893 0)
(0.927067 0.00335676 0)
(0.921612 0.00326649 0)
(0.917882 0.00319475 0)
(0.912084 0.00310331 0)
(0.908203 0.00303183 0)
(0.902123 0.00293908 0)
(0.89818 0.00287051 0)
(0.891876 0.0027819 0)
(0.887923 0.00272091 0)
(0.881396 0.00263711 0)
(0.877427 0.00258157 0)
(0.870635 0.00250013 0)
(0.86664 0.00244902 0)
(0.859565 0.00236808 0)
(0.855586 0.00231912 0)
(0.848261 0.00223835 0)
(0.844369 0.00219444 0)
(0.836816 0.00211595 0)
(0.833054 0.00207744 0)
(0.825251 0.00200075 0)
(0.821632 0.00196785 0)
(0.813545 0.00189171 0)
(0.810103 0.00186325 0)
(0.801724 0.00178714 0)
(0.798524 0.00176406 0)
(0.789844 0.00168815 0)
(0.786937 0.00167094 0)
(0.777917 0.0015951 0)
(0.775345 0.00158398 0)
(0.765937 0.00150768 0)
(0.763762 0.00150273 0)
(0.753923 0.00142609 0)
(0.752215 0.00142733 0)
(0.741884 0.00135132 0)
(0.740708 0.00135815 0)
(0.72981 0.00128595 0)
(0.729224 0.00129456 0)
(0.717694 0.00124144 0)
(0.989407 0.0149852 0)
(0.989471 0.0185753 0)
(0.991148 0.0217095 0)
(0.993779 0.0237273 0)
(0.997301 0.0244834 0)
(1.00065 0.024287 0)
(1.00401 0.0234439 0)
(1.00666 0.0220659 0)
(1.00902 0.0202393 0)
(1.01036 0.0181481 0)
(1.01124 0.0161186 0)
(1.01113 0.0144389 0)
(1.01098 0.0132265 0)
(1.01033 0.0123961 0)
(1.01012 0.011799 0)
(1.00963 0.0112993 0)
(1.00968 0.0108381 0)
(1.00939 0.010397 0)
(1.00959 0.00999194 0)
(1.00934 0.00961941 0)
(1.00956 0.0092856 0)
(1.00929 0.00897752 0)
(1.00953 0.00869778 0)
(1.00924 0.00843084 0)
(1.0095 0.00818453 0)
(1.00918 0.00795106 0)
(1.00944 0.00774461 0)
(1.00908 0.00755479 0)
(1.00935 0.00739 0)
(1.00893 0.00723363 0)
(1.00918 0.0070948 0)
(1.00867 0.00695803 0)
(1.00886 0.00683333 0)
(1.00823 0.00670195 0)
(1.00833 0.00657524 0)
(1.00756 0.00643685 0)
(1.00756 0.00630379 0)
(1.00664 0.0061612 0)
(1.00656 0.00602783 0)
(1.0055 0.00588668 0)
(1.00536 0.00575741 0)
(1.00417 0.00562258 0)
(1.00396 0.00550369 0)
(1.00264 0.00538077 0)
(1.00238 0.00527689 0)
(1.00092 0.0051704 0)
(1.00057 0.00508377 0)
(0.99893 0.00499204 0)
(0.998457 0.00491873 0)
(0.996564 0.00483442 0)
(0.995887 0.00476307 0)
(0.993666 0.00467454 0)
(0.992742 0.00459716 0)
(0.990176 0.00449997 0)
(0.98903 0.00441494 0)
(0.986161 0.00431044 0)
(0.984853 0.00422268 0)
(0.981732 0.00411917 0)
(0.980311 0.0040386 0)
(0.976961 0.00394399 0)
(0.975438 0.00387473 0)
(0.971827 0.00378884 0)
(0.97015 0.00372815 0)
(0.966191 0.00364541 0)
(0.96429 0.00358537 0)
(0.959932 0.0034991 0)
(0.957814 0.00343566 0)
(0.953089 0.00334316 0)
(0.950829 0.00327828 0)
(0.945806 0.00318643 0)
(0.943485 0.00312797 0)
(0.938194 0.00304117 0)
(0.935819 0.00298992 0)
(0.930208 0.00290677 0)
(0.927737 0.00286081 0)
(0.92175 0.00277697 0)
(0.919185 0.00273109 0)
(0.912833 0.00264416 0)
(0.910249 0.00260119 0)
(0.903583 0.00251478 0)
(0.90105 0.00247732 0)
(0.894069 0.00239298 0)
(0.891594 0.00236221 0)
(0.884247 0.002278 0)
(0.881835 0.00225123 0)
(0.874101 0.00216526 0)
(0.871814 0.00214307 0)
(0.86371 0.00205612 0)
(0.861616 0.00204027 0)
(0.85312 0.00195321 0)
(0.851252 0.0019441 0)
(0.842313 0.00185591 0)
(0.840712 0.001853 0)
(0.831302 0.00176362 0)
(0.830043 0.00176714 0)
(0.820127 0.00167839 0)
(0.819264 0.0016878 0)
(0.808786 0.00160357 0)
(0.808355 0.00161432 0)
(0.797274 0.00155076 0)
(0.990711 0.0148668 0)
(0.990689 0.0180479 0)
(0.992188 0.0208457 0)
(0.994454 0.0227567 0)
(0.997712 0.0235615 0)
(1.00081 0.0234422 0)
(1.00408 0.0226772 0)
(1.00661 0.021421 0)
(1.00898 0.019784 0)
(1.01029 0.0179129 0)
(1.01133 0.0160582 0)
(1.01132 0.0144645 0)
(1.01137 0.0132644 0)
(1.0108 0.0124167 0)
(1.01073 0.0118092 0)
(1.01025 0.0113112 0)
(1.0104 0.0108571 0)
(1.01009 0.0104155 0)
(1.01039 0.0100056 0)
(1.01012 0.00962551 0)
(1.01046 0.00928737 0)
(1.01016 0.00897526 0)
(1.01051 0.00869503 0)
(1.01019 0.00842714 0)
(1.01056 0.00818193 0)
(1.01021 0.00794766 0)
(1.0106 0.00774238 0)
(1.01023 0.00755215 0)
(1.01065 0.0073893 0)
(1.01025 0.0072337 0)
(1.01069 0.00709876 0)
(1.01024 0.00696486 0)
(1.01068 0.00684611 0)
(1.01017 0.00671933 0)
(1.0106 0.00659996 0)
(1.01001 0.0064667 0)
(1.01041 0.00634065 0)
(1.00973 0.006202 0)
(1.01012 0.00607429 0)
(1.00936 0.00593585 0)
(1.00974 0.00581143 0)
(1.0089 0.0056786 0)
(1.00929 0.00556421 0)
(1.00837 0.00544307 0)
(1.00876 0.00534384 0)
(1.00777 0.00523959 0)
(1.00816 0.00515907 0)
(1.00707 0.00507205 0)
(1.00744 0.00500864 0)
(1.0062 0.00493344 0)
(1.00649 0.00487637 0)
(1.00504 0.00479989 0)
(1.0052 0.00473783 0)
(1.0035 0.00465141 0)
(1.00352 0.00457896 0)
(1.00159 0.00448157 0)
(1.00152 0.00440293 0)
(0.999388 0.0043033 0)
(0.999256 0.00422955 0)
(0.996947 0.00413741 0)
(0.996779 0.0040755 0)
(0.994282 0.00399441 0)
(0.994042 0.00394525 0)
(0.991277 0.00387144 0)
(0.990882 0.00382584 0)
(0.987766 0.00374885 0)
(0.987181 0.00369824 0)
(0.983704 0.0036113 0)
(0.982968 0.00355487 0)
(0.979184 0.00346394 0)
(0.978379 0.00341098 0)
(0.974338 0.00332409 0)
(0.973493 0.00327984 0)
(0.96916 0.00319893 0)
(0.968223 0.00316264 0)
(0.963511 0.00308194 0)
(0.962434 0.00304496 0)
(0.957313 0.0029581 0)
(0.95614 0.00292066 0)
(0.950663 0.00283096 0)
(0.949483 0.00279767 0)
(0.943681 0.00270996 0)
(0.94251 0.00268491 0)
(0.936329 0.00259817 0)
(0.935135 0.00257743 0)
(0.928522 0.00248728 0)
(0.927334 0.00246927 0)
(0.920311 0.00237589 0)
(0.919211 0.00236355 0)
(0.911792 0.00226994 0)
(0.910806 0.00226512 0)
(0.902939 0.00217032 0)
(0.902073 0.00217128 0)
(0.893727 0.00207413 0)
(0.893041 0.00208062 0)
(0.884216 0.00198405 0)
(0.883759 0.00199615 0)
(0.874422 0.00190529 0)
(0.874197 0.0019178 0)
(0.864323 0.00184853 0)
(0.991817 0.0147288 0)
(0.991697 0.0175588 0)
(0.993038 0.02004 0)
(0.994973 0.0218036 0)
(0.997973 0.0226301 0)
(1.00081 0.0225963 0)
(1.00397 0.0219301 0)
(1.00636 0.0207963 0)
(1.00872 0.0193246 0)
(1.01 0.0176454 0)
(1.01115 0.0159569 0)
(1.01122 0.0144598 0)
(1.01145 0.0132886 0)
(1.01094 0.0124309 0)
(1.01099 0.0118111 0)
(1.0105 0.0113111 0)
(1.01074 0.0108645 0)
(1.01041 0.0104262 0)
(1.01079 0.010015 0)
(1.0105 0.00962914 0)
(1.01091 0.00928793 0)
(1.01058 0.00897259 0)
(1.01101 0.00869245 0)
(1.01064 0.00842393 0)
(1.01108 0.00818029 0)
(1.01069 0.00794507 0)
(1.01116 0.00774032 0)
(1.01074 0.00754839 0)
(1.01124 0.00738582 0)
(1.01079 0.00722856 0)
(1.01133 0.00709472 0)
(1.01086 0.00696042 0)
(1.01143 0.00684415 0)
(1.01092 0.00671826 0)
(1.0115 0.00660266 0)
(1.01094 0.00647105 0)
(1.01153 0.00634893 0)
(1.01091 0.0062114 0)
(1.01152 0.0060869 0)
(1.01084 0.00594886 0)
(1.01147 0.0058272 0)
(1.01073 0.00569431 0)
(1.01139 0.00558238 0)
(1.01059 0.00546084 0)
(1.01128 0.0053638 0)
(1.01043 0.0052589 0)
(1.01115 0.00518092 0)
(1.01025 0.00509432 0)
(1.011 0.00503567 0)
(1.01002 0.00496395 0)
(1.01077 0.00491526 0)
(1.00966 0.00484529 0)
(1.01037 0.00479348 0)
(1.00911 0.00471373 0)
(1.00977 0.00465046 0)
(1.00834 0.00455773 0)
(1.00897 0.00448612 0)
(1.0074 0.00438894 0)
(1.00802 0.00432034 0)
(1.00632 0.00422901 0)
(1.00696 0.00417183 0)
(1.00514 0.00409273 0)
(1.00578 0.00405159 0)
(1.00379 0.00398409 0)
(1.00437 0.00395063 0)
(1.00212 0.00388221 0)
(1.00258 0.00384417 0)
(1.00005 0.0037642 0)
(1.0004 0.00371739 0)
(0.997605 0.0036293 0)
(0.997908 0.00358229 0)
(0.994902 0.00349609 0)
(0.995201 0.00345825 0)
(0.991975 0.0033803 0)
(0.992229 0.00335394 0)
(0.988698 0.00327906 0)
(0.988832 0.00325341 0)
(0.98493 0.00317106 0)
(0.984944 0.00314192 0)
(0.980703 0.00305278 0)
(0.980675 0.00302491 0)
(0.97615 0.00293669 0)
(0.976118 0.00291831 0)
(0.971272 0.00283312 0)
(0.971182 0.00282086 0)
(0.965933 0.0027321 0)
(0.965765 0.00272073 0)
(0.960119 0.0026259 0)
(0.959944 0.002618 0)
(0.953948 0.00252239 0)
(0.953802 0.00252271 0)
(0.947417 0.00242707 0)
(0.947268 0.00243316 0)
(0.940442 0.00233431 0)
(0.940315 0.00234387 0)
(0.933076 0.00224525 0)
(0.933015 0.00225935 0)
(0.925363 0.00216826 0)
(0.925344 0.002182 0)
(0.917246 0.00211287 0)
(0.992796 0.0145993 0)
(0.992572 0.0170987 0)
(0.993768 0.0192744 0)
(0.99541 0.0208616 0)
(0.998167 0.0216765 0)
(1.00074 0.0217197 0)
(1.00378 0.0211627 0)
(1.00602 0.0201534 0)
(1.00836 0.0188325 0)
(1.0096 0.0173216 0)
(1.01083 0.0157888 0)
(1.01095 0.0143928 0)
(1.01132 0.0132647 0)
(1.01087 0.0124077 0)
(1.01102 0.0117778 0)
(1.01055 0.0112739 0)
(1.01084 0.0108362 0)
(1.01049 0.0104072 0)
(1.01093 0.0100013 0)
(1.01062 0.00961422 0)
(1.01109 0.0092726 0)
(1.01074 0.00895592 0)
(1.01122 0.00867712 0)
(1.01083 0.00840904 0)
(1.01132 0.00816829 0)
(1.01089 0.0079336 0)
(1.01141 0.00773049 0)
(1.01095 0.00753771 0)
(1.0115 0.00737594 0)
(1.01102 0.00721711 0)
(1.01161 0.00708384 0)
(1.01111 0.00694838 0)
(1.01174 0.00683343 0)
(1.01122 0.00670716 0)
(1.01188 0.0065939 0)
(1.01132 0.00646277 0)
(1.012 0.00634346 0)
(1.0114 0.00620633 0)
(1.01211 0.00608438 0)
(1.01145 0.00594639 0)
(1.01218 0.00582702 0)
(1.01148 0.00569384 0)
(1.01224 0.00558394 0)
(1.01149 0.00546175 0)
(1.01228 0.00536629 0)
(1.01148 0.00526011 0)
(1.01232 0.00518332 0)
(1.01147 0.00509545 0)
(1.01235 0.00503877 0)
(1.01146 0.00496734 0)
(1.01238 0.00492284 0)
(1.01141 0.00485533 0)
(1.01235 0.00480938 0)
(1.01128 0.00473282 0)
(1.01222 0.00467525 0)
(1.01105 0.00458485 0)
(1.01199 0.00451788 0)
(1.01072 0.0044218 0)
(1.01169 0.00435661 0)
(1.01033 0.00426499 0)
(1.01133 0.00421027 0)
(1.00989 0.00413095 0)
(1.01094 0.00409404 0)
(1.0094 0.0040295 0)
(1.01044 0.00400394 0)
(1.00875 0.00394125 0)
(1.00975 0.00391252 0)
(1.00786 0.0038383 0)
(1.00881 0.0037995 0)
(1.00672 0.00371447 0)
(1.00764 0.00367222 0)
(1.00541 0.00358657 0)
(1.00635 0.00355291 0)
(1.00398 0.0034769 0)
(1.00492 0.00345779 0)
(1.00234 0.00338845 0)
(1.00322 0.00337283 0)
(1.00036 0.00329678 0)
(1.00114 0.00327601 0)
(0.998006 0.00318992 0)
(0.998728 0.00316693 0)
(0.995382 0.00307976 0)
(0.996101 0.0030665 0)
(0.992532 0.00298469 0)
(0.9932 0.0029804 0)
(0.989321 0.00289685 0)
(0.989874 0.00289274 0)
(0.985663 0.00280082 0)
(0.986144 0.00279685 0)
(0.981664 0.00270279 0)
(0.98212 0.00270712 0)
(0.977359 0.00261511 0)
(0.977741 0.00262625 0)
(0.972625 0.00253141 0)
(0.972909 0.0025434 0)
(0.967471 0.00244809 0)
(0.967697 0.00246254 0)
(0.961971 0.00237682 0)
(0.962108 0.00239108 0)
(0.956043 0.00232759 0)
(0.993692 0.0146477 0)
(0.99337 0.0168162 0)
(0.994423 0.0186879 0)
(0.995819 0.0200735 0)
(0.998347 0.0208376 0)
(1.00068 0.0209324 0)
(1.00357 0.0204754 0)
(1.00568 0.0195834 0)
(1.00798 0.0183947 0)
(1.00917 0.0170248 0)
(1.01045 0.0156259 0)
(1.01062 0.0143229 0)
(1.0111 0.0132407 0)
(1.01071 0.0123897 0)
(1.01094 0.0117504 0)
(1.01048 0.0112382 0)
(1.01082 0.0108054 0)
(1.01046 0.0103858 0)
(1.01093 0.00998697 0)
(1.01062 0.00959865 0)
(1.01112 0.00925468 0)
(1.01077 0.00893486 0)
(1.01127 0.0086559 0)
(1.01087 0.00838732 0)
(1.01138 0.00814891 0)
(1.01095 0.0079152 0)
(1.01148 0.00771398 0)
(1.01102 0.00752067 0)
(1.01158 0.00735967 0)
(1.0111 0.00719944 0)
(1.0117 0.00706629 0)
(1.01121 0.0069294 0)
(1.01185 0.00681511 0)