/*--------------------------------*- C++ -*----------------------------------*\
| =========                 |                                                 |
| \\      /  F ield         | OpenFOAM: The Open Source CFD Toolbox           |
|  \\    /   O peration     | Version:  5.x                                   |
|   \\  /    A nd           | Web:      www.OpenFOAM.org                      |
|    \\/     M anipulation  |                                                 |
\*---------------------------------------------------------------------------*/
FoamFile
{
    version     2.0;
    format      ascii;
    class       volScalarField;
    location    "0.8";
    object      p;
}
// * * * * * * * * * * * * * * * * * * * * * * * * * * * * * * * * * * * * * //

dimensions      [0 2 -2 0 0 0 0];

internalField   nonuniform List<scalar> 
21600
(
0.015342098
0.010098992
0.0046742026
0.0012864143
0.00014733813
0.00028183976
0.00069247324
0.00098973364
0.0011368768
0.0011952104
0.0012179237
0.0012303827
0.0012403001
0.0012485896
0.0012547899
0.0012587047
0.0012605281
0.0012606202
0.001259343
0.001256989
0.0012537795
0.0012498746
0.0012453956
0.001240434
0.0012350645
0.0012293461
0.0012233302
0.0012170575
0.001210565
0.0012038813
0.0011970333
0.0011900412
0.0011829251
0.0011756993
0.0011683788
0.0011609739
0.0011534964
0.0011459534
0.0011383544
0.0011307044
0.0011230111
0.001115278
0.0011075115
0.0010997138
0.0010918905
0.0010840429
0.0010761758
0.0010682897
0.0010603891
0.0010524737
0.0010445478
0.0010366106
0.0010286661
0.001020713
0.0010127552
0.0010047911
0.00099682451
0.00098885337
0.00098088159
0.00097290671
0.00096493274
0.00095695686
0.0009489832
0.00094100861
0.00093303738
0.00092506599
0.00091709898
0.00090913245
0.00090117119
0.00089321094
0.00088525677
0.00087730403
0.00086935813
0.000861414
0.00085347742
0.00084554288
0.00083761658
0.00082969252
0.00082177736
0.00081386461
0.0008059614
0.00079806071
0.00079017021
0.00078228229
0.00077440521
0.00076653074
0.00075866778
0.00075080741
0.00074295924
0.00073511362
0.00072728091
0.00071945069
0.00071163413
0.00070381998
0.0006960203
0.0006882229
0.00068044084
0.00067266091
0.00066489723
0.0006571355
0.00064939098
0.00064164817
0.0006339236
0.00062620046
0.00061849661
0.00061079386
0.00060311151
0.00059542988
0.00058776984
0.00058011005
0.00057247314
0.00056483599
0.00055722308
0.00054960939
0.00054202143
0.0005344321
0.00052687011
0.00051930609
0.00051177115
0.00050423346
0.00049672673
0.00048921642
0.0004817391
0.00047425729
0.00046681062
0.00045935844
0.00045194373
0.00044452237
0.000437141
0.00042975171
0.00042240518
0.00041504935
0.00040773928
0.00040041842
0.0003931466
0.00038586235
0.00037863066
0.00037138474
0.00036419519
0.00035698938
0.00034984405
0.00034268019
0.00033558126
0.00032846125
0.00032141101
0.00031433687
0.00030733774
0.00030031163
0.00029336627
0.0002863906
0.00027950198
0.00027257938
0.0002657508
0.00025888415
0.00025211915
0.00024531161
0.00023861394
0.00023186872
0.00022524228
0.00021856262
0.0002120114
0.00020540068
0.00019892884
0.00019239064
0.00018600288
0.00017954093
0.00017324286
0.00016686141
0.00016065884
0.00015436315
0.00014826219
0.00014205767
0.00013606588
0.00012995824
0.00012408394
0.00011807986
0.0001123322
0.00010643889
0.0001008278
9.5052717e-05
8.9588624e-05
8.3940081e-05
7.8635076e-05
7.3122846e-05
6.799152e-05
6.2625403e-05
5.7683416e-05
5.2473148e-05
4.7738356e-05
4.2697034e-05
3.8191198e-05
3.3334129e-05
2.9083386e-05
2.4425613e-05
2.0471213e-05
1.6028912e-05
1.241732e-05
8.1848102e-06
5.0067313e-06
9.2672632e-07
0.014094887
0.0099047512
0.0048099094
0.0014899572
0.00030348135
0.00037873068
0.00075391419
0.0010299129
0.0011647167
0.0012164199
0.0012354904
0.0012456032
0.0012537169
0.0012605113
0.0012654582
0.0012683217
0.0012692584
0.0012685951
0.0012666675
0.0012637483
0.0012600432
0.0012557007
0.0012508331
0.0012455244
0.0012398433
0.001233844
0.0012275738
0.00122107
0.0012143666
0.0012074899
0.0012004648
0.0011933097
0.001186043
0.0011786778
0.0011712281
0.0011637031
0.0011561136
0.0011484662
0.0011407695
0.0011330279
0.0011252488
0.0011174349
0.0011095924
0.0011017231
0.0010938322
0.0010859206
0.001077993
0.0010700496
0.0010620946
0.0010541276
0.0010461526
0.0010381687
0.0010301797
0.0010221842
0.0010141859
0.0010061832
0.00099817964
0.00099017314
0.00098216753
0.00097416022
0.00096615517
0.00095814946
0.00095014717
0.00094214505
0.00093414738
0.00092615054
0.00091815905
0.00091016893
0.00090218496
0.00089420279
0.00088622749
0.00087825435
0.00087028876
0.0008623256
0.00085437063
0.00084641831
0.00083847481
0.0008305341
0.00082260283
0.00081467446
0.00080675613
0.00079884077
0.00079093606
0.00078303434
0.00077514388
0.00076725641
0.00075938083
0.00075150819
0.00074364812
0.00073579091
0.00072794695
0.00072010576
0.00071227856
0.00070445402
0.00069664426
0.00068883702
0.00068104539
0.00067325611
0.00066548335
0.00065771274
0.00064995958
0.00064220834
0.00063447555
0.00062674437
0.00061903269
0.00061132229
0.00060363249
0.00059594354
0.00058827639
0.00058060963
0.00057296592
0.00056532211
0.00055770271
0.00055008265
0.00054248848
0.00053489305
0.00052732512
0.00051975526
0.00051221463
0.00050467134
0.00049715916
0.00048964349
0.00048216093
0.00047467398
0.00046722229
0.00045976517
0.00045234563
0.00044491953
0.00043753352
0.00043013967
0.00042278868
0.00041542846
0.0004081141
0.00040078903
0.00039351307
0.00038622476
0.00037898909
0.00037173927
0.00036454587
0.00035733631
0.00035018727
0.00034301979
0.00033591728
0.00032879379
0.0003217401
0.00031466259
0.00030766013
0.00030063078
0.00029368219
0.0002867034
0.00027981166
0.00027288605
0.00026605445
0.00025918491
0.00025241699
0.00024560666
0.00023890616
0.00023215825
0.00022552908
0.00021884683
0.00021229295
0.00020567975
0.00019920533
0.00019266475
0.0001862745
0.00017981024
0.00017350977
0.00016712612
0.0001609212
0.00015462342
0.00014852019
0.00014231365
0.00013631968
0.00013021009
0.0001243337
0.00011832777
0.00011257811
0.00010668302
0.00010107002
9.5293244e-05
8.9827326e-05
8.4177177e-05
7.8870445e-05
7.3356692e-05
6.8223795e-05
6.2856196e-05
5.7912795e-05
5.2701066e-05
4.7965062e-05
4.2922359e-05
3.8415508e-05
3.3557086e-05
2.930566e-05
2.4646278e-05
2.0692073e-05
1.6247932e-05
1.2637782e-05
8.4018631e-06
5.22814e-06
1.1415342e-06
0.013098874
0.0097427632
0.0050751767
0.0018266231
0.00053294429
0.0005022634
0.00082279319
0.0010757812
0.0011986743
0.0012426007
0.0012564301
0.0012629724
0.0012684755
0.0012732228
0.0012765169
0.0012780409
0.0012778899
0.0012763355
0.0012736682
0.0012701256
0.0012658885
0.0012610869
0.0012558193
0.0012501591
0.0012441673
0.0012378913
0.0012313735
0.0012246469
0.0012177422
0.0012106827
0.0012034911
0.0011961837
0.0011887773
0.0011812835
0.0011737151
0.0011660803
0.001158389
0.0011506468
0.0011428618
0.0011350378
0.0011271816
0.0011192955
0.0011113852
0.0011034521
0.0010955011
0.0010875329
0.0010795518
0.0010715578
0.0010635549
0.0010555425
0.0010475245
0.0010394996
0.0010314717
0.0010234391
0.0010154056
0.0010073691
0.00099933343
0.00099129618
0.0009832612
0.00097522574
0.00096719377
0.0009591622
0.00095113517
0.00094310925
0.00093508877
0.00092706995
0.00091905737
0.00091104691
0.0009030434
0.00089504235
0.00088704893
0.00087905822
0.00087107576
0.00086309623
0.00085512554
0.00084715793
0.00083919975
0.00083124474
0.00082329972
0.00081535795
0.00080742674
0.00079949879
0.00079158199
0.00078366843
0.00077576661
0.00076786798
0.00075998171
0.00075209855
0.00074422839
0.00073636124
0.00072850777
0.00072065717
0.00071282098
0.00070498753
0.00069716927
0.00068935357
0.0006815539
0.00067375659
0.0006659762
0.00065819795
0.00065043756
0.00064267904
0.00063493938
0.00062720127
0.00061948306
0.00061176604
0.00060407003
0.00059637477
0.0005887017
0.0005810289
0.00057337957
0.00056572996
0.00055810521
0.00055047959
0.00054288032
0.00053527956
0.00052770676
0.00052013178
0.00051258651
0.00050503829
0.00049752169
0.00049000127
0.00048251449
0.00047502295
0.00046756724
0.00046010569
0.00045268233
0.00044525193
0.00043786228
0.00043046427
0.00042310981
0.00041574556
0.00040842789
0.0004010989
0.0003938198
0.00038652768
0.00037928902
0.00037203548
0.00036483925
0.00035762605
0.00035047433
0.0003433033
0.00033619826
0.00032907128
0.0003220152
0.00031493426
0.00030792956
0.00030089683
0.00029394615
0.00028696403
0.00028007034
0.00027314143
0.00026630803
0.00025943521
0.00025266563
0.00024585204
0.00023915004
0.00023239888
0.00022576835
0.00021908285
0.00021252777
0.0002059113
0.00019943585
0.00019289197
0.00018650087
0.00018003325
0.00017373213
0.00016734507
0.00016113967
0.00015483843
0.00014873493
0.00014252482
0.00013653083
0.00013041756
0.00012454138
0.00011853164
0.00011278247
0.0001068834
0.00010127119
9.5490243e-05
9.0025433e-05
8.4370894e-05
7.9065638e-05
7.3547227e-05
6.8416257e-05
6.3043645e-05
5.8102657e-05
5.2885504e-05
4.8152494e-05
4.3103931e-05
3.8600703e-05
3.3735812e-05
2.9488871e-05
2.4822049e-05
2.0873664e-05
1.6421064e-05
1.2817828e-05
8.5714159e-06
5.3943067e-06
1.2827141e-06
0.012250972
0.0095551122
0.0053507085
0.0022076885
0.00081780272
0.00066607779
0.00092130069
0.0011449931
0.0012506368
0.001281793
0.0012865541
0.0012870535
0.0012885087
0.0012903224
0.0012913148
0.0012909654
0.0012892741
0.0012864458
0.0012827155
0.001278277
0.0012732773
0.0012678211
0.0012619876
0.001255835
0.001249412
0.0012427563
0.0012359024
0.0012288766
0.0012217044
0.0012144046
0.0012069961
0.0011994922
0.0011919072
0.0011842505
0.001176533
0.0011687611
0.0011609437
0.0011530851
0.0011451924
0.0011372684
0.0011293192
0.0011213465
0.0011133553
0.0011053466
0.0010973248
0.00108929
0.0010812465
0.0010731935
0.0010651352
0.0010570704
0.0010490028
0.001040931
0.0010328586
0.0010247838
0.0010167102
0.0010086356
0.0010005637
0.0009924918
0.00098442388
0.0009763569
0.00096829489
0.00096023453
0.00095218002
0.00094412769
0.00093608199
0.0009280389
0.0009200031
0.00091197025
0.00090394532
0.00089592357
0.00088791032
0.00087990044
0.00087189959
0.00086390224
0.00085591446
0.00084793026
0.00083995616
0.00083198567
0.0008240258
0.00081606955
0.00080812446
0.00080018296
0.00079225316
0.00078432688
0.00077641287
0.00076850228
0.00076060456
0.00075271014
0.00074482921
0.00073695145
0.00072908783
0.00072122721
0.00071338145
0.00070553852
0.00069771122
0.00068988654
0.00068207833
0.0006742725
0.00066648403
0.00065869769
0.00065092964
0.00064316343
0.00063541652
0.00062767108
0.00061994599
0.00061222198
0.00060451944
0.00059681751
0.00058913824
0.00058145905
0.00057380382
0.00056614811
0.00055851774
0.00055088628
0.00054328167
0.00053567529
0.00052809742
0.00052051704
0.00051296693
0.00050541352
0.00049789231
0.00049036689
0.00048287573
0.00047537937
0.00046791948
0.00046045327
0.00045302593
0.00044559103
0.00043819759
0.00043079522
0.00042343715
0.00041606867
0.00040874758
0.00040141447
0.00039413212
0.00038683598
0.00037959425
0.00037233679
0.00036513765
0.00035792062
0.00035076614
0.00034359136
0.00033648371
0.00032935305
0.00032229452
0.00031520996
0.00030820296
0.00030116666
0.00029421384
0.00028722818
0.0002803325
0.00027340008
0.00026656485
0.00025968855
0.00025291729
0.00024610023
0.00023939671
0.00023264206
0.00022601018
0.00021932118
0.00021276491
0.00020614491
0.00019966845
0.00019312099
0.00018672907
0.00018025781
0.00017395607
0.0001675653
0.00016135946
0.00015505444
0.00014895072
0.00014273671
0.00013674274
0.00013062543
0.00012474953
0.00011873559
0.00011298696
0.00010708352
0.00010147214
9.5686604e-05
9.0222933e-05
8.456356e-05
7.9259802e-05
7.3736256e-05
6.8607206e-05
6.3229081e-05
5.8290446e-05
5.3067362e-05
4.8337216e-05
4.3282266e-05
3.8782431e-05
3.3910511e-05
2.9667671e-05
2.4992913e-05
2.104944e-05
1.6588267e-05
1.2988882e-05
8.7329741e-06
5.5337323e-06
1.3903134e-06
0.011479399
0.0093110214
0.0055823819
0.0025783906
0.00111501
0.00084675011
0.0010344615
0.0012284539
0.0013169131
0.0013338229
0.0013271868
0.0013196682
0.0013156898
0.0013135779
0.0013114761
0.0013085743
0.0013047579
0.0013001595
0.0012949493
0.001289263
0.0012832014
0.0012768331
0.0012702102
0.0012633696
0.0012563437
0.0012491567
0.0012418322
0.0012343878
0.0012268415
0.001219206
0.0012114953
0.0012037183
0.0011958858
0.0011880038
0.0011800809
0.0011721211
0.0011641314
0.0011561143
0.0011480756
0.0011400168
0.0011319428
0.0011238542
0.0011157554
0.0011076463
0.0010995309
0.0010914086
0.0010832832
0.0010751534
0.001067023
0.0010588903
0.0010507588
0.0010426267
0.0010344975
0.0010263688
0.0010182443
0.0010101214
0.0010020037
0.00099388825
0.00098577899
0.00097767261
0.00096957313
0.00096147698
0.00095338837
0.00094530342
0.00093722659
0.00092915366
0.00092108937
0.00091302914
0.00090497803
0.00089693109
0.00088889374
0.00088086061
0.00087283751
0.00086481866
0.00085681029
0.00084880615
0.00084081294
0.00083282392
0.0008248463
0.00081687279
0.00080891116
0.00080095355
0.00079300831
0.00078506697
0.00077713853
0.00076921383
0.00076130259
0.00075339494
0.00074550133
0.00073761111
0.00072973558
0.00072186324
0.00071400628
0.00070615229
0.00069831444
0.00069047932
0.00068266116
0.00067484546
0.00066704759
0.00065925189
0.00065147496
0.00064369987
0.00063594455
0.00062819068
0.00062045764
0.0006127256
0.00060501552
0.00059730594
0.00058961951
0.00058193304
0.00057427102
0.00056660834
0.00055897152
0.0005513334
0.00054372266
0.0005361099
0.0005285262
0.0005209397
0.00051338405
0.00050582477
0.00049829828
0.00049076722
0.00048327104
0.00047576924
0.00046830457
0.00046083312
0.00045340123
0.00044596127
0.0004385635
0.00043115623
0.00042379405
0.00041642082
0.00040909581
0.0004017581
0.00039447203
0.00038717143
0.00037992615
0.00037266434
0.00036546184
0.00035824057
0.00035108291
0.00034390397
0.00033679332
0.00032965859
0.00032259721
0.00031550866
0.00030849898
0.00030145875
0.00029450341
0.00028751387
0.00028061584
0.00027367959
0.00026684216
0.00025996205
0.00025318876
0.00024636792
0.00023966252
0.0002329041
0.00022627051
0.00021957772
0.00021301991
0.00020639611
0.00019991827
0.00019336697
0.00018697386
0.0001804987
0.00017419596
0.00016780125
0.00016159458
0.00015528554
0.0001491812
0.00014296305
0.00013696868
0.00013084713
0.00012497103
0.00011895271
0.00011320411
0.00010729612
0.00010168501
9.5894736e-05
9.043159e-05
8.4767243e-05
7.94643e-05
7.3935502e-05
6.8807587e-05
6.3423865e-05
5.8486661e-05
5.3257621e-05
4.8529244e-05
4.3467941e-05
3.8970155e-05
3.4091326e-05
2.9850856e-05
2.5168562e-05
2.1227256e-05
1.6758825e-05
1.3157029e-05
8.8941837e-06
5.6516137e-06
1.4710752e-06
0.010781448
0.0090196676
0.0057621162
0.0029261915
0.0014114388
0.0010318454
0.0011498672
0.0013145632
0.00138846
0.001392766
0.0013746878
0.0013584374
0.0013483822
0.0013418961
0.0013363348
0.0013305213
0.001324219
0.0013175065
0.0013105007
0.0013032821
0.0012959028
0.0012883924
0.0012807733
0.0012730588
0.0012652625
0.0012573932
0.0012494617
0.0012414749
0.0012334423
0.0012253692
0.0012172632
0.0012091282
0.0012009703
0.0011927918
0.0011845981
0.0011763901
0.0011681726
0.0011599459
0.0011517139
0.0011434765
0.0011352371
0.0011269951
0.0011187539
0.0011105121
0.0011022732
0.0010940355
0.0010858021
0.0010775712
0.001069346
0.0010611242
0.0010529091
0.0010446982
0.0010364946
0.0010282958
0.0010201051
0.0010119195
0.0010037425
0.00099557079
0.0009874082
0.00097925111
0.00097110349
0.00096296146
0.00095482924
0.00094670264
0.00093858616
0.0009304753
0.00092237485
0.00091427996
0.00090619579
0.00089811709
0.0008900494
0.00088198709
0.00087393609
0.00086589035
0.00085785625
0.00084982728
0.0008418103
0.00083379829
0.00082579864
0.0008178038
0.00080982173
0.00080184428
0.00079388003
0.0007859202
0.00077797404
0.00077003209
0.00076210431
0.00075418051
0.00074627144
0.00073836609
0.00073047608
0.00072258954
0.000714719
0.00070685166
0.00069900105
0.00069115336
0.0006833232
0.00067549564
0.00066768646
0.00065987957
0.00065209198
0.0006443063
0.00063654092
0.00062877701
0.00062103446
0.0006132929
0.00060557382
0.0005978552
0.00059016026
0.00058246518
0.00057479509
0.00056712421
0.00055947974
0.0005518338
0.0005442158
0.00053659558
0.00052900498
0.00052141134
0.00051384914
0.00050628302
0.0004987503
0.00049121268
0.00048371058
0.00047620248
0.00046873218
0.00046125467
0.00045381742
0.00044637162
0.00043896875
0.00043155586
0.00042418882
0.00041681016
0.00040948053
0.00040213757
0.0003948471
0.0003875414
0.00038029194
0.00037302519
0.00036581871
0.00035859262
0.00035143118
0.00034424756
0.00033713331
0.000329994
0.00032292922
0.00031583619
0.00030882328
0.00030177866
0.00029482026
0.00028782641
0.0002809255
0.00027398498
0.00026714485
0.00026026054
0.00025348471
0.00024665969
0.00023995192
0.00023318934
0.00022655354
0.00021985661
0.00021329675
0.0002066688
0.00020018907
0.0001936336
0.00018723878
0.00018075941
0.00017445513
0.00016805618
0.00016184811
0.00015553477
0.00014942923
0.00014320668
0.00013721129
0.00013108524
0.00012520829
0.00011918535
0.00011343608
0.00010752332
0.0001019117
9.6116489e-05
9.0653007e-05
8.4983516e-05
7.9680422e-05
7.4146228e-05
6.9018343e-05
6.3628923e-05
5.8691855e-05
5.345683e-05
4.8728668e-05
4.3661082e-05
3.9163393e-05
3.4277928e-05
3.003717e-05
2.5348204e-05
2.1404687e-05
1.6931363e-05
1.3318054e-05
9.0512029e-06
5.7450781e-06
1.522074e-06
0.010160712
0.0087031745
0.0058912041
0.0032474575
0.0017043422
0.0012195012
0.0012650895
0.0013997257
0.0014613175
0.0014552553
0.0014263394
0.0014009589
0.0013843432
0.0013732358
0.0013641247
0.0013553352
0.001346457
0.0013375184
0.0013285981
0.0013197287
0.0013109152
0.0013021484
0.0012934211
0.001284724
0.0012760526
0.0012674006
0.0012587666
0.001250147
0.0012415426
0.0012329511
0.0012243741
0.0012158096
0.0012072593
0.0011987215
0.0011901978
0.0011816863
0.001173189
0.0011647038
0.0011562328
0.0011477736
0.0011393284
0.001130895
0.0011224755
0.0011140674
0.0011056731
0.0010972899
0.0010889204
0.0010805618
0.0010722166
0.001063882
0.0010555607
0.0010472497
0.0010389518
0.0010306638
0.0010223888
0.0010141234
0.0010058709
0.00099762761
0.00098939713
0.00098117548
0.00097296658
0.00096476618
0.00095657847
0.00094839892
0.00094023204
0.000932073
0.00092392663
0.00091578778
0.00090766165
0.00089954273
0.00089143662
0.00088333741
0.00087525113
0.00086717145
0.00085910488
0.00085104462
0.00084299768
0.00083495677
0.00082692942
0.00081890782
0.00081090009
0.00080289781
0.00079490974
0.00078692683
0.00077895852
0.00077099506
0.00076304665
0.00075510278
0.00074717446
0.00073925036
0.00073134235
0.00072343825
0.00071555086
0.00070766704
0.00069980065
0.00069193748
0.00068409249
0.00067625037
0.00066842727
0.00066060665
0.00065280596
0.00064500732
0.00063722959
0.00062945344
0.00062169924
0.0006139461
0.00060621602
0.00059848642
0.00059078108
0.00058307558
0.00057539565
0.00056771488
0.00056006109
0.00055240573
0.0005447789
0.00053714972
0.00052955074
0.00052194855
0.0005143784
0.00050680411
0.00049926384
0.00049171841
0.00048420912
0.00047669354
0.00046921642
0.00046173174
0.00045428799
0.00044683531
0.00043942626
0.00043200675
0.00042463382
0.00041724879
0.00040991356
0.00040256444
0.00039526863
0.00038795699
0.00038070245
0.00037342995
0.00036621863
0.00035898697
0.00035182091
0.00034463187
0.00033751323
0.00033036865
0.00032329968
0.00031620151
0.00030918461
0.00030213497
0.00029517279
0.00028817402
0.00028126951
0.00027432417
0.00026748062
0.00026059156
0.00025381248
0.00024698278
0.00024027194
0.00023350472
0.000226866
0.00022016446
0.00021360184
0.0002069693
0.00020048698
0.00019392691
0.00018752966
0.00018104567
0.0001747391
0.00016833554
0.0001621253
0.0001558073
0.00014969975
0.00014347245
0.00013747519
0.00013134433
0.00012546561
0.00011943777
0.00011368683
0.00010776905
0.00010215583
9.6355459e-05
9.0890426e-05
8.5215612e-05
7.9911e-05
7.4371286e-05
6.9241848e-05
6.3846693e-05
5.8907878e-05
5.3666976e-05
4.8936716e-05
4.38632e-05
3.9362591e-05
3.4471333e-05
3.0226031e-05
2.553231e-05
2.1579805e-05
1.7105326e-05
1.3468661e-05
9.2004516e-06
5.8141194e-06
1.545902e-06
0.0096152889
0.0083794129
0.0059711912
0.0035381147
0.0019911656
0.0014099337
0.0013806271
0.0014832794
0.0015339528
0.001519788
0.001480978
0.0014461988
0.0014224695
0.0014064126
0.0013936596
0.0013818896
0.0013704263
0.00135923
0.0013483541
0.0013377935
0.0013275082
0.0013174484
0.0013075757
0.0012978571
0.0012882705
0.0012787949
0.001269417
0.0012601229
0.0012509049
0.0012417533
0.0012326639
0.0012236291
0.0012146466
0.0012057101
0.0011968184
0.0011879663
0.0011791532
0.0011703747
0.0011616309
0.0011529176
0.0011442354
0.0011355804
0.0011269536
0.0011183514
0.001109775
0.0011012208
0.0010926905
0.0010841806
0.0010756929
0.0010672238
0.0010587756
0.0010503446
0.0010419333
0.0010335378
0.0010251612
0.0010167992
0.0010084551
0.0010001248
0.00099181164
0.00098351128
0.00097522751
0.00096695571
0.0009587
0.00095045552
0.00094222671
0.00093400845
0.00092580554
0.00091761254
0.00090943467
0.00090126612
0.00089311253
0.00088496772
0.0008768378
0.00086871614
0.00086060935
0.00085251037
0.0008444263
0.00083634958
0.00082828789
0.00082023312
0.00081219356
0.0008041605
0.00079614288
0.00078813135
0.00078013556
0.00077214546
0.00076417145
0.00075620272
0.00074825051
0.00074030318
0.00073237287
0.00072444702
0.00071653876
0.00070863457
0.00070074861
0.00069286632
0.00068500298
0.00067714288
0.00066930254
0.000661465
0.0006536481
0.00064583351
0.00063804051
0.00063024931
0.00062248072
0.00061471335
0.00060696969
0.00059922663
0.00059150845
0.00058379021
0.00057609814
0.00056840528
0.00056074001
0.00055307316
0.00054543545
0.00053779534
0.00053018605
0.00052257346
0.00051499353
0.00050740933
0.00049985977
0.00049230487
0.00048478676
0.00047726214
0.00046977662
0.00046228329
0.00045483156
0.00044737059
0.00043995394
0.00043252648
0.00042514631
0.00041775364
0.00041041151
0.00040305505
0.00039575267
0.00038843396
0.00038117314
0.00037389381
0.0003666765
0.00035943824
0.00035226646
0.00034507103
0.00033794693
0.00033079615
0.00032372196
0.00031661777
0.00030959589
0.00030254038
0.00029557343
0.00028856895
0.00028165988
0.00027470896
0.00026786105
0.00026096652
0.00025418326
0.00024734818
0.00024063334
0.00023386082
0.00022721826
0.00022051149
0.00021394519
0.00020730745
0.00020082159
0.00019425636
0.00018785572
0.00018136659
0.00017505672
0.00016864805
0.00016243461
0.00015611149
0.00015000084
0.00014376838
0.00013776809
0.00013163203
0.0001257503
0.00011971722
0.00011396324
0.00010804017
0.00010242384
9.66181e-05
9.1149824e-05
8.5469566e-05
8.0161497e-05
7.4616269e-05
6.9482992e-05
6.4082301e-05
5.9138965e-05
5.3892698e-05
4.9156846e-05
4.4078417e-05
3.9570263e-05
3.4675089e-05
3.0418831e-05
2.5723629e-05
2.1752804e-05
1.7281748e-05
1.3608341e-05
9.3401819e-06
5.8622941e-06
1.55019e-06
0.0091372747
0.0080612097
0.0060049694
0.0037938382
0.0022680721
0.0016031823
0.0014976505
0.001565344
0.0016054526
0.0015853093
0.0015379592
0.0014938017
0.0014624197
0.0014409828
0.00142442
0.001409645
0.0013955923
0.0013821128
0.0013692418
0.001356952
0.0013451648
0.0013337885
0.0013227507
0.0013119929
0.0013014741
0.0012911584
0.0012810204
0.0012710357
0.0012611882
0.0012514605
0.0012418424
0.0012323209
0.0012228891
0.001213537
0.0012042599
0.0011950497
0.0011859033
0.0011768139
0.0011677797
0.0011587946
0.0011498577
0.0011409637
0.0011321125
0.001123299
0.0011145237
0.0011057819
0.0010970746
0.0010883973
0.0010797515
0.0010711325
0.0010625425
0.0010539768
0.0010454378
0.001036921
0.001028429
0.0010199572
0.0010115087
0.0010030788
0.0009946708
0.00098627988
0.00097790974
0.00096955536
0.00096122081
0.00095290084
0.00094459989
0.00093631247
0.0009280434
0.0009197869
0.00091154822
0.00090332124
0.00089511166
0.00088691298
0.00087873139
0.00087055998
0.00086240544
0.0008542604
0.00084613211
0.0008380127
0.00082991
0.00082181559
0.00081373792
0.00080566798
0.00079761491
0.00078956903
0.00078154019
0.00077351804
0.00076551319
0.00075751451
0.00074953348
0.00074155813
0.00073360084
0.00072564874
0.00071771521
0.00070978638
0.00070187672
0.00069397128
0.00068608567
0.0006782038
0.00067034252
0.00066248447
0.00065464785
0.00064681393
0.00063900235
0.00063119289
0.00062340677
0.00061562214
0.00060786193
0.00060010253
0.00059236872
0.00058463499
0.00057692813
0.00056922059
0.00056154131
0.00055386052
0.00054620954
0.00053855618
0.0005309343
0.0005233091
0.00051571721
0.000508121
0.00050056009
0.00049299374
0.00048546484
0.00047792928
0.00047043349
0.00046292971
0.00045546821
0.00044799723
0.00044057126
0.00043313422
0.00042574518
0.00041834332
0.00041099272
0.00040362744
0.00039631697
0.00038898977
0.00038172123
0.00037443373
0.00036720903
0.00035996289
0.00035278405
0.000345581
0.00033845013
0.00033129198
0.0003242113
0.00031709998
0.00031007187
0.00030300944
0.00029603652
0.0002890253
0.0002821105
0.00027515302
0.00026829958
0.00026139866
0.00025461007
0.00024776874
0.00024104874
0.0002342701
0.00022762254
0.00022090974
0.00021433858
0.00020769491
0.00020120432
0.00019463322
0.00018822797
0.00018173303
0.00017541862
0.00016900423
0.00016278626
0.00015645745
0.00015034232
0.00014410418
0.00013809937
0.00013195769
0.00012607131
0.00012003264
0.00011427384
0.00010834522
0.00010272376
9.6912538e-05
9.1438704e-05
8.575307e-05
8.0438842e-05
7.4888416e-05
6.9748065e-05
6.4342515e-05
5.939068e-05
5.4140253e-05
4.9393788e-05
4.4312412e-05
3.9790206e-05
3.4894131e-05
3.0618394e-05
2.5925896e-05
2.1925672e-05
1.7462145e-05
1.3738802e-05
9.4703127e-06
5.8949455e-06
1.5447833e-06
0.0087161067
0.0077571651
0.0059984324
0.0040115999
0.0025309683
0.0017987717
0.0016174824
0.0016465189
0.0016752427
0.0016508605
0.0015967098
0.0015436197
0.0015041814
0.0014768698
0.0014562399
0.0014383945
0.001421744
0.0014059571
0.001391045
0.0013769749
0.001363642
0.0013509152
0.0013386857
0.0013268663
0.0013153962
0.0013042233
0.0012933103
0.0012826219
0.001272133
0.0012618186
0.0012516619
0.0012416444
0.0012317548
0.0012219787
0.0012123083
0.0012027319
0.0011932444
0.0011838362
0.0011745038
0.0011652389
0.0011560396
0.0011468986
0.0011378148
0.0011287819
0.0011197995
0.0011108619
0.0011019693
0.0010931163
0.001084304
0.0010755268
0.0010667865
0.0010580779
0.0010494029
0.0010407563
0.0010321408
0.0010235511
0.0010149901
0.0010064525
0.00099794169
0.00098945231
0.00098098803
0.00097254337
0.00096412241
0.00095571947
0.00094733903
0.00093897519
0.00093063286
0.00092230584
0.00091399949
0.0009057073
0.00089743511
0.00088917604
0.00088093642
0.00087270897
0.00086450055
0.00085630343
0.00084812505
0.00083995716
0.0008318078
0.0008236682
0.00081554702
0.0008074349
0.00079934119
0.00079125588
0.00078318905
0.00077512997
0.00076708955
0.00075905627
0.0007510419
0.00074303407
0.00073504549
0.00072706288
0.00071909994
0.00071114242
0.0007032051
0.00069527263
0.00068736099
0.00067945363
0.00067156781
0.00066368571
0.00065582594
0.00064796929
0.00064013585
0.00063230489
0.00062449811
0.00061669313
0.00060891337
0.00060113468
0.00059338236
0.00058563033
0.00057790593
0.00057018101
0.0005624851
0.0005547878
0.00054712102
0.00053945195
0.00053181508
0.00052417491
0.00051656877
0.00050895829
0.00050138382
0.00049380386
0.00048626205
0.00047871349
0.00047120541
0.00046368919
0.00045621596
0.00044873308
0.00044129594
0.0004338475
0.00042644778
0.00041903499
0.0004116742
0.00040429842
0.0003969782
0.00038964091
0.00038236304
0.00037506582
0.00036783218
0.00036057668
0.00035338927
0.00034617719
0.00033903808
0.00033187122
0.00032478262
0.00031766286
0.00031062713
0.00030355654
0.00029657626
0.00028955713
0.00028263523
0.00027567007
0.00026880976
0.00026190137
0.00025510611
0.0002482575
0.00024153101
0.00023474526
0.00022809135
0.0002213716
0.00021479422
0.00020814373
0.00020164701
0.00019506922
0.0001886579
0.00018215642
0.00017583593
0.00016941514
0.00016319103
0.00015685594
0.00015073457
0.00014449028
0.00013847903
0.00013233135
0.00012643823
0.00012039374
0.00011462776
0.00010869353
0.00010306426
9.7247726e-05
9.1765233e-05
8.6074683e-05
8.0750638e-05
7.5195866e-05
7.004405e-05
6.4635008e-05
5.9669322e-05
5.4416779e-05
4.9653109e-05
4.4571642e-05
4.0027242e-05
3.5133949e-05
3.0828879e-05
2.6143102e-05
2.210203e-05
1.7648316e-05
1.3863429e-05
9.5926671e-06
5.9182526e-06
1.5400983e-06
0.0083411689
0.0074723181
0.0059597952
0.0041904328
0.0027760191
0.0019954055
0.0017412354
0.0017277918
0.0017431212
0.0017155853
0.0016565891
0.0015954892
0.0015478398
0.0015141533
0.0014891083
0.001468069
0.0014488031
0.0014306944
0.0014137
0.0013977933
0.0013828601
0.0013687375
0.0013552801
0.0013423694
0.0013299218
0.0013178687
0.00130616
0.0012947495
0.0012836032
0.0012726878
0.0012619801
0.0012514556
0.0012410982
0.0012308891
0.0012208172
0.0012108674
0.001201032
0.0011912988
0.0011816624
0.0011721124
0.0011626454
0.0011532525
0.0011439316
0.0011346747
0.0011254809
0.0011163429
0.0011072609
0.001098228
0.0010892449
0.0010803053
0.0010714107
0.0010625548
0.0010537396
0.0010449592
0.0010362159
0.0010275039
0.0010188261
0.0010101766
0.0010015587
0.00099296657
0.00098440388
0.00097586459
0.00096735293
0.00095886266
0.00095039846
0.00094195385
0.00093353398
0.00092513211
0.00091675385
0.00090839217
0.00090005316
0.00089172944
0.00088342763
0.00087513995
0.00086687356
0.00085862023
0.00085038772
0.0008421673
0.00083396733
0.00082577856
0.00081761001
0.00080945179
0.00080131368
0.00079318511
0.0007850766
0.00077697688
0.0007688973
0.00076082579
0.00075277457
0.00074473074
0.00073670746
0.0007286909
0.00072069527
0.0007127057
0.00070473752
0.00069677479
0.000688834
0.00068089802
0.00067298465
0.00066507545
0.00065718962
0.00064930729
0.00064144917
0.00063359386
0.00062576369
0.00061793559
0.00061013364
0.00060233298
0.0005945596
0.00058678669
0.00057904229
0.00057129749
0.00056358256
0.00055586632
0.00054818147
0.00054049434
0.00053284025
0.00052518285
0.00051756032
0.00050993339
0.00050234329
0.0004947476
0.00048719088
0.00047962727
0.00047210496
0.00046457433
0.00045708752
0.00044959083
0.0004421407
0.00043467902
0.00042726687
0.00041984138
0.00041246868
0.0004050807
0.00039774907
0.00039040005
0.00038311123
0.00037580271
0.00036855856
0.00036129217
0.00035409464
0.00034687206
0.00033972322