/*--------------------------------*- C++ -*----------------------------------*\
| =========                 |                                                 |
| \\      /  F ield         | OpenFOAM: The Open Source CFD Toolbox           |
|  \\    /   O peration     | Version:  5.x                                   |
|   \\  /    A nd           | Web:      www.OpenFOAM.org                      |
|    \\/     M anipulation  |                                                 |
\*---------------------------------------------------------------------------*/
FoamFile
{
    version     2.0;
    format      ascii;
    class       surfaceScalarField;
    location    "0.8";
    object      phi;
}
// * * * * * * * * * * * * * * * * * * * * * * * * * * * * * * * * * * * * * //

dimensions      [0 3 -1 0 0 0 0];

internalField   nonuniform List<scalar> 
42870
(
2.977056e-08
9.9456557e-09
-3.9716216e-08
2.0560996e-08
9.2095644e-09
1.4207198e-08
6.3537976e-09
1.0639472e-08
3.5677265e-09
8.8228447e-09
1.8166269e-09
7.8252001e-09
9.9764464e-10
7.1956245e-09
6.2957556e-10
6.7342304e-09
4.6139414e-10
6.3576285e-09
3.7660194e-10
6.0343389e-09
3.232896e-10
5.7524599e-09
2.81879e-10
5.5056264e-09
2.468335e-10
5.2884058e-09
2.172205e-10
5.0957878e-09
1.9261804e-10
4.9234834e-09
1.723044e-10
4.7680473e-09
1.5543612e-10
4.6267958e-09
1.4125148e-10
4.4976369e-09
1.2915886e-10
4.3789147e-09
1.1872222e-10
4.2692872e-09
1.0962756e-10
4.1676483e-09
1.0163885e-10
4.0730711e-09
9.4577228e-11
3.984773e-09
8.8298066e-11
3.9020858e-09
8.2687229e-11
3.8244376e-09
7.7648157e-11
3.7513338e-09
7.3103789e-11
3.6823468e-09
6.8987072e-11
3.6171019e-09
6.5244828e-11
3.5552726e-09
6.1829343e-11
3.4965693e-09
5.8703255e-11
3.4407376e-09
5.5831724e-11
3.3875496e-09
5.3188028e-11
3.3368036e-09
5.0746032e-11
3.2883172e-09
4.8486324e-11
3.2419285e-09
4.6388778e-11
3.1974893e-09
4.4439129e-11
3.1548678e-09
4.2621508e-11
3.1139424e-09
4.0925388e-11
3.0746045e-09
3.9337952e-11
3.036753e-09
3.7851434e-11
3.0002978e-09
3.6455257e-11
2.965154e-09
3.5143752e-11
2.931246e-09
3.3907994e-11
2.8985021e-09
3.2743932e-11
2.8668582e-09
3.1643868e-11
2.8362532e-09
3.0605034e-11
2.8066326e-09
2.9620639e-11
2.7779436e-09
2.8688951e-11
2.7501398e-09
2.780385e-11
2.7231753e-09
2.6964456e-11
2.6970102e-09
2.6165137e-11
2.6716044e-09
2.5405738e-11
2.6469235e-09
2.4680969e-11
2.6229322e-09
2.39913e-11
2.5996005e-09
2.3331671e-11
2.5768974e-09
2.2703107e-11
2.5547967e-09
2.210068e-11
2.5332708e-09
2.1525922e-11
2.5122968e-09
2.0973962e-11
2.49185e-09
2.04468e-11
2.4719105e-09
1.9939554e-11
2.4524558e-09
1.9454676e-11
2.4334686e-09
1.8987207e-11
2.4149285e-09
1.8540041e-11
2.3968204e-09
1.8108089e-11
2.3791257e-09
1.7694685e-11
2.3618312e-09
1.7294556e-11
2.3449197e-09
1.6911483e-11
2.3283797e-09
1.6539961e-11
2.3121955e-09
1.6184229e-11
2.296357e-09
1.5838501e-11
2.2808495e-09
1.5507491e-11
2.2656644e-09
1.5185085e-11
2.2507879e-09
1.4876498e-11
2.2362127e-09
1.4575236e-11
2.2219257e-09
1.4287043e-11
2.2079207e-09
1.4004999e-11
2.1941852e-09
1.3735406e-11
2.1807144e-09
1.3470868e-11
2.1674961e-09
1.3218286e-11
2.1545264e-09
1.2969728e-11
2.1417936e-09
1.2732741e-11
2.1292948e-09
1.2498801e-11
2.1170187e-09
1.2276146e-11
2.1049631e-09
1.2055603e-11
2.0931169e-09
1.1846152e-11
2.081479e-09
1.1637905e-11
2.0700384e-09
1.1440646e-11
2.0587947e-09
1.1243703e-11
2.0477369e-09
1.105773e-11
2.0368657e-09
1.0871195e-11
2.02617e-09
1.0695693e-11
2.0156513e-09
1.0518749e-11
2.0052983e-09
1.035298e-11
1.9951134e-09
1.0184886e-11
1.9850852e-09
1.0028191e-11
1.975217e-09
9.8682709e-12
1.9654969e-09
9.7200501e-12
1.9559292e-09
9.5676834e-12
1.9465018e-09
9.4273959e-12
1.9372198e-09
9.2820119e-12
1.9280706e-09
9.1491707e-12
1.9190604e-09
9.0102452e-12
1.910176e-09
8.8844094e-12
1.9014245e-09
8.7514561e-12
1.8927923e-09
8.6322273e-12
1.8842875e-09
8.5047964e-12
1.8758957e-09
8.3918161e-12
1.8676262e-09
8.2694874e-12
1.8594638e-09
8.1624318e-12
1.8514189e-09
8.044812e-12
1.8434756e-09
7.9433912e-12
1.8356454e-09
7.8301118e-12
1.8279114e-09
7.7340646e-12
1.8202866e-09
7.624778e-12
1.8127527e-09
7.5338733e-12
1.8053245e-09
7.4282518e-12
1.7979822e-09
7.3422853e-12
1.7907422e-09
7.240013e-12
1.7835834e-09
7.158805e-12
1.7765238e-09
7.0595827e-12
1.7695408e-09
6.982978e-12
1.7626543e-09
6.8865175e-12
1.7558399e-09
6.8143815e-12
1.7491195e-09
6.7204021e-12
1.7424669e-09
6.6526252e-12
1.735906e-09
6.5608549e-12
1.7294087e-09
6.4973474e-12
1.7230012e-09
6.4075171e-12
1.716653e-09
6.3482121e-12
1.7103929e-09
6.2600582e-12
1.704188e-09
6.2049089e-12
1.6980698e-09
6.1181693e-12
1.6920027e-09
6.0671494e-12
1.6860211e-09
5.9815614e-12
1.6800864e-09
5.9346682e-12
1.6742365e-09
5.8499657e-12
1.6684293e-09
5.8072171e-12
1.6627061e-09
5.7231315e-12
1.6570216e-09
5.684569e-12
1.6514207e-09
5.6008229e-12
1.6458542e-09
5.5665129e-12
1.6403714e-09
5.4828212e-12
1.6349185e-09
5.4528542e-12
1.6295496e-09
5.3689219e-12
1.6242062e-09
5.3434142e-12
1.6189473e-09
5.2589322e-12
1.6137092e-09
5.2380303e-12
1.6085566e-09
5.152675e-12
1.60342e-09
5.1365546e-12
1.59837e-09
5.0499829e-12
1.5933312e-09
5.0388558e-12
1.5883805e-09
4.9506993e-12
1.5834357e-09
4.9448103e-12
1.578581e-09
4.8546766e-12
1.5737267e-09
4.8543139e-12
1.5689649e-09
4.7617786e-12
1.5641976e-09
4.7672786e-12
1.5595257e-09
4.671886e-12
1.5548421e-09
4.6836281e-12
1.5502572e-09
4.5848793e-12
1.5456539e-09
4.6033016e-12
1.5411532e-09
4.5006497e-12
1.536627e-09
4.5262573e-12
1.5322079e-09
4.4191014e-12
1.5277554e-09
4.4524753e-12
1.5234152e-09
4.3401447e-12
1.5190333e-09
4.3819372e-12
1.5147696e-09
4.2637085e-12
1.5104549e-09
4.3146709e-12
1.5062652e-09
4.1897068e-12
1.5020145e-09
4.2507248e-12
1.4978964e-09
4.1180916e-12
1.4937062e-09
4.1901499e-12
1.4896574e-09
4.0488239e-12
1.4855243e-09
4.1330669e-12
1.4815425e-09
3.9818407e-12
1.4774629e-09
4.0796205e-12
1.4735457e-09
3.9171391e-12
1.4695157e-09
4.0300112e-12
1.465661e-09
3.8547106e-12
1.4616765e-09
3.9845177e-12
1.4578819e-09
3.7945493e-12
1.4539384e-09
3.9434951e-12
1.4502017e-09
3.7367e-12
1.4462943e-09
3.9074189e-12
1.4426131e-09
3.6812234e-12
1.4387361e-09
3.8769617e-12
1.4351079e-09
3.6282161e-12
1.4312548e-09
3.8530499e-12
1.427677e-09
3.5777733e-12
1.42384e-09
3.8370623e-12
1.4203098e-09
3.5301088e-12
1.4164786e-09
3.8312714e-12
1.4129931e-09
3.4854734e-12
1.4091533e-09
3.8397273e-12
1.4057081e-09
3.4451449e-12
1.4018309e-09
3.8772419e-12
1.3984068e-09
3.4241273e-12
4.3798506e-12
4.1944525e-08
1.0465747e-08
-4.2464616e-08
3.8698266e-08
1.2455823e-08
3.4615614e-08
1.043645e-08
3.0799616e-08
7.3837241e-09
2.765172e-08
4.9645226e-09
2.5118386e-08
3.530979e-09
2.3094198e-08
2.6537631e-09
2.1480356e-08
2.0752364e-09
2.0180164e-08
1.6767943e-09
1.9107538e-08
1.3959152e-09
1.819929e-08
1.1901273e-09
1.7414105e-08
1.0320184e-09
1.6725091e-08
9.0623423e-10
1.6113729e-08
8.0398003e-10
1.556638e-08
7.1965386e-10
1.5072536e-08
6.4927984e-10
1.4623932e-08
5.8985586e-10
1.4213981e-08
5.3910999e-10
1.3837379e-08
4.9532369e-10
1.3489801e-08
4.5720563e-10
1.3167677e-08
4.2376292e-10
1.2868026e-08
3.9422821e-10
1.2588338e-08
3.6798635e-10
1.2326477e-08
3.4454785e-10
1.2080618e-08
3.2350704e-10
1.1849186e-08
3.0453574e-10
1.1630818e-08
2.8735551e-10
1.1424323e-08
2.717399e-10
1.122866e-08
2.5749236e-10
1.104291e-08
2.444529e-10
1.0866263e-08
2.3247909e-10
1.0697995e-08
2.2145544e-10
1.0537465e-08
2.1127616e-10
1.0384095e-08
2.0185624e-10
1.0237369e-08
1.9311528e-10
1.0096818e-08
1.8498969e-10
9.9620225e-09
1.7741707e-10
9.8325986e-09
1.7034935e-10
9.7081994e-09
1.6373711e-10
9.5885072e-09
1.5754366e-10
9.4732333e-09
1.5172917e-10
9.3621116e-09
1.4626548e-10
9.2548996e-09
1.4111993e-10
9.1513727e-09
1.3627088e-10
9.0513255e-09
1.3169107e-10
8.9545666e-09
1.2736393e-10
8.8609209e-09
1.2326628e-10
8.7702243e-09
1.1938559e-10
8.6823264e-09
1.157018e-10
8.5970852e-09
1.1220559e-10
8.5143711e-09
1.088793e-10
8.4340605e-09
1.0571626e-10
8.3560409e-09
1.0270064e-10
8.2802042e-09
9.9827977e-11
8.2064521e-09
9.7083797e-11
8.1346896e-09
9.4465525e-11
8.0648306e-09
9.1959707e-11
7.9967911e-09
8.95654e-11
7.9304952e-09
8.7269877e-11
7.8658684e-09
8.5073643e-11
7.8028435e-09
8.2964457e-11
7.741354e-09
8.0944142e-11
7.6813405e-09
7.9000732e-11
7.6227432e-09
7.7137279e-11
7.5655094e-09
7.5341908e-11
7.5095852e-09
7.3618842e-11
7.4549237e-09
7.1956139e-11
7.401476e-09
7.0359155e-11
7.3492002e-09
6.8815738e-11
7.2980521e-09
6.7332361e-11
7.247994e-09
6.5896527e-11
7.1989857e-09
6.4515836e-11
7.1509935e-09
6.3177313e-11
7.1039802e-09
6.1889708e-11
7.057916e-09
6.0639446e-11
7.0127666e-09
5.9436461e-11
6.9685052e-09
5.8266455e-11
6.9251e-09
5.7140602e-11
6.8825271e-09
5.6043749e-11
6.840757e-09
5.4988379e-11
6.7997683e-09
5.3958353e-11
6.7595335e-09
5.2967545e-11
6.7200336e-09
5.1998701e-11
6.6812426e-09
5.1067174e-11
6.6431438e-09
5.0154453e-11
6.6057124e-09
4.9277475e-11
6.568934e-09
4.8416332e-11
6.532785e-09
4.758966e-11
6.4972527e-09
4.6776e-11
6.4623146e-09
4.5995823e-11
6.4279598e-09
4.5225949e-11
6.3941667e-09
4.4488831e-11
6.3609261e-09
4.3759391e-11
6.3282168e-09
4.3062227e-11
6.2960315e-09
4.2370176e-11
6.2643495e-09
4.1710165e-11
6.2331651e-09
4.1052738e-11
6.2024578e-09
4.042734e-11
6.1722235e-09
3.9802003e-11
6.1424419e-09
3.9208913e-11
6.1131106e-09
3.8613351e-11
6.0842093e-09
3.8050481e-11
6.055737e-09
3.7482571e-11
6.0276733e-09
3.694802e-11
6.000019e-09
3.6405807e-11
5.9727534e-09
3.5897848e-11
5.9458786e-09
3.537953e-11
5.9193739e-09
3.4896593e-11
5.8932428e-09
3.4400501e-11
5.8674641e-09
3.3941156e-11
5.8420432e-09
3.3465739e-11
5.8169579e-09
3.3028687e-11
5.7922155e-09
3.2572505e-11
5.767793e-09
3.2156564e-11
5.7436995e-09
3.1718272e-11
5.719911e-09
3.1322371e-11
5.6964385e-09
3.0900714e-11
5.6732569e-09
3.0523885e-11
5.6503793e-09
3.0117671e-11
5.6277791e-09
2.9759039e-11
5.6054715e-09
2.9367155e-11
5.5834285e-09
2.9025931e-11
5.5616677e-09
2.8647319e-11
5.5401593e-09
2.8322795e-11
5.5189233e-09
2.7956444e-11
5.4979279e-09
2.7647994e-11
5.4771958e-09
2.7292943e-11
5.4566931e-09
2.7000013e-11
5.4364453e-09
2.6655332e-11
5.4164161e-09
2.6377442e-11
5.3966339e-09
2.6042238e-11
5.3770599e-09
2.5778976e-11
5.3577256e-09
2.5452383e-11
5.3385894e-09
2.52034e-11
5.3196864e-09
2.4884571e-11
5.3009715e-09
2.4649593e-11
5.2824837e-09
2.4337692e-11
5.2641744e-09
2.4116504e-11
5.2460869e-09
2.3810708e-11
5.2281683e-09
2.3603166e-11
5.2104664e-09
2.3302649e-11
5.1929243e-09
2.3108679e-11
5.1755945e-09
2.2812616e-11
5.1584151e-09
2.2632207e-11
5.1414443e-09
2.2339767e-11
5.1246147e-09
2.2172981e-11
5.1079903e-09
2.1883315e-11
5.0914981e-09
2.173029e-11
5.0752082e-09
2.1442536e-11
5.0590413e-09
2.1303484e-11
5.0430745e-09
2.1016748e-11
5.0272214e-09
2.0891974e-11
5.0115668e-09
2.060532e-11
4.9960164e-09
2.0495209e-11
4.9806634e-09
2.0207661e-11
4.965405e-09
2.0112701e-11
4.9503435e-09
1.9823237e-11
4.9353667e-09
1.9744026e-11
4.9205871e-09
1.9451562e-11
4.9058819e-09
1.9388805e-11
4.8913746e-09
1.9092176e-11
4.8769312e-09
1.9046707e-11
4.8626871e-09
1.8744668e-11
4.8484959e-09
1.8717473e-11
4.8345063e-09
1.8408682e-11
4.8205579e-09
1.8400906e-11
4.8068141e-09
1.8083896e-11
4.7930992e-09
1.8096853e-11
4.7795929e-09
1.7770044e-11
4.7661023e-09
1.780527e-11
4.7528251e-09
1.746689e-11
4.7395496e-09
1.752617e-11
4.7264934e-09
1.7174284e-11
4.7134239e-09
1.7259646e-11
4.7005806e-09
1.6892134e-11
4.6877077e-09
1.7005936e-11
4.6750692e-09
1.6620375e-11
4.6623834e-09
1.6765367e-11
4.6499415e-09
1.6359084e-11
4.637433e-09
1.6538453e-11
4.6251793e-09
1.6108424e-11
4.6128379e-09
1.6325897e-11
4.6007638e-09
1.5868659e-11
4.5885787e-09
1.6128626e-11
4.5766751e-09
1.5640275e-11
4.5646346e-09
1.5947903e-11
4.5528919e-09
1.5423961e-11
4.5409833e-09
1.5785469e-11
4.5293908e-09
1.5220773e-11
4.5176001e-09
1.5643685e-11
4.5061456e-09
1.503227e-11
4.4944568e-09
1.5525883e-11
4.4831257e-09
1.4861091e-11
4.4715199e-09
1.5437058e-11
4.4602933e-09
1.4711961e-11
4.4487473e-09
1.5385786e-11
4.4375952e-09
1.4597131e-11
4.4260649e-09
1.5407777e-11
4.4148962e-09
1.4592792e-11
1.6460266e-11
4.4985351e-08
9.3760376e-09
-4.3895642e-08
4.4926072e-08
1.2515102e-08
4.3804102e-08
1.155842e-08
4.2100666e-08
9.0871596e-09
4.0236484e-08
6.8287044e-09
3.8381078e-08
5.386386e-09
3.6586021e-08
4.4488197e-09
3.4904345e-08
3.7569124e-09
3.3367591e-08
3.2135479e-09
3.1978125e-08
2.7853817e-09
3.0723399e-08
2.4448533e-09
2.9588139e-08
2.1672783e-09
2.8558341e-08
1.9360318e-09
2.7621659e-08
1.7406621e-09
2.6767022e-08
1.5742915e-09
2.5984487e-08
1.4318147e-09
2.5265268e-08
1.3090749e-09
2.4601729e-08
1.2026493e-09
2.3987311e-08
1.1097411e-09
2.3416409e-08
1.0281075e-09
2.2884232e-08
9.5594005e-10
2.2386672e-08
8.9178835e-10
2.1920193e-08
8.3446519e-10
2.1481736e-08
7.8300565e-10
2.1068638e-08
7.3660417e-10
2.0678577e-08
6.9459752e-10
2.030951e-08
6.5642241e-10
1.9959638e-08
6.2161148e-10
1.9627369e-08
5.8976103e-10
1.9311288e-08
5.6053428e-10
1.9010132e-08
5.3363524e-10
1.8722771e-08
5.0881632e-10
1.8448191e-08
4.8585589e-10
1.8185479e-08
4.6456858e-10
1.7933809e-08
4.4478523e-10
1.7692434e-08
4.2636486e-10
1.7460675e-08
4.0917615e-10
1.7237914e-08
3.931105e-10
1.7023586e-08
3.7806429e-10
1.6817177e-08
3.6395289e-10
1.6618213e-08
3.5069337e-10
1.6426259e-08
3.3821918e-10
1.6240916e-08
3.26463e-10
1.6061815e-08
3.1537212e-10
1.5888615e-08
3.0489116e-10
1.5721001e-08
2.9497814e-10
1.555868e-08
2.8558691e-10
1.5401382e-08
2.7668393e-10
1.5248853e-08
2.6823021e-10
1.510086e-08
2.6019897e-10
1.4957182e-08
2.5255684e-10
1.4817616e-08
2.4528247e-10
1.468197e-08
2.3834693e-10
1.4550064e-08
2.3173332e-10
1.4421732e-08
2.254162e-10
1.4296815e-08
2.193824e-10
1.4175166e-08
2.1360919e-10
1.4056645e-08
2.0808654e-10
1.3941121e-08
2.0279388e-10
1.382847e-08
1.9772386e-10
1.3718577e-08
1.9285757e-10
1.3611331e-08
1.8819001e-10
1.3506629e-08
1.8370351e-10
1.3404371e-08
1.7939517e-10
1.3304464e-08
1.752482e-10
1.3206822e-08
1.7126164e-10
1.3111358e-08
1.674193e-10
1.3017996e-08
1.6372197e-10
1.2926658e-08
1.6015379e-10
1.2837273e-08
1.5671725e-10
1.2749773e-08
1.533966e-10
1.2664093e-08
1.5019593e-10
1.258017e-08
1.4709937e-10
1.2497948e-08
1.4411264e-10
1.2417367e-08
1.4121953e-10
1.2338377e-08
1.3842736e-10
1.2260924e-08
1.3571942e-10
1.218496e-08
1.3310466e-10
1.2110438e-08
1.3056565e-10
1.2037313e-08
1.2811305e-10
1.1965543e-08
1.2572851e-10
1.1895086e-08
1.2342447e-10
1.1825903e-08
1.211815e-10
1.1757956e-08
1.1901388e-10
1.169121e-08
1.1690089e-10
1.1625629e-08
1.1485879e-10
1.156118e-08
1.1286539e-10
1.149783e-08
1.1093904e-10
1.143555e-08
1.0905585e-10
1.137431e-08
1.0723645e-10
1.1314081e-08
1.0545502e-10
1.1254835e-08
1.0373461e-10
1.1196547e-08
1.0204727e-10
1.113919e-08
1.0041867e-10
1.1082742e-08
9.8818467e-11
1.1027177e-08
9.7275177e-11
1.0972474e-08
9.5755784e-11
1.091861e-08
9.4291897e-11
1.0865564e-08
9.2847539e-11
1.0813315e-08
9.1457684e-11
1.0761846e-08
9.0083085e-11
1.0711134e-08
8.8762381e-11
1.0661163e-08
8.7452712e-11
1.0611915e-08
8.6196704e-11
1.0563373e-08
8.4947526e-11
1.0515519e-08
8.375215e-11
1.0468339e-08
8.2559383e-11
1.0421815e-08
8.1420931e-11
1.0375934e-08
8.0280805e-11
1.033068e-08
7.9195883e-11
1.028604e-08
7.8104913e-11
1.0241999e-08
7.7070419e-11
1.0198546e-08
7.6025378e-11
1.0155664e-08
7.5038473e-11
1.0113346e-08
7.4036365e-11
1.0071574e-08
7.3094455e-11
1.0030342e-08
7.2132492e-11
9.9896326e-09
7.1233207e-11
9.9494415e-09
7.0308772e-11
9.9097505e-09
6.9449945e-11
9.8705571e-09
6.8560603e-11
9.8318428e-09
6.7740256e-11
9.7936064e-09
6.6883712e-11
9.7558291e-09
6.6100039e-11
9.7185115e-09
6.5274128e-11
9.681634e-09
6.4525494e-11
9.6451987e-09
6.3728176e-11
9.6091856e-09
6.3013095e-11
9.5735985e-09
6.2242426e-11
9.5384164e-09
6.1559566e-11
9.503645e-09
6.0813701e-11
9.4692621e-09
6.0161863e-11
9.4352754e-09
5.943904e-11
9.4016617e-09
5.8817156e-11
9.3684306e-09
5.8115678e-11
9.3355573e-09
5.7522816e-11
9.303054e-09
5.6841046e-11
9.2708941e-09
5.6276392e-11
9.239092e-09
5.5612746e-11
9.2076196e-09
5.5075612e-11
9.1764937e-09
5.4428535e-11
9.145684e-09
5.3918357e-11
9.1152103e-09
5.3286331e-11
9.0850399e-09
5.280266e-11
9.0551954e-09
5.2184192e-11
9.0256417e-09
5.1726699e-11
8.9964047e-09
5.1120304e-11
8.9674462e-09
5.0688789e-11
8.9387958e-09
5.0092991e-11
8.9104119e-09
4.9687373e-11
8.882328e-09
4.9100684e-11
8.8544989e-09
4.8721027e-11
8.8269623e-09
4.814193e-11
8.7996691e-09
4.7788425e-11
8.7726613e-09
4.7215382e-11
8.7458857e-09
4.688837e-11
8.7193891e-09
4.6319813e-11
8.6931133e-09
4.6019797e-11
8.6671107e-09
4.5454108e-11
8.6413178e-09
4.5181748e-11
8.6157927e-09
4.4617228e-11
8.5904661e-09
4.4373363e-11
8.5654025e-09
4.3808249e-11
8.540526e-09
4.3593929e-11
8.5159083e-09
4.3026371e-11
8.4914664e-09
4.2842858e-11
8.4672794e-09
4.2270885e-11
8.4432565e-09
4.2119671e-11
8.4194854e-09
4.1541208e-11
8.3958666e-09
4.1424076e-11
8.3724966e-09
4.0836867e-11
8.3492669e-09
4.0755902e-11
8.3262836e-09
4.0157559e-11
8.3034281e-09
4.0115159e-11
8.280817e-09
3.9503132e-11
8.2583209e-09
3.9502098e-11
8.2360677e-09
3.8873569e-11
8.2139159e-09
3.891715e-11
8.1920058e-09
3.8269135e-11
8.1701832e-09
3.8361086e-11
8.1486012e-09
3.7690352e-11
8.1270921e-09
3.7835007e-11
8.1058227e-09
3.7138054e-11
8.0846109e-09
3.7340406e-11
8.0636376e-09
3.6613587e-11
8.0427061e-09
3.6879349e-11
8.0220112e-09
3.6118895e-11
8.001342e-09
3.6454672e-11
7.9809059e-09
3.5656912e-11
7.9604793e-09
3.6070181e-11
7.9402796e-09
3.5232008e-11
7.9200743e-09
3.5731129e-11
7.9000841e-09
3.4851281e-11
7.8800759e-09
3.5445205e-11
7.860261e-09
3.4526722e-11
7.84042e-09
3.5226835e-11
7.8207345e-09
3.4282543e-11
7.8009896e-09
3.5152927e-11
7.781343e-09
3.4239362e-11
3.658729e-11
4.6708233e-08
8.420562e-09
-4.5752757e-08
4.741899e-08
1.1804345e-08
4.7560529e-08
1.1416881e-08
4.7200923e-08
9.4467658e-09
4.6552784e-08
7.4768438e-09
4.5745283e-08
6.1938867e-09
4.4815502e-08
5.3786001e-09
4.3808868e-08
4.7635468e-09
4.2773318e-08
4.2490984e-09
4.1740363e-08
3.8183359e-09
4.0725679e-08
3.4595381e-09
3.9737615e-08
3.1553416e-09
3.8782159e-08
2.8914876e-09
3.7863761e-08
2.6590605e-09
3.6985197e-08
2.4528552e-09
3.6147638e-08
2.2693743e-09
3.5350978e-08
2.1057345e-09
3.4594234e-08
1.9593932e-09
3.3875867e-08
1.828108e-09
3.3194018e-08
1.7099562e-09
3.2546669e-08
1.603289e-09
3.1931751e-08
1.5067065e-09
3.1347216e-08
1.4190003e-09
3.0791084e-08
1.3391376e-09
3.0261471e-08
1.2662176e-09
2.9756603e-08
1.1994654e-09
2.9274825e-08
1.1382009e-09
2.8814598e-08
1.0818381e-09
2.8374499e-08
1.0298596e-09
2.7953215e-08
9.8181839e-10
2.7549533e-08
9.3731735e-10
2.7162337e-08
8.9601258e-10
2.6790597e-08
8.5759606e-10
2.6433365e-08
8.2180049e-10
2.6089766e-08
7.8838442e-10
2.5758993e-08
7.5713781e-10
2.5440299e-08
7.2786951e-10
2.5132997e-08
7.004129e-10
2.4836446e-08
6.7461503e-10
2.4550057e-08
6.5034237e-10
2.4273279e-08
6.2747142e-10
2.4005604e-08
6.0589422e-10
2.3746556e-08
5.8551015e-10
2.3495697e-08
5.6623117e-10
2.3252614e-08
5.4797459e-10
2.3016924e-08
5.3066808e-10
2.2788268e-08
5.1424314e-10
2.2566312e-08
4.9863989e-10
2.2350741e-08
4.8380116e-10
2.2141263e-08
4.6967708e-10
2.19376e-08
4.5621955e-10
2.1739496e-08
4.4338681e-10
2.1546705e-08
4.3113812e-10
2.1359e-08
4.1943829e-10
2.1176163e-08
4.082526e-10
2.0997994e-08
3.9755129e-10
2.0824299e-08
3.8730451e-10
2.0654898e-08
3.7748702e-10
2.0489619e-08
3.6807299e-10
2.0328302e-08
3.5904097e-10
2.0170791e-08
3.5036839e-10
2.0016944e-08
3.4203707e-10
1.9866621e-08
3.3402708e-10
1.9719693e-08
3.2632304e-10
1.9576034e-08
3.189072e-10
1.9435529e-08
3.1176661e-10
1.9298063e-08
3.0488527e-10
1.9163533e-08
2.982524e-10
1.9031833e-08
2.9185336e-10
1.8902871e-08
2.8567933e-10
1.8776551e-08
2.7971674e-10
1.8652788e-08
2.7395857e-10
1.8531495e-08
2.6839201e-10
1.8412596e-08
2.6301175e-10
1.829601e-08
2.5780549e-10
1.8181668e-08
2.5276952e-10
1.8069496e-08
2.4789182e-10
1.795943e-08
2.4317029e-10
1.7851403e-08
2.3859292e-10
1.7745357e-08
2.341592e-10
1.7641228e-08
2.2985695e-10
1.7538966e-08
2.2568727e-10
1.7438509e-08
2.2163757e-10
1.7339813e-08
2.1771062e-10
1.724282e-08
2.1389321e-10
1.7147489e-08
2.1018985e-10
1.7053768e-08
2.065865e-10
1.6961618e-08
2.0308948e-10
1.687099e-08
1.9968374e-10
1.6781849e-08
1.9637754e-10
1.6694149e-08
1.9315453e-10
1.6607859e-08
1.9002507e-10
1.6522935e-08
1.869713e-10
1.6439348e-08
1.8400584e-10
1.6357057e-08
1.8110905e-10
1.6276036e-08
1.7829603e-10
1.6196247e-08
1.7554507e-10
1.6117665e-08
1.7287396e-10
1.6040254e-08
1.7025866e-10
1.5963992e-08
1.6771986e-10
1.5888844e-08
1.652309e-10
1.581479e-08
1.6281568e-10
1.5741799e-08
1.6044453e-10
1.566985e-08
1.5814489e-10
1.5598914e-08
1.5588373e-10
1.5528974e-08
1.5369235e-10
1.5459999e-08
1.5153399e-10
1.5391976e-08
1.4944417e-10
1.5324875e-08
1.4738196e-10
1.5258683e-08
1.4538754e-10
1.5193373e-08
1.4341536e-10
1.5128933e-08
1.4151071e-10
1.5065335e-08
1.3962288e-10
1.5002571e-08
1.3780281e-10
1.4940613e-08
1.3599409e-10
1.4879454e-08
1.3425383e-10
1.4819067e-08
1.3251934e-10
1.4759446e-08
1.3085451e-10
1.4700565e-08
1.2918971e-10
1.4642418e-08
1.2759627e-10
1.4584982e-08
1.2599692e-10
1.4528251e-08
1.2447117e-10
1.4472201e-08
1.2293332e-10
1.441683e-08
1.2147185e-10
1.4362112e-08
1.1999177e-10
1.4308046e-08
1.1859144e-10
1.4254609e-08
1.1716566e-10
1.4201798e-08
1.1582361e-10
1.4149592e-08
1.1444883e-10
1.4097989e-08
1.1316243e-10
1.4046967e-08
1.1183556e-10
1.3996526e-08
1.1060239e-10
1.3946645e-08
1.0932052e-10
1.3897324e-08
1.0813839e-10
1.3848541e-08
1.0689872e-10
1.3800298e-08
1.0576566e-10
1.3752573e-08
1.0456553e-10
1.370537e-08
1.0347974e-10
1.3658666e-08
1.0231663e-10
1.3612465e-08
1.012765e-10
1.3566746e-08
1.0014796e-10
1.3521512e-08
9.9152084e-11
1.3476743e-08
9.8055784e-11
1.3432442e-08
9.7102902e-11
1.338859e-08
9.6036576e-11
1.3345191e-08
9.5125618e-11
1.3302224e-08
9.4087068e-11
1.3259696e-08
9.3217134e-11
1.3217585e-08
9.2204224e-11
1.3175897e-08
9.1374585e-11
1.3134613e-08
9.0385212e-11
1.3093739e-08
8.9595328e-11
1.3053253e-08
8.8627409e-11
1.3013165e-08
8.7876899e-11
1.2973452e-08
8.6928384e-11
1.2934123e-08
8.6217058e-11
1.2895157e-08
8.5285914e-11
1.2856563e-08
8.4613785e-11
1.2818319e-08
8.3697983e-11
1.2780435e-08
8.3065244e-11
1.274289e-08
8.216272e-11
1.2705694e-08
8.1569775e-11
1.2668823e-08
8.0678459e-11
1.2632291e-08
8.0125952e-11
1.2596074e-08
7.9243757e-11
1.2560184e-08
7.8732561e-11
1.2524598e-08
7.7857345e-11
1.2489329e-08
7.7388578e-11
1.2454352e-08
7.6518174e-11
1.2419683e-08
7.6093264e-11
1.2385294e-08
7.522542e-11
1.2351204e-08
7.4846084e-11
1.2317383e-08
7.3978537e-11
1.2283851e-08
7.3646802e-11
1.2250577e-08
7.2777269e-11
1.2217584e-08
7.2495545e-11
1.2184836e-08
7.1621643e-11
1.215236e-08
7.1392728e-11
1.2120117e-08
7.0512156e-11
1.2088139e-08
7.0339275e-11
1.2056379e-08
6.9449788e-11
1.2024878e-08
6.933662e-11
1.199358e-08
6.8436123e-11
1.1962533e-08
6.8386789e-11
1.1931673e-08
6.7473615e-11
1.190106e-08
6.7492659e-11
1.1870613e-08
6.6565812e-11
1.1840409e-08
6.6658241e-11
1.1810348e-08
6.5717975e-11
1.1780529e-08
6.5889047e-11
1.1750824e-08
6.4937731e-11
1.1721362e-08
6.5192962e-11
1.1691976e-08
6.4236683e-11
1.1662839e-08
6.4582581e-11
1.1633734e-08
6.3631872e-11
1.1604875e-08
6.4085958e-11
1.1576008e-08
6.314923e-11
1.1547315e-08
6.3845589e-11
1.151861e-08
6.2944409e-11
6.5407342e-11
4.8508642e-08
7.6800452e-09
-4.7768126e-08
4.9286557e-08
1.102643e-08
4.9723568e-08
1.0979871e-08
4.9836291e-08
9.3340428e-09
4.9749669e-08
7.5634653e-09
4.9545002e-08
6.3985538e-09
4.92316e-08
5.6920018e-09
4.8820582e-08
5.1745649e-09
4.8337908e-08
4.7317724e-09
4.7807188e-08
4.3490565e-09
4.72416e-08
4.0251253e-09
4.6648537e-08
3.7484049e-09
4.6034546e-08
3.5054783e-09
4.5406376e-08
3.2872314e-09
4.4770442e-08
3.088789e-09
4.4132316e-08
2.9075e-09
4.3496573e-08
2.7414774e-09
4.2866871e-08
2.5890956e-09
4.2246083e-08
2.4488962e-09
4.1636425e-08
2.3196141e-09
4.1039557e-08
2.2001565e-09
4.0456678e-08
2.0895856e-09
3.9888599e-08
1.9870789e-09
3.9335822e-08
1.8919147e-09
3.8798594e-08
1.8034457e-09
3.8276966e-08
1.7210934e-09
3.7770832e-08
1.644335e-09
3.7279971e-08
1.5726993e-09
3.680407e-08
1.5057601e-09
3.6342758e-08
1.443131e-09
3.5895613e-08
1.3844626e-09
3.5462188e-08
1.3294367e-09
3.5042018e-08
1.2777663e-09
3.4634631e-08
1.229188e-09
3.423955e-08
1.1834654e-09
3.3856308e-08
1.1403795e-09
3.3484442e-08
1.0997354e-09
3.3123505e-08
1.06135e-09
3.2773058e-08
1.0250623e-09
3.2432682e-08
9.907185e-10
3.2101968e-08
9.5818522e-10
3.1780529e-08
9.2733262e-10
3.1467989e-08
8.9804996e-10
3.1163994e-08
8.7022684e-10
3.0868197e-08
8.4377131e-10
3.0580276e-08
8.1858878e-10
3.0299917e-08
7.9460284e-10
3.0026825e-08
7.7173186e-10
2.9760714e-08
7.4991237e-10
2.9501317e-08
7.290733e-10
2.9248375e-08
7.0916202e-10
2.9001645e-08
6.9011615e-10
2.8760891e-08
6.7189219e-10
2.8525895e-08
6.544349e-10
2.8296439e-08
6.3770847e-10
2.8072327e-08
6.2166357e-10
2.785336e-08
6.0627096e-10
2.7639361e-08
5.9148615e-10
2.7430148e-08
5.7728553e-10
2.7225561e-08
5.6362864e-10
2.7025433e-08
5.504967e-10
2.6829617e-08
5.3785257e-10
2.6637962e-08
5.2568167e-10
2.6450336e-08
5.1394962e-10
2.6266598e-08
5.026455e-10
2.6086627e-08
4.917372e-10
2.5910295e-08
4.8121698e-10
2.5737493e-08
4.7105466e-10
2.5568101e-08
4.6124529e-10
2.540202e-08
4.5176027e-10
2.523914e-08
4.425971e-10
2.507937e-08
4.3372853e-10
2.4922608e-08
4.2515422e-10
2.4768771e-08
4.1684803e-10
2.4617765e-08
4.0881155e-10
2.4469515e-08
4.0101958e-10
2.4323932e-08
3.9347538e-10
2.4180947e-08
3.8615461e-10
2.4040478e-08
3.7906195e-10
2.3902464e-08
3.7217381e-10
2.3766824e-08
3.6549615e-10
2.3633506e-08
3.5900604e-10
2.3502433e-08
3.527105e-10
2.3373556e-08
3.4658726e-10
2.3246805e-08
3.4064424e-10
2.3122135e-08
3.3485976e-10
2.2999479e-08
3.292425e-10
2.2878797e-08
3.2377136e-10
2.2760025e-08
3.1845562e-10
2.2643128e-08
3.1327483e-10
2.2528044e-08
3.0823863e-10
2.2414742e-08
3.0332728e-10
2.2303162e-08
2.9855064e-10
2.2193278e-08
2.9388973e-10
2.2085033e-08
2.8935444e-10
2.1978402e-08
2.8492665e-10
2.1873331e-08
2.806161e-10
2.17698e-08
2.7640563e-10
2.1667754e-08
2.7230463e-10
2.1567177e-08
2.6829704e-10
2.1468016e-08
2.6439166e-10
2.1370258e-08
2.6057371e-10
2.1273851e-08
2.5685119e-10
2.1178785e-08
2.5321076e-10
2.108501e-08
2.4965936e-10
2.0992517e-08
2.4618531e-10
2.0901256e-08
2.4279422e-10
2.0811224e-08
2.3947631e-10
2.0722371e-08
2.3623557e-10
2.0634694e-08
2.3306436e-10
2.0548144e-08
2.2996474e-10
2.0462724e-08
2.2693156e-10
2.0378382e-08
2.2396454e-10
2.0295123e-08
2.2106136e-10
2.0212898e-08
2.1821906e-10
2.0131714e-08
2.1543848e-10
2.005152e-08
2.1271357e-10
1.9972325e-08
2.1004877e-10
1.9894081e-08
2.0743442e-10
1.9816798e-08
2.0487907e-10
1.9740426e-08
2.0236895e-10
1.966498e-08
1.999172e-10
1.9590408e-08
1.975054e-10
1.9516728e-08
1.9515183e-10
1.9443887e-08
1.9283282e-10
1.9371906e-08
1.9057241e-10
1.930073e-08
1.8834102e-10
1.9230385e-08
1.8616914e-10
1.9160813e-08
1.8402052e-10
1.9092043e-08
1.8193288e-10
1.9024016e-08
1.7986248e-10
1.8956763e-08
1.7785512e-10
1.8890225e-08
1.7585867e-10
1.8824435e-08
1.7392792e-10
1.8759333e-08
1.7200139e-10
1.8694954e-08
1.7014386e-10
1.8631236e-08
1.6828347e-10
1.856822e-08
1.6649604e-10
1.8505839e-08
1.6469818e-10
1.8444137e-08
1.6297802e-10
1.8383046e-08
1.6123926e-10
1.8322614e-08
1.5958375e-10
1.8262769e-08
1.5790088e-10
1.8203564e-08
1.5630762e-10
1.8144923e-08
1.5467757e-10
1.8086905e-08
1.531444e-10
1.8029427e-08
1.5156423e-10
1.7972555e-08
1.5008921e-10
1.7916203e-08
1.4855615e-10
1.786044e-08
1.4713753e-10
1.7805177e-08
1.4564889e-10
1.7750487e-08
1.4428517e-10
1.7696276e-08
1.4283837e-10
1.7642625e-08
1.4152823e-10
1.7589432e-08
1.4012079e-10
1.7536786e-08
1.3886311e-10
1.7484579e-08
1.3749268e-10
1.7432907e-08
1.3628656e-10
1.7381654e-08
1.3495087e-10
1.7330923e-08
1.3379562e-10
1.7280594e-08
1.3249243e-10
1.7230776e-08
1.3138756e-10
1.7181339e-08
1.3011476e-10
1.7132405e-08
1.2906002e-10
1.7083834e-08
1.2781559e-10
1.7035755e-08
1.2681093e-10
1.698802e-08
1.2559291e-10
1.694077e-08
1.2463853e-10
1.6893843e-08
1.2344507e-10
1.6847395e-08
1.2254143e-10
1.6801249e-08
1.2137077e-10
1.6755577e-08
1.2051858e-10
1.6710186e-08
1.1936912e-10
1.6665264e-08
1.1856932e-10
1.6620601e-08
1.1743969e-10
1.6576403e-08
1.1669354e-10
1.6532442e-08
1.1558249e-10
1.6488944e-08
1.1489152e-10
1.6445657e-08
1.1379824e-10
1.6402832e-08
1.1316426e-10
1.6360194e-08
1.1208836e-10
1.6318017e-08
1.1151349e-10
1.6275998e-08
1.1045521e-10
1.6234443e-08
1.0994182e-10
1.6193014e-08
1.0890236e-10
1.6152054e-08
1.0845309e-10
1.6111185e-08
1.0743493e-10
1.607079e-08
1.0705285e-10
1.6030448e-08
1.0606029e-10
1.5990588e-08
1.0574912e-10
1.5950737e-08
1.0478865e-10
1.5911375e-08
1.0455423e-10
1.5871978e-08
1.036342e-10
1.5833071e-08
1.0348968e-10
1.5794088e-08
1.0261441e-10
1.5755569e-08
1.0260487e-10
1.5716966e-08
1.0175228e-10
1.5678705e-08
1.0210715e-10
1.5640388e-08
1.0126147e-10
1.034992e-10
5.0434281e-08
7.1052669e-09
-4.9859502e-08
5.1196549e-08
1.0264161e-08
5.1670469e-08
1.0505951e-08
5.1882202e-08
9.1223099e-09
5.195684e-08
7.488827e-09
5.1969968e-08
6.3854257e-09
5.1925609e-08
5.7363609e-09
5.1817599e-08
5.2825746e-09
5.1655507e-08
4.893865e-09
5.1453966e-08
4.550597e-09
5.1220428e-08
4.2586641e-09
5.0956599e-08
4.0122336e-09
5.0663402e-08
3.7986753e-09
5.034295e-08
3.6076827e-09
4.9998313e-08
3.4334266e-09
4.9632856e-08
3.2729574e-09
4.9249848e-08
3.1244852e-09
4.8852349e-08
2.9865945e-09
4.8443189e-08
2.8580564e-09
4.8024974e-08
2.7378284e-09
4.7600078e-08
2.6250527e-09
4.717064e-08
2.5190239e-09
4.6738559e-08
2.4191592e-09
4.6305514e-08
2.3249597e-09
4.5872961e-08
2.2359993e-09
4.5442159e-08
2.1518947e-09
4.5014182e-08
2.0723129e-09
4.4589937e-08
1.9969435e-09
4.4170182e-08
1.9255157e-09
4.3755543e-08
1.8577696e-09
4.3346526e-08
1.7934799e-09
4.2943539e-08
1.7324235e-09
4.2546895e-08
1.6744102e-09
4.2156838e-08
1.6192458e-09
4.1773534e-08
1.5667685e-09
4.1397107e-08
1.5168072e-09
4.1027618e-08
1.469224e-09
4.0665101e-08
1.4238674e-09
4.0309543e-08
1.3806198e-09
3.9960915e-08
1.3393461e-09
3.9619154e-08
1.2999465e-09
3.9284187e-08
1.2622999e-09
3.8955915e-08
1.2263223e-09
3.8634237e-08
1.1919042e-09
3.8319033e-08
1.1589755e-09
3.8010185e-08
1.127437e-09
3.7707557e-08
1.0972308e-09
3.7411023e-08
1.068266e-09