/*--------------------------------*- C++ -*----------------------------------*\
| =========                 |                                                 |
| \\      /  F ield         | OpenFOAM: The Open Source CFD Toolbox           |
|  \\    /   O peration     | Version:  5.x                                   |
|   \\  /    A nd           | Web:      www.OpenFOAM.org                      |
|    \\/     M anipulation  |                                                 |
\*---------------------------------------------------------------------------*/
FoamFile
{
    version     2.0;
    format      ascii;
    class       volVectorField;
    location    "0.8";
    object      U;
}
// * * * * * * * * * * * * * * * * * * * * * * * * * * * * * * * * * * * * * //

dimensions      [0 1 -1 0 0 0 0];

internalField   nonuniform List<vector> 
21600
(
(0.40517287 0.012133452 0)
(0.28658241 0.010905355 0)
(0.19462896 0.0064222927 0)
(0.14037677 0.002487244 0)
(0.11280762 0.00059977222 0)
(0.097465823 0.00010205889 0)
(0.088149274 2.641571e-05 0)
(0.081853663 5.7574638e-05 0)
(0.077026461 9.7627863e-05 0)
(0.072979162 0.00011626867 0)
(0.069456194 0.00011547448 0)
(0.066364033 0.0001054202 0)
(0.063643473 9.3703032e-05 0)
(0.061237841 8.3336259e-05 0)
(0.059094372 7.4782826e-05 0)
(0.057168129 6.7731269e-05 0)
(0.055423518 6.1801963e-05 0)
(0.053832617 5.6717874e-05 0)
(0.052373729 5.2293257e-05 0)
(0.051029283 4.8406806e-05 0)
(0.049785132 4.4969462e-05 0)
(0.048629278 4.1915368e-05 0)
(0.04755186 3.9188209e-05 0)
(0.046544249 3.6744028e-05 0)
(0.045599325 3.4542795e-05 0)
(0.044710686 3.2553695e-05 0)
(0.04387308 3.0747802e-05 0)
(0.043081637 2.9103742e-05 0)
(0.04233241 2.7600377e-05 0)
(0.041621605 2.6222849e-05 0)
(0.040946209 2.4955323e-05 0)
(0.040303198 2.3787412e-05 0)
(0.039690242 2.2706893e-05 0)
(0.039104881 2.1706493e-05 0)
(0.0385453 2.0776476e-05 0)
(0.038009454 1.9911795e-05 0)
(0.037495926 1.9104472e-05 0)
(0.037002986 1.8351092e-05 0)
(0.036529526 1.7644922e-05 0)
(0.036074055 1.6983781e-05 0)
(0.035635713 1.6361839e-05 0)
(0.035213195 1.577788e-05 0)
(0.03480584 1.522672e-05 0)
(0.034412485 1.470791e-05 0)
(0.034032637 1.4216722e-05 0)
(0.033665239 1.3753339e-05 0)
(0.033309941 1.3313348e-05 0)
(0.032965768 1.2897465e-05 0)
(0.032632492 1.2501477e-05 0)
(0.032309199 1.212657e-05 0)
(0.031995766 1.1768641e-05 0)
(0.031691325 1.1429296e-05 0)
(0.031395848 1.1104474e-05 0)
(0.031108497 1.0796167e-05 0)
(0.030829332 1.0500297e-05 0)
(0.030557531 1.0219221e-05 0)
(0.030293235 9.9487933e-06 0)
(0.030035632 9.6917238e-06 0)
(0.029784938 9.4437544e-06 0)
(0.029540339 9.2079452e-06 0)
(0.029302124 8.9798831e-06 0)
(0.029069471 8.762983e-06 0)
(0.028842739 8.5526348e-06 0)
(0.02862109 8.3526194e-06 0)
(0.028404953 8.1580901e-06 0)
(0.028193468 7.9732088e-06 0)
(0.027987131 7.7928528e-06 0)
(0.027785054 7.6215854e-06 0)
(0.027587805 7.4539683e-06 0)
(0.027394459 7.2949884e-06 0)
(0.027205654 7.138854e-06 0)
(0.027020425 6.9910007e-06 0)
(0.026839485 6.8452434e-06 0)
(0.02666182 6.707497e-06 0)
(0.026488218 6.5711402e-06 0)
(0.026317613 6.4426026e-06 0)
(0.026150873 6.3147812e-06 0)
(0.02598687 6.1946592e-06 0)
(0.025826556 6.0746029e-06 0)
(0.025668738 5.9621932e-06 0)
(0.025514453 5.8492134e-06 0)
(0.025362437 5.743891e-06 0)
(0.025213818 5.6373721e-06 0)
(0.025067254 5.5385814e-06 0)
(0.024923968 5.4379698e-06 0)
(0.024782533 5.3452146e-06 0)
(0.024644275 5.2500088e-06 0)
(0.024507672 5.1628452e-06 0)
(0.024374161 5.0725916e-06 0)
(0.024242117 4.9906253e-06 0)
(0.024113093 4.9049133e-06 0)
(0.023985355 4.8277903e-06 0)
(0.023860578 4.7462427e-06 0)
(0.02373691 4.6736442e-06 0)
(0.02361616 4.595916e-06 0)
(0.023496346 4.5275595e-06 0)
(0.023379416 4.4533361e-06 0)
(0.023263252 4.3889683e-06 0)
(0.023149954 4.3179558e-06 0)
(0.023037252 4.2573483e-06 0)
(0.022927408 4.1892753e-06 0)
(0.022817992 4.1322268e-06 0)
(0.022711438 4.0668419e-06 0)
(0.022605143 4.0131724e-06 0)
(0.022501727 3.9502385e-06 0)
(0.022398398 3.899789e-06 0)
(0.022297977 3.8390849e-06 0)
(0.02219747 3.7917161e-06 0)
(0.022099913 3.733031e-06 0)
(0.022002092 3.6886204e-06 0)
(0.021907273 3.6317539e-06 0)
(0.02181201 3.5901969e-06 0)
(0.021719815 3.5349578e-06 0)
(0.021626988 3.4961638e-06 0)
(0.021537309 3.4423674e-06 0)
(0.021446805 3.4062628e-06 0)
(0.021359541 3.3537325e-06 0)
(0.021271252 3.3202581e-06 0)
(0.021186309 3.2688172e-06 0)
(0.021100132 3.2379277e-06 0)
(0.021017423 3.1874057e-06 0)
(0.02093326 3.1590711e-06 0)
(0.020852701 3.1092991e-06 0)
(0.02077046 3.0834998e-06 0)
(0.020691976 3.0343081e-06 0)
(0.020611567 3.0110415e-06 0)
(0.020535087 2.9622605e-06 0)
(0.020456425 2.941537e-06 0)
(0.020381882 2.8929926e-06 0)
(0.020304886 2.8748376e-06 0)
(0.020232218 2.8263549e-06 0)
(0.020156808 2.810808e-06 0)
(0.020085959 2.7622066e-06 0)
(0.02001206 2.7493218e-06 0)
(0.019942975 2.7004159e-06 0)
(0.019870513 2.6902649e-06 0)
(0.019803145 2.6408594e-06 0)
(0.019732048 2.6335301e-06 0)
(0.019666351 2.5834218e-06 0)
(0.01959655 2.5790213e-06 0)
(0.019532483 2.5279944e-06 0)
(0.01946391 2.5266492e-06 0)
(0.019401435 2.4744756e-06 0)
(0.019334022 2.4763333e-06 0)
(0.019273107 2.4227699e-06 0)
(0.019206786 2.4280001e-06 0)
(0.019147401 2.3727859e-06 0)
(0.019082108 2.3815847e-06 0)
(0.019024226 2.3244405e-06 0)
(0.018959894 2.3370304e-06 0)
(0.018903494 2.2776534e-06 0)
(0.018840056 2.2942897e-06 0)
(0.01878512 2.2323487e-06 0)
(0.01872251 2.2533167e-06 0)
(0.018669023 2.1884516e-06 0)
(0.018607172 2.2140781e-06 0)
(0.018555124 2.1458926e-06 0)
(0.018493963 2.17655e-06 0)
(0.018443348 2.1046134e-06 0)
(0.018382806 2.1407156e-06 0)
(0.018333623 2.0645487e-06 0)
(0.018273625 2.106566e-06 0)
(0.018225877 2.0256373e-06 0)
(0.018166345 2.0741058e-06 0)
(0.018120042 1.9878235e-06 0)
(0.018060895 2.0433549e-06 0)
(0.01801605 1.9510522e-06 0)
(0.017957203 2.0143278e-06 0)
(0.017913837 1.9152766e-06 0)
(0.017855197 1.9870794e-06 0)
(0.017813338 1.8804276e-06 0)
(0.017754805 1.9616735e-06 0)
(0.017714489 1.8464675e-06 0)
(0.017655957 1.9381737e-06 0)
(0.017617227 1.8133527e-06 0)
(0.017558578 1.9167057e-06 0)
(0.017521489 1.7810011e-06 0)
(0.017462593 1.8973976e-06 0)
(0.017427212 1.7493778e-06 0)
(0.017367925 1.8804328e-06 0)
(0.017334333 1.7184229e-06 0)
(0.01727449 1.8660553e-06 0)
(0.017242784 1.6880492e-06 0)
(0.017182199 1.8545601e-06 0)
(0.017152501 1.6581846e-06 0)
(0.017090956 1.8463756e-06 0)
(0.017063413 1.628715e-06 0)
(0.017000651 1.8420676e-06 0)
(0.016975448 1.599488e-06 0)
(0.016911157 1.8424576e-06 0)
(0.016888532 1.5702077e-06 0)
(0.016822318 1.8488244e-06 0)
(0.01680259 1.5404226e-06 0)
(0.01673393 1.8633905e-06 0)
(0.016717557 1.5090774e-06 0)
(0.01664569 1.8905915e-06 0)
(0.016633416 1.4737167e-06 0)
(0.016556981 1.9456323e-06 0)
(0.0165504 1.4406832e-06 0)
(0.016464314 2.4666333e-06 0)
(0.48430081 0.022535634 0)
(0.45685479 0.024514358 0)
(0.41445732 0.019498823 0)
(0.37040878 0.012617599 0)
(0.33188216 0.0073138786 0)
(0.2991391 0.0043275969 0)
(0.27267535 0.0027949233 0)
(0.25195294 0.0019946236 0)
(0.23565434 0.0015564207 0)
(0.22245327 0.0012942556 0)
(0.21139327 0.0011136235 0)
(0.201889 0.00097262359 0)
(0.19358514 0.00085670018 0)
(0.18624594 0.00076067831 0)
(0.17969993 0.0006811464 0)
(0.17381409 0.00061488136 0)
(0.16848403 0.00055902467 0)
(0.16362619 0.00051133358 0)
(0.15917423 0.0004701368 0)
(0.15507377 0.00043421601 0)
(0.1512809 0.00040264962 0)
(0.14775842 0.00037473479 0)
(0.14447589 0.00034990412 0)
(0.14140672 0.00032770788 0)
(0.13852905 0.00030776768 0)
(0.13582325 0.00028977951 0)
(0.13327324 0.00027348073 0)
(0.13086409 0.00025866091 0)
(0.12858374 0.00024513325 0)
(0.12642056 0.00023274934 0)
(0.12436536 0.00022137297 0)
(0.12240888 0.00021089746 0)
(0.12054401 0.00020122087 0)
(0.11876321 0.00019226523 0)
(0.11706097 0.0001839523 0)
(0.11543103 0.00017622433 0)
(0.11386907 0.00016901997 0)
(0.11236979 0.00016229614 0)
(0.11092985 0.00015600359 0)
(0.10954466 0.00015011011 0)
(0.10821164 0.00014457536 0)
(0.10692676 0.00013937532 0)
(0.10568806 0.00013447627 0)
(0.10449195 0.00012986051 0)
(0.10333697 0.00012549926 0)
(0.10221985 0.00012137979 0)
(0.10113958 0.00011747703 0)
(0.10009313 0.00011378223 0)
(0.099079861 0.00011027308 0)
(0.09809694 0.0001069441 0)
(0.097144041 0.00010377504 0)
(0.096218473 0.00010076315 0)
(0.095320198 9.7889667e-05 0)
(0.094446616 9.5154181e-05 0)
(0.093597957 9.2538991e-05 0)
(0.092771674 9.0045719e-05 0)
(0.091968245 8.7657363e-05 0)
(0.091185144 8.5377377e-05 0)
(0.090423083 8.3189159e-05 0)
(0.089679531 8.1097841e-05 0)
(0.088955424 7.9086965e-05 0)
(0.088248201 7.7163249e-05 0)
(0.087559016 7.5310145e-05 0)
(0.086885258 7.3535906e-05 0)
(0.086228294 7.1823692e-05 0)
(0.08558544 7.0183263e-05 0)
(0.08495828 6.85973e-05 0)
(0.084344035 6.7077075e-05 0)
(0.08374451 6.5604619e-05 0)
(0.083156811 6.4192734e-05 0)
(0.082582965 6.2822635e-05 0)
(0.082019949 6.1508704e-05 0)
(0.081470017 6.0231174e-05 0)
(0.080929998 5.9006068e-05 0)
(0.080402383 5.7812476e-05 0)
(0.07988383 5.6668149e-05 0)
(0.079377079 5.5550862e-05 0)
(0.0788786 5.4480196e-05 0)
(0.078391389 5.3432436e-05 0)
(0.077911713 5.2429113e-05 0)
(0.077442837 5.1444841e-05 0)
(0.076980801 5.0503239e-05 0)
(0.076529156 4.9577061e-05 0)
(0.076083694 4.8692167e-05 0)
(0.075648268 4.7819251e-05 0)
(0.0752184 4.6986575e-05 0)
(0.074798264 4.616257e-05 0)
(0.074383087 4.537809e-05 0)
(0.073977387 4.4599075e-05 0)
(0.073576069 4.3859184e-05 0)
(0.073184016 4.3121616e-05 0)
(0.072795788 4.2423064e-05 0)
(0.072416653 4.1723724e-05 0)
(0.072040801 4.1063577e-05 0)
(0.071673912 4.0399539e-05 0)
(0.071309774 3.9775156e-05 0)
(0.070954508 3.9143758e-05 0)
(0.070601468 3.8552751e-05 0)
(0.070257248 3.7951547e-05 0)
(0.069914732 3.7391751e-05 0)
(0.06958102 3.6818501e-05 0)
(0.069248494 3.628796e-05 0)
(0.068924792 3.5740607e-05 0)
(0.068601753 3.5237551e-05 0)
(0.068287599 3.4714191e-05 0)
(0.067973579 3.4237014e-05 0)
(0.067668539 3.3735889e-05 0)
(0.067363098 3.3283141e-05 0)
(0.06706677 3.2802614e-05 0)
(0.066769495 3.2372981e-05 0)
(0.066481503 3.1911522e-05 0)
(0.066192003 3.1503821e-05 0)
(0.065911998 3.1060003e-05 0)
(0.065629907 3.0673165e-05 0)
(0.06535756 3.0245647e-05 0)
(0.065082531 2.9878715e-05 0)
(0.064817538 2.9466235e-05 0)
(0.064549241 2.9118356e-05 0)
(0.064291317 2.8719709e-05 0)
(0.06402944 2.8390124e-05 0)
(0.063778319 2.8004169e-05 0)
(0.063522565 2.7692212e-05 0)
(0.063277999 2.7317858e-05 0)
(0.063028085 2.7022941e-05 0)
(0.062789841 2.6659132e-05 0)
(0.062545498 2.638076e-05 0)
(0.062313361 2.6026478e-05 0)
(0.062074328 2.5764229e-05 0)
(0.061848098 2.5418477e-05 0)
(0.061614128 2.5172012e-05 0)
(0.061393616 2.483382e-05 0)
(0.06116447 2.4602876e-05 0)
(0.060949505 2.4271285e-05 0)
(0.060724951 2.405567e-05 0)
(0.060515373 2.3729728e-05 0)
(0.060295187 2.3529337e-05 0)
(0.060090849 2.3208087e-05 0)
(0.059874813 2.3022887e-05 0)
(0.059675579 2.2705371e-05 0)
(0.059463481 2.2535412e-05 0)
(0.05926923 2.2220649e-05 0)
(0.059060861 2.2066067e-05 0)
(0.05887148 2.1753059e-05 0)
(0.058666636 2.1614073e-05 0)
(0.058482026 2.1301794e-05 0)
(0.058280504 2.1178712e-05 0)
(0.058100577 2.0866096e-05 0)
(0.057902176 2.0759328e-05 0)
(0.057726856 2.0445268e-05 0)
(0.057531374 2.0355325e-05 0)
(0.057360597 2.0038655e-05 0)
(0.057167833 1.9966167e-05 0)
(0.057001546 1.9645643e-05 0)
(0.056811296 1.9591353e-05 0)
(0.056649458 1.9265657e-05 0)
(0.056461515 1.9230452e-05 0)
(0.0563041 1.8898175e-05 0)
(0.056118252 1.8883095e-05 0)
(0.055965246 1.8542726e-05 0)
(0.055781275 1.8548963e-05 0)
(0.055632678 1.8198853e-05 0)
(0.055450359 1.8227788e-05 0)
(0.055306186 1.7866144e-05 0)
(0.055125283 1.7919376e-05 0)
(0.054985568 1.7544241e-05 0)
(0.054805833 1.7623607e-05 0)
(0.054670624 1.723281e-05 0)
(0.054491796 1.7340394e-05 0)
(0.054361163 1.6931575e-05 0)
(0.054182961 1.7069792e-05 0)
(0.054056995 1.6640262e-05 0)
(0.053879119 1.6811914e-05 0)
(0.053757937 1.63587e-05 0)
(0.053580061 1.6566951e-05 0)
(0.053463805 1.6086762e-05 0)
(0.053285572 1.6335291e-05 0)
(0.053174419 1.5824294e-05 0)
(0.052995435 1.6117403e-05 0)
(0.0528896 1.5571316e-05 0)
(0.052709426 1.5913997e-05 0)
(0.052609167 1.5327894e-05 0)
(0.052427308 1.5726021e-05 0)
(0.052332938 1.5094134e-05 0)
(0.052148828 1.5554687e-05 0)
(0.052060729 1.4870352e-05 0)
(0.051873713 1.5401685e-05 0)
(0.051792354 1.4656969e-05 0)
(0.051601657 1.5269299e-05 0)
(0.051527622 1.4454675e-05 0)
(0.051332305 1.5160716e-05 0)
(0.051266342 1.4264386e-05 0)
(0.05106523 1.5080589e-05 0)
(0.051008331 1.4087737e-05 0)
(0.050799876 1.5036282e-05 0)
(0.050753446 1.3927616e-05 0)
(0.050535433 1.5040838e-05 0)
(0.050501689 1.379485e-05 0)
(0.050270378 1.51407e-05 0)
(0.050253551 1.3781285e-05 0)
(0.050000022 1.6765943e-05 0)
(0.4850058 0.020562064 0)
(0.48876357 0.0261232 0)
(0.4843035 0.023583135 0)
(0.47044157 0.017965096 0)
(0.4515748 0.012980256 0)
(0.43042423 0.0097478369 0)
(0.4094219 0.0076798357 0)
(0.38989905 0.0062019304 0)
(0.37223913 0.0050889501 0)
(0.35634385 0.0042539898 0)
(0.34199554 0.0036250932 0)
(0.329006 0.0031400399 0)
(0.31722453 0.0027546855 0)
(0.30651826 0.0024416349 0)
(0.29676501 0.0021836661 0)
(0.28785054 0.0019687014 0)
(0.27967303 0.0017875611 0)
(0.27214207 0.0016332132 0)
(0.26518094 0.0015003021 0)
(0.25872287 0.0013847869 0)
(0.25271213 0.001283566 0)
(0.24709976 0.001194247 0)
(0.24184507 0.0011149274 0)
(0.2369115 0.0010440976 0)
(0.23226881 0.0009805189 0)
(0.2278891 0.0009231902 0)
(0.22374955 0.00087126928 0)
(0.21982836 0.0008240687 0)
(0.21610807 0.00078099685 0)
(0.21257131 0.00074156849 0)
(0.20920459 0.00070535636 0)
(0.20599379 0.00067200981 0)
(0.20292839 0.00064121235 0)
(0.19999672 0.00061270538 0)
(0.19719053 0.00058624903 0)
(0.19450001 0.00056164917 0)
(0.1919187 0.00053872028 0)
(0.18943817 0.00051731482 0)
(0.18705341 0.00049728661 0)
(0.18475706 0.00047852222 0)
(0.18254526 0.00046090451 0)
(0.18041149 0.00044434562 0)
(0.17835284 0.00042875007 0)
(0.17636342 0.00041404949 0)
(0.17444112 0.00040016481 0)
(0.17258055 0.00038704277 0)
(0.1707803 0.0003746168 0)
(0.16903531 0.00036284554 0)
(0.16734478 0.00035167206 0)
(0.16570393 0.00034106448 0)
(0.16411249 0.00033097332 0)
(0.16256586 0.00032137444 0)
(0.16106426 0.0003122241 0)
(0.1596032 0.00030350456 0)
(0.15818335 0.00029517649 0)
(0.15680029 0.00028722755 0)
(0.15545508 0.00027962175 0)
(0.15414333 0.00027235138 0)
(0.1528665 0.00026538298 0)
(0.15162015 0.00025871286 0)
(0.15040614 0.00025230939 0)
(0.14921996 0.00024617248 0)
(0.14806382 0.00024027172 0)
(0.14693312 0.00023461032 0)
(0.14583045 0.0002291586 0)
(0.14475105 0.00022392285 0)
(0.14369788 0.00021887363 0)
(0.14266601 0.00021402018 0)
(0.14165879 0.00020933295 0)
(0.14067107 0.00020482402 0)
(0.13970658 0.00020046334 0)
(0.13875994 0.00019626583 0)
(0.13783529 0.00019220059 0)
(0.13692696 0.0001882854 0)
(0.13603952 0.00018448819 0)
(0.13516697 0.00018082964 0)
(0.13431434 0.00017727621 0)
(0.13347528 0.00017385161 0)
(0.13265527 0.00017052044 0)
(0.1318476 0.00016730959 0)
(0.13105822 0.00016418153 0)
(0.13028001 0.00016116647 0)
(0.12951944 0.00015822441 0)
(0.12876893 0.0001553891 0)
(0.12803549 0.00015261773 0)
(0.12731106 0.0001499478 0)
(0.1266032 0.00014733334 0)
(0.12590336 0.0001448159 0)
(0.12521968 0.00014234595 0)
(0.12454303 0.00013996942 0)
(0.12388221 0.0001376328 0)
(0.12322748 0.00013538671 0)
(0.12258832 0.00013317327 0)
(0.12195432 0.00013104818 0)
(0.12133571 0.00012894871 0)
(0.12072134 0.00012693609 0)
(0.12012223 0.00012494222 0)
(0.11952646 0.00012303433 0)
(0.11894589 0.00012113842 0)
(0.11836777 0.00011932821 0)
(0.11780486 0.00011752326 0)
(0.1172435 0.00011580437 0)
(0.1166974 0.00011408398 0)
(0.11615196 0.00011245058 0)
(0.11562192 0.00011080886 0)
(0.11509161 0.00010925566 0)
(0.1145769 0.0001076872 0)
(0.11406099 0.00010620938 0)
(0.11356094 0.00010470914 0)
(0.11305874 0.00010330231 0)
(0.11257272 0.00010186565 0)
(0.11208358 0.0001005258 0)
(0.11161102 9.9148414e-05 0)
(0.11113432 9.7871879e-05 0)
(0.11067466 9.654975e-05 0)
(0.11020982 9.5333212e-05 0)
(0.10976256 9.4062596e-05 0)
(0.10930903 9.2903032e-05 0)
(0.10887369 9.1680397e-05 0)
(0.10843095 9.0575061e-05 0)
(0.10800709 8.939711e-05 0)
(0.10757464 8.8343512e-05 0)
(0.10716184 8.7207128e-05 0)
(0.1067392 8.6203013e-05 0)
(0.10633709 8.5105232e-05 0)
(0.1059238 8.4148587e-05 0)
(0.10553201 8.3086604e-05 0)
(0.10512765 8.2175617e-05 0)
(0.10474584 8.1146738e-05 0)
(0.10434998 8.0279818e-05 0)
(0.10397786 7.9281467e-05 0)
(0.1035901 7.8457209e-05 0)
(0.10322737 7.7486907e-05 0)
(0.10284732 7.6704094e-05 0)
(0.10249371 7.5759429e-05 0)
(0.102121 7.5017046e-05 0)
(0.10177628 7.4095666e-05 0)
(0.10141053 7.3392865e-05 0)
(0.10107447 7.2492471e-05 0)
(0.10071533 7.1828596e-05 0)
(0.10038773 7.0946901e-05 0)
(0.10003484 7.0321485e-05 0)
(0.099715517 6.9456226e-05 0)
(0.099368532 6.886898e-05 0)
(0.09905733 6.80179e-05 0)
(0.098715907 6.7468719e-05 0)
(0.09841268 6.6629542e-05 0)
(0.098076478 6.6118526e-05 0)
(0.097781105 6.5288955e-05 0)
(0.097449782 6.4816398e-05 0)
(0.097162161 6.3994081e-05 0)
(0.096835373 6.3560513e-05 0)
(0.096555424 6.274301e-05 0)
(0.096232826 6.2349172e-05 0)
(0.095960489 6.1533972e-05 0)
(0.095641727 6.1180861e-05 0)
(0.095376965 6.0365354e-05 0)
(0.095061678 6.0054243e-05 0)
(0.094804478 5.9235696e-05 0)
(0.094492295 5.8968128e-05 0)
(0.094242667 5.8143625e-05 0)
(0.093933203 5.7921462e-05 0)
(0.093691185 5.708792e-05 0)
(0.093384037 5.6913398e-05 0)
(0.093149697 5.6067529e-05 0)
(0.092844442 5.5943266e-05 0)
(0.092617876 5.5081507e-05 0)
(0.092314066 5.501054e-05 0)
(0.092095407 5.4129082e-05 0)
(0.091792564 5.4114983e-05 0)
(0.091581982 5.3209606e-05 0)
(0.091279592 5.3256526e-05 0)
(0.0910773 5.2322666e-05 0)
(0.090774805 5.2435348e-05 0)
(0.090581066 5.1468053e-05 0)
(0.090277858 5.1652011e-05 0)
(0.09009299 5.0645681e-05 0)
(0.089788397 5.0907331e-05 0)
(0.089612784 4.985588e-05 0)
(0.089306059 5.020265e-05 0)
(0.089140164 4.9099284e-05 0)
(0.088830464 4.9539816e-05 0)
(0.088674844 4.8376905e-05 0)
(0.08836121 4.8921286e-05 0)
(0.088216539 4.7690445e-05 0)
(0.087897862 4.8350426e-05 0)
(0.087764961 4.7042341e-05 0)
(0.087439939 4.7831853e-05 0)
(0.087319824 4.643631e-05 0)
(0.086986888 4.7371768e-05 0)
(0.086880844 4.5877916e-05 0)
(0.086538051 4.6978756e-05 0)
(0.086447754 4.537657e-05 0)
(0.086092594 4.6665086e-05 0)
(0.086020339 4.4949806e-05 0)
(0.085649354 4.6450726e-05 0)
(0.085598528 4.4643175e-05 0)
(0.085206452 4.6439306e-05 0)
(0.085182296 4.4653521e-05 0)
(0.084760684 4.9077224e-05 0)
(0.48431476 0.017835457 0)
(0.49042488 0.024335416 0)
(0.49745703 0.023345434 0)
(0.49888325 0.019096461 0)
(0.49460803 0.014929088 0)
(0.48638456 0.012195146 0)
(0.47625246 0.010413781 0)
(0.46546357 0.009049945 0)
(0.45455153 0.0079133251 0)
(0.44369244 0.006971653 0)
(0.43296555 0.0061984139 0)
(0.42245219 0.0055554686 0)
(0.41223662 0.0050092435 0)
(0.40238544 0.0045381036 0)
(0.39294285 0.0041290693 0)
(0.38392899 0.0037730032 0)
(0.37534906 0.0034621893 0)
(0.36719507 0.0031898532 0)
(0.35945388 0.002950147 0)
(0.35210602 0.002738176 0)
(0.34513188 0.0025498528 0)
(0.33850861 0.0023817948 0)
(0.33221565 0.0022311675 0)
(0.32623052 0.0020956132 0)
(0.32053418 0.0019731344 0)
(0.31510604 0.0018620636 0)
(0.3099295 0.0017609751 0)
(0.30498632 0.0016686735 0)
(0.30026249 0.0015841245 0)
(0.29574207 0.001506457 0)
(0.29141347 0.0014349073 0)
(0.28726275 0.00136883 0)
(0.28328046 0.0013076511 0)
(0.27945436 0.0012508846 0)
(0.27577684 0.0011980915 0)
(0.27223707 0.0011489002 0)
(0.26882899 0.0011029698 0)
(0.26554293 0.0010600122 0)
(0.26237414 0.0010197586 0)
(0.25931388 0.00098198329 0)
(0.25635857 0.00094647149 0)
(0.25350016 0.00091304443 0)
(0.25073609 0.00088152836 0)
(0.24805887 0.00085178043 0)
(0.24546683 0.00082365835 0)
(0.2429529 0.00079704717 0)
(0.2405162 0.000771829 0)
(0.23814997 0.00074791079 0)
(0.23585405 0.00072519377 0)
(0.2336219 0.00070360233 0)
(0.231454 0.00068305274 0)
(0.22934395 0.00066348344 0)
(0.22729285 0.00064482267 0)
(0.22529436 0.00062702033 0)
(0.22335015 0.00061001419 0)
(0.22145387 0.0005937636 0)
(0.21960775 0.00057821392 0)
(0.21780538 0.00056333242 0)
(0.21604953 0.00054907053 0)
(0.21433367 0.00053540223 0)
(0.2126611 0.00052228374 0)
(0.21102514 0.00050969485 0)
(0.20942959 0.00049759554 0)
(0.20786756 0.00048597067 0)
(0.20634341 0.00047478311 0)
(0.20484998 0.00046402227 0)
(0.20339215 0.00045365316 0)
(0.20196247 0.00044366934 0)
(0.20056639 0.00043403728 0)
(0.19919609 0.00042475441 0)
(0.1978576 0.00041578812 0)
(0.1965427 0.00040713946 0)
(0.19525802 0.00039877625 0)
(0.1939949 0.00039070306 0)
(0.1927606 0.0003828876 0)
(0.19154597 0.00037533796 0)
(0.19035891 0.0003680213 0)
(0.18918973 0.00036094917 0)
(0.18804704 0.00035408778 0)
(0.18692057 0.00034745225 0)
(0.18581962 0.00034100735 0)
(0.18473329 0.0003347719 0)
(0.18367166 0.00032870884 0)
(0.18262314 0.00032284084 0)
(0.18159862 0.00031712856 0)
(0.18058574 0.00031159873 0)
(0.17959628 0.0003062093 0)
(0.17861705 0.00030099133 0)
(0.17766075 0.0002958996 0)
(0.17671333 0.00029096979 0)
(0.17578844 0.00028615305 0)
(0.1748711 0.00028149 0)
(0.17397602 0.00027692765 0)
(0.17308717 0.00027251199 0)
(0.17222039 0.00026818535 0)
(0.17135855 0.00026399954 0)
(0.17051867 0.00025989162 0)
(0.16968245 0.00025591972 0)
(0.16886819 0.00025201502 0)
(0.1680563 0.00024824253 0)
(0.16726645 0.00024452687 0)
(0.16647768 0.00024094059 0)
(0.16571112 0.00023740102 0)
(0.16494433 0.00023398888 0)
(0.16420001 0.00023061349 0)
(0.16345415 0.0002273645 0)
(0.1627311 0.00022414234 0)
(0.16200516 0.00022104643 0)
(0.16130247 0.0002179674 0)
(0.1605955 0.00021501535 0)
(0.15991233 0.00021207013 0)
(0.15922344 0.00020925349 0)
(0.15855899 0.00020643345 0)
(0.15788734 0.0002037445 0)
(0.15724088 0.00020104162 0)
(0.15658566 0.00019847327 0)
(0.1559565 0.00019588012 0)
(0.15531697 0.00019342588 0)
(0.15470444 0.0001909355 0)
(0.15407987 0.0001885894 0)
(0.1534834 0.00018619532 0)
(0.1528731 0.00018395192 0)
(0.15229211 0.00018164806 0)
(0.15169543 0.00017950236 0)
(0.15112939 0.00017728299 0)
(0.1505457 0.00017523043 0)
(0.14999414 0.00017309018 0)
(0.14942284 0.00017112661 0)
(0.14888529 0.00016906038 0)
(0.14832579 0.00016718203 0)
(0.14780185 0.000165185 0)
(0.14725359 0.00016338846 0)
(0.14674286 0.00016145605 0)
(0.1462053 0.00015973823 0)
(0.14570742 0.00015786605 0)
(0.14518004 0.00015622422 0)
(0.14469469 0.00015440806 0)
(0.14417696 0.00015283978 0)
(0.14370384 0.00015107561 0)
(0.14319526 0.00014957877 0)
(0.14273411 0.00014786262 0)
(0.14223419 0.00014643542 0)
(0.14178475 0.0001447635 0)
(0.141293 0.00014340439 0)
(0.14085507 0.00014177297 0)
(0.140371 0.00014048073 0)
(0.13994439 0.00013888615 0)
(0.13946753 0.00013765985 0)
(0.13905209 0.0001360985 0)
(0.13858195 0.00013493751 0)
(0.13817754 0.0001334058 0)
(0.13771363 0.00013230981 0)
(0.13732016 0.00013080411 0)
(0.13686199 0.00012977313 0)
(0.1364794 0.00012828982 0)
(0.13602647 0.00012732419 0)
(0.13565472 0.0001258596 0)
(0.13520651 0.00012496004 0)
(0.1348456 0.00012351046 0)
(0.13440158 0.00012267803 0)
(0.13405155 0.00012123961 0)
(0.13361117 0.00012047577 0)
(0.13327209 0.00011904455 0)
(0.13283478 0.00011835125 0)
(0.13250677 0.00011692315 0)
(0.13207191 0.00011630278 0)
(0.13175513 0.00011487353 0)
(0.13132209 0.00011432898 0)
(0.13101675 0.00011289412 0)
(0.13058485 0.00011242891 0)
(0.13029121 0.0001109837 0)
(0.1298597 0.00011060199 0)
(0.1295781 0.00010914149 0)
(0.12914619 0.00010884807 0)
(0.12887702 0.00010736712 0)
(0.12844385 0.00010716762 0)
(0.1281876 0.00010566065 0)
(0.12775219 0.00010556159 0)
(0.12750943 0.00010402285 0)
(0.12707073 0.00010403174 0)
(0.12684215 0.00010245525 0)
(0.12639897 0.00010258071 0)
(0.12618538 0.00010096028 0)
(0.12573635 0.00010121207 0)
(0.12553874 9.9541728e-05 0)
(0.12508233 9.9930812e-05 0)
(0.12490187 9.8205119e-05 0)
(0.12443626 9.874381e-05 0)
(0.12427439 9.6958751e-05 0)
(0.12379743 9.766024e-05 0)
(0.12365593 9.5815e-05 0)
(0.12316502 9.6692643e-05 0)
(0.12304614 9.4793898e-05 0)
(0.12253803 9.5859169e-05 0)
(0.12244466 9.3928857e-05 0)
(0.12191516 9.5197069e-05 0)
(0.12185115 9.3279623e-05 0)
(0.12129474 9.4935152e-05 0)
(0.12126464 9.3069362e-05 0)
(0.1206751 9.8064142e-05 0)
(0.48571887 0.016050738 0)
(0.49005575 0.022583249 0)
(0.49782044 0.022343697 0)
(0.50336351 0.018866528 0)
(0.50487798 0.015207018 0)
(0.50313293 0.012810146 0)
(0.49964929 0.011328544 0)
(0.49538695 0.010222707 0)
(0.49067862 0.0092715987 0)
(0.48557193 0.0084493601 0)
(0.48007421 0.0077528528 0)
(0.47423139 0.0071570906 0)
(0.46812229 0.0066336085 0)
(0.46182904 0.0061638497 0)
(0.45542772 0.0057385464 0)
(0.4489793 0.0053527696 0)
(0.4425358 0.0050026753 0)
(0.4361365 0.004684623 0)
(0.42981536 0.00439518 0)
(0.42359614 0.0041312904 0)
(0.41749983 0.0038902608 0)
(0.41153891 0.0036697391 0)
(0.40572517 0.0034676339 0)
(0.40006319 0.0032820956 0)
(0.39455858 0.0031114618 0)
(0.38921066 0.0029542604 0)
(0.38402121 0.0028091687 0)
(0.37898626 0.0026750171 0)
(0.37410536 0.0025507541 0)
(0.3693726 0.0024354502 0)
(0.36478642 0.002328269 0)
(0.36033982 0.0022284709 0)
(0.35603085 0.0021353896 0)
(0.35185196 0.0020484342 0)
(0.34780125 0.0019670718 0)
(0.34387093 0.0018908283 0)
(0.34005941 0.0018192751 0)
(0.33635886 0.001752029 0)
(0.33276815 0.001688743 0)
(0.32927947 0.0016291051 0)
(0.32589224 0.0015728334 0)
(0.32259871 0.0015196717 0)
(0.3193989 0.0014693896 0)
(0.31628509 0.0014217754 0)
(0.31325791 0.0013766394 0)
(0.31030969 0.0013338054 0)
(0.30744165 0.0012931164 0)
(0.30464612 0.0012544245 0)
(0.30192495 0.0012175992 0)
(0.2992704 0.0011825155 0)
(0.29668492 0.0011490644 0)
(0.29416069 0.0011171393 0)
(0.29170078 0.0010866489 0)
(0.28929719 0.0010575017 0)
(0.28695365 0.0010296208 0)
(0.28466193 0.0010029272 0)
(0.28242639 0.00097735603 0)
(0.28023857 0.00095283854 0)
(0.27810343 0.00092931994 0)
(0.27601224 0.00090673988 0)
(0.2739706 0.00088505201 0)
(0.27196941 0.00086420314 0)
(0.27001497 0.00084415389 0)
(0.26809776 0.00082485718 0)
(0.26622477 0.00080627948 0)
(0.26438603 0.0007883789 0)
(0.26258923 0.00077112681 0)
(0.26082391 0.00075448586 0)
(0.25909851 0.00073843146 0)
(0.25740198 0.00072293024 0)
(0.25574356 0.00070796096 0)
(0.25411159 0.00069349381 0)
(0.2525161 0.00067951027 0)
(0.25094479 0.00066598375 0)
(0.24940852 0.0006528979 0)
(0.24789426 0.00064022914 0)
(0.24641379 0.00062796276 0)
(0.24495326 0.00061607802 0)
(0.24352543 0.00060456139 0)
(0.24211558 0.00059339488 0)
(0.24073747 0.00058256566 0)
(0.23937546 0.00057205851 0)
(0.23804438 0.00056186086 0)
(0.23672758 0.00055196025 0)
(0.23544103 0.00054234398 0)
(0.234167 0.00053300242 0)
(0.23292267 0.00052392232 0)
(0.23168914 0.00051509699 0)
(0.23048488 0.00050651223 0)
(0.22928973 0.00049816449 0)
(0.22812354 0.00049003813 0)
(0.22696481 0.00048213297 0)
(0.22583484 0.00047443148 0)
(0.22471068 0.00046693712 0)
(0.2236152 0.00045963002 0)
(0.22252388 0.00045251763 0)
(0.2214613 0.00044557719 0)
(0.22040121 0.00043882048 0)
(0.21937 0.00043222133 0)
(0.21833963 0.00042579633 0)
(0.2173384 0.00041951531 0)
(0.21633632 0.00041340013 0)
(0.21536376 0.00040741601 0)
(0.21438864 0.00040159063 0)
(0.21344352 0.0003958839 0)
(0.21249409 0.00039032997 0)
(0.21157527 0.00038488271 0)
(0.21065034 0.00037958338 0)
(0.20975675 0.00037437907 0)
(0.20885518 0.00036931888 0)
(0.20798582 0.00036434224 0)
(0.20710656 0.00035950699 0)
(0.20626049 0.00035474392 0)
(0.20540252 0.00035012051 0)
(0.20457886 0.00034555794 0)
(0.20374121 0.00034113435 0)
(0.20293914 0.00033676016 0)
(0.2021209 0.00033252529 0)
(0.20133966 0.00032832818 0)
(0.20053995 0.0003242718 0)
(0.19977882 0.00032024128 0)
(0.1989968 0.00031635395 0)
(0.19825511 0.0003124802 0)
(0.19748998 0.00030875323 0)
(0.19676711 0.00030502707 0)
(0.19601809 0.00030145244 0)
(0.19531347 0.00029786528 0)
(0.19457982 0.0002944356 0)
(0.1938929 0.00029097934 0)
(0.19317391 0.00028768782 0)
(0.19250419 0.00028435489 0)
(0.19179916 0.00028119527 0)
(0.19114618 0.00027797849 0)
(0.19045443 0.00027494506 0)
(0.18981778 0.00027183764 0)
(0.18913866 0.00026892517 0)
(0.18851795 0.00026592069 0)
(0.1878508 0.00026312438 0)
(0.18724568 0.00026021674 0)
(0.18658988 0.00025753229 0)
(0.18600004 0.00025471562 0)
(0.18535495 0.00025213913 0)
(0.18478011 0.00024940787 0)
(0.18414513 0.00024693584 0)
(0.18358505 0.00024428465 0)
(0.18295956 0.00024191398 0)
(0.18241403 0.00023933772 0)
(0.18179741 0.00023706572 0)
(0.18126626 0.00023455943 0)
(0.18065789 0.00023238379 0)
(0.18014099 0.00022994265 0)
(0.17954026 0.00022786148 0)
(0.17903751 0.00022548077 0)
(0.17844377 0.00022349253 0)
(0.17795513 0.00022116767 0)
(0.17736774 0.00021927124 0)
(0.17689319 0.00021699774 0)
(0.17631148 0.00021519243 0)
(0.17585106 0.00021296591 0)
(0.17527434 0.0002112514 0)
(0.17482812 0.00020906746 0)
(0.17425569 0.00020744388 0)
(0.17382379 0.00020529821 0)
(0.17325489 0.00020376617 0)
(0.1728375 0.00020165451 0)
(0.17227135 0.0002002151 0)
(0.17186872 0.00019813318 0)
(0.17130448 0.00019678796 0)
(0.17091692 0.00019473158 0)
(0.17035369 0.00019348271 0)
(0.16998157 0.00019144766 0)
(0.16941841 0.00019029785 0)
(0.1690622 0.00018828005 0)
(0.16849806 0.00018723259 0)
(0.1681583 0.00018522811 0)
(0.16759207 0.00018428698 0)
(0.16726942 0.00018229198 0)
(0.16669985 0.00018146182 0)
(0.16639509 0.00017947291 0)
(0.16582081 0.00017875908 0)
(0.16553484 0.00017677342 0)
(0.16495434 0.00017618197 0)
(0.16468824 0.00017419753 0)
(0.1640998 0.00017373512 0)
(0.16385483 0.00017175147 0)
(0.16325651 0.00017142518 0)
(0.16303416 0.00016944419 0)
(0.16242372 0.00016926151 0)
(0.16222578 0.00016728891 0)
(0.16160064 0.00016725708 0)
(0.16142923 0.00016530464 0)
(0.16078635 0.00016543082 0)
(0.16064403 0.00016351952 0)
(0.15997979 0.00016381449 0)
(0.15986962 0.00016197147 0)
(0.15917973 0.00016248637 0)
(0.15910527 0.00016070501 0)
(0.15838484 0.00016182446 0)
(0.15834943 0.00016001135 0)
(0.15759414 0.00016485933 0)
(0.48712423 0.014785542 0)
(0.49045764 0.021077014 0)
(0.497121 0.021400245 0)
(0.50294375 0.018455548 0)
(0.50590293 0.015080851 0)