/*--------------------------------*- C++ -*----------------------------------*\
| =========                 |                                                 |
| \\      /  F ield         | OpenFOAM: The Open Source CFD Toolbox           |
|  \\    /   O peration     | Version:  5.x                                   |
|   \\  /    A nd           | Web:      www.OpenFOAM.org                      |
|    \\/     M anipulation  |                                                 |
\*---------------------------------------------------------------------------*/
FoamFile
{
    version     2.0;
    format      ascii;
    class       volScalarField;
    location    "1";
    object      p;
}
// * * * * * * * * * * * * * * * * * * * * * * * * * * * * * * * * * * * * * //

dimensions      [0 2 -2 0 0 0 0];

internalField   nonuniform List<scalar> 
21600
(
0.015346365
0.010103261
0.0046784766
0.0012906917
0.00015161966
0.00028612387
0.00069676053
0.00099402334
0.0011411698
0.0011995063
0.0012222233
0.0012346856
0.001244607
0.0012529
0.0012591045
0.0012630229
0.0012648509
0.0012649469
0.0012636746
0.0012613251
0.0012581209
0.0012542207
0.0012497473
0.0012447907
0.0012394269
0.0012337136
0.0012277035
0.0012214361
0.0012149496
0.0012082713
0.0012014296
0.0011944434
0.0011873341
0.0011801144
0.0011728012
0.001165403
0.0011579332
0.0011503974
0.0011428065
0.001135164
0.0011274792
0.0011197539
0.0011119963
0.0011042069
0.0010963929
0.001088554
0.0010806966
0.0010728196
0.001064929
0.0010570229
0.0010491072
0.0010411795
0.0010332453
0.0010253018
0.0010173546
0.0010094004
0.0010014448
0.00099348401
0.00098552374
0.00097755978
0.00096959799
0.00096163365
0.00095367283
0.00094571039
0.00093775259
0.00092979392
0.00092184092
0.00091388765
0.00090594106
0.00089799472
0.00089005601
0.00088211798
0.00087418846
0.00086625991
0.00085834062
0.00085042246
0.00084251422
0.00083460717
0.00082671069
0.00081881545
0.00081093146
0.00080304881
0.00079517806
0.00078730876
0.00077945205
0.00077159686
0.00076375499
0.00075591464
0.00074808835
0.00074026346
0.00073245333
0.00072464445
0.00071685101
0.00070905867
0.00070128261
0.00069350753
0.00068574967
0.00067799266
0.00067025383
0.00066251564
0.00065479655
0.00064707784
0.00063937914
0.0006316805
0.00062400285
0.00061632492
0.00060866908
0.00060101264
0.0005933796
0.0005857456
0.00057813644
0.00057052585
0.00056294159
0.00055535527
0.00054779684
0.0005402356
0.00053270395
0.0005251686
0.00051766463
0.00051015592
0.00050268057
0.00049519942
0.00048775388
0.00048030155
0.00047288732
0.00046546521
0.00045808371
0.00045069291
0.00044334513
0.00043598637
0.00042867304
0.00042134697
0.00041406915
0.00040677708
0.00039953686
0.00039228099
0.00038508074
0.00037786275
0.0003707038
0.00036352449
0.00035640799
0.00034926881
0.00034219705
0.00033510019
0.00032807557
0.00032102276
0.0003140471
0.00030703975
0.00030011499
0.00029315489
0.00028628341
0.00027937271
0.00027255713
0.00026569775
0.00025894088
0.00025213547
0.00024544043
0.00023869177
0.00023206212
0.00022537117
0.00021880895
0.0002121783
0.00020568651
0.00019912137
0.00019270841
0.00018621254
0.00017988279
0.00017345742
0.00016721148
0.0001608611
0.00015470648
0.00014843678
0.00014237959
0.00013619329
0.00013023908
0.0001241413
0.00011829894
0.0001122951
0.00010657011
0.00010066708
9.5070681e-05
8.9273171e-05
8.3816919e-05
7.8131779e-05
7.2825848e-05
6.7262603e-05
6.212016e-05
5.6686118e-05
5.1721733e-05
4.6426534e-05
4.1660881e-05
3.6514667e-05
3.1972605e-05
2.6987726e-05
2.2699998e-05
1.7885763e-05
1.3897928e-05
9.2559369e-06
5.6695555e-06
1.1413948e-06
0.014099154
0.0099090207
0.0048141835
0.0014942345
0.00030776283
0.00038301475
0.00075820147
0.0010342026
0.0011690097
0.0012207158
0.0012397901
0.0012499062
0.0012580239
0.0012648217
0.0012697728
0.00127264
0.0012735812
0.0012729219
0.0012709992
0.0012680843
0.0012643845
0.0012600468
0.0012551848
0.0012498811
0.0012442058
0.0012382116
0.0012319472
0.0012254486
0.0012187512
0.00121188
0.0012048612
0.0011977119
0.001190452
0.0011830931
0.0011756506
0.0011681323
0.0011605505
0.0011529102
0.0011452216
0.0011374876
0.0011297169
0.0011219109
0.0011140773
0.0011062162
0.0010983346
0.0010904318
0.0010825139
0.0010745796
0.0010666346
0.0010586769
0.0010507121
0.0010427377
0.001034759
0.0010267731
0.0010187855
0.0010107926
0.0010028
0.00099480391
0.0009868098
0.00097881342
0.00097082055
0.00096282639
0.00095483694
0.00094684699
0.00093886275
0.00093087864
0.00092290115
0.00091492431
0.000906955
0.00089898675
0.00089102692
0.0008830685
0.00087511929
0.00086717172
0.00085923405
0.00085129812
0.00084337268
0.00083544899
0.00082753641
0.00081962557
0.00081172646
0.00080382915
0.0007959442
0.0007880611
0.00078019102
0.00077232284
0.00076446837
0.00075661576
0.00074877758
0.00074094112
0.00073311975
0.00072529991
0.00071749584
0.00070969314
0.00070190699
0.0006941221
0.00068635468
0.00067858834
0.00067084044
0.00066309339
0.00065536568
0.00064763855
0.00063993164
0.000632225
0.00062453952
0.00061685397
0.00060919067
0.00060152696
0.00059388681
0.00058624587
0.00057862994
0.00057101272
0.00056342198
0.00055582933
0.0005482647
0.0005406974
0.00053315982
0.00052561867
0.00051810903
0.00051059476
0.00050311398
0.0004956275
0.00048817674
0.00048071931
0.00047330009
0.00046587307
0.00045848678
0.00045109127
0.00044373889
0.00043637562
0.00042905786
0.00042172744
0.00041444536
0.00040714912
0.0003999048
0.00039264492
0.00038544073
0.00037821889
0.00037105614
0.00036387312
0.00035675296
0.00034961021
0.00034253491
0.00033543463
0.0003284066
0.0003213505
0.00031437154
0.00030736102
0.00030043308
0.00029346994
0.00028659538
0.00027968174
0.0002728632
0.000266001
0.00025924124
0.00025243314
0.00024573531
0.00023898406
0.00023235174
0.00022565827
0.00021909344
0.00021246041
0.00020596606
0.00019939862
0.0001929833
0.00018648519
0.00018015312
0.00017372561
0.00016747736
0.00016112499
0.00015496821
0.00014869658
0.00014263724
0.00013644911
0.00013049288
0.00012439334
0.00011854904
0.00011254356
0.0001068166
0.00010091206
9.5313949e-05
8.9514842e-05
8.4056943e-05
7.8370372e-05
7.3062935e-05
6.7498301e-05
6.2354439e-05
5.6919098e-05
5.1953496e-05
4.6656975e-05
4.1890377e-05
3.6742802e-05
3.2200193e-05
2.7213811e-05
2.2926109e-05
1.8109978e-05
1.4123499e-05
9.4783746e-06
5.896375e-06
1.3620146e-06
0.013103141
0.0097470328
0.0050794508
0.0018309003
0.00053722557
0.00050654732
0.00082708039
0.0010800708
0.0012029673
0.0012468966
0.0012607297
0.0012672753
0.0012727824
0.0012775332
0.0012808315
0.0012823592
0.0012822127
0.0012806623
0.0012779998
0.0012744617
0.0012702299
0.001265433
0.001260171
0.0012545159
0.0012485297
0.0012422589
0.0012357468
0.0012290255
0.0012221268
0.0012150728
0.0012078875
0.0012005859
0.0011931863
0.0011856988
0.0011781376
0.0011705095
0.0011628259
0.0011550908
0.001147314
0.0011394975
0.0011316497
0.0011237715
0.0011158701
0.0011079453
0.0011000036
0.0010920441
0.0010840728
0.0010760879
0.001068095
0.0010600919
0.0010520841
0.0010440687
0.0010360511
0.0010280281
0.0010200052
0.0010119786
0.0010039539
0.00099592702
0.00098790355
0.00097987901
0.00097185923
0.00096383922
0.00095582504
0.00094781128
0.00093980424
0.00093179815
0.00092379959
0.00091580239
0.00090781357
0.00089982643
0.00089184849
0.0008838725
0.00087590643
0.0008679425
0.00085998911
0.00085203789
0.00084409778
0.00083615979
0.00082823347
0.00082030922
0.00081239725
0.00080448735
0.00079659033
0.00078869539
0.00078081396
0.00077293463
0.00076506948
0.00075720635
0.0007493581
0.00074151171
0.00073368083
0.0007258516
0.00071803855
0.00071022694
0.00070243231
0.00069463897
0.00068686352
0.00067908916
0.00067133365
0.00066357897
0.00065584404
0.00064810965
0.00064039589
0.00063268232
0.00062499034
0.00061729817
0.00060962869
0.00060195867
0.00059431264
0.00058666566
0.00057904413
0.00057142114
0.00056382507
0.00055622686
0.00054865717
0.00054108454
0.00053354214
0.00052599587
0.00051848163
0.00051096244
0.00050347727
0.00049598604
0.00048853112
0.0004810691
0.00047364591
0.00046621447
0.00045882439
0.00045142461
0.00044406863
0.00043670122
0.00042938003
0.00042204559
0.00041476025
0.00040746011
0.0004002127
0.00039294903
0.00038574192
0.00037851638
0.00037135085
0.00036416422
0.00035704142
0.00034989514
0.00034281738
0.00033571365
0.00032868329
0.00032162379
0.00031464266
0.00030762879
0.00030069882
0.00029373238
0.00028685594
0.00027993905
0.00027311877
0.00026625333
0.00025949199
0.00025268068
0.00024598142
0.00023922695
0.0002325934
0.00022589669
0.00021933073
0.00021269449
0.00020619918
0.00019962847
0.00019321249
0.00018671104
0.00018037841
0.00017394752
0.00016769887
0.0001613431
0.00015518621
0.00014891106
0.00014285176
0.00013665998
0.00013070412
0.0001246008
0.00011875711
0.00011274773
0.0001070216
0.00010111296
9.5516189e-05
8.9712619e-05
8.4256344e-05
7.8565166e-05
7.3259803e-05
6.7690187e-05
6.2548835e-05
5.7108149e-05
5.2145681e-05
4.6843254e-05
4.2080492e-05
3.6926396e-05
3.2388507e-05
2.7394747e-05
2.311283e-05
1.8288113e-05
1.4308711e-05
9.6533936e-06
6.0677345e-06
1.5080608e-06
0.012255239
0.0095593819
0.0053549825
0.0022119655
0.00082208375
0.00067036152
0.00092558778
0.0011492826
0.0012549297
0.0012860888
0.0012908536
0.0012913563
0.0012928156
0.0012946328
0.0012956294
0.0012952837
0.0012935969
0.0012907725
0.0012870471
0.001282613
0.0012776187
0.0012721672
0.0012663393
0.0012601917
0.0012537744
0.0012471238
0.0012402757
0.0012332552
0.001226089
0.0012187947
0.0012113925
0.0012038945
0.0011963163
0.0011886657
0.0011809555
0.0011731903
0.0011653806
0.0011575291
0.0011496445
0.0011417281
0.0011337874
0.0011258225
0.0011178403
0.0011098398
0.0011018273
0.0010938013
0.0010857675
0.0010777236
0.0010696753
0.0010616198
0.0010535624
0.0010455
0.001037438
0.0010293728
0.0010213098
0.0010132451
0.0010051842
0.00099712265
0.00098906626
0.0009810102
0.00097296039
0.00096491158
0.00095686992
0.00094882976
0.0009407975
0.00093276713
0.00092474536
0.00091672578
0.00090871554
0.0009007077
0.00089270995
0.00088471477
0.00087673033
0.00086874857
0.00086077811
0.00085281029
0.00084485428
0.0008369008
0.00082895964
0.00082102092
0.00081309507
0.00080517161
0.0007972616
0.00078935395
0.00078146034
0.00077356905
0.00076569246
0.00075781808
0.00074995907
0.00074210206
0.00073426106
0.00072642179
0.00071859919
0.0007107781
0.00070297446
0.00069517213
0.00068738816
0.00067960529
0.00067184172
0.00066407895
0.00065633639
0.0006485943
0.00064087331
0.00063315242
0.00062545358
0.00061775442
0.00061007844
0.00060240175
0.00059474954
0.00058709619
0.00057946879
0.0005718397
0.00056423805
0.000556634
0.00054905899
0.00054148076
0.00053393331
0.00052638164
0.0005188626
0.00051133822
0.00050384848
0.00049635227
0.00048889299
0.00048142617
0.00047399884
0.00046656275
0.00045916873
0.00045176446
0.00044440473
0.00043703297
0.00042970821
0.00042236955
0.00041508083
0.0004077766
0.00040052599
0.00039325833
0.00038604819
0.00037881876
0.00037165035
0.00036445991
0.00035733441
0.00035018441
0.00034310411
0.00033599673
0.00032896398
0.00032190089
0.00031491752
0.00030790011
0.00030096806
0.00029399812
0.00028711976
0.00028019939
0.00027337737
0.00026650846
0.00025974552
0.00025293078
0.0002462301
0.00023947216
0.00023283739
0.00022613719
0.00021957011
0.00021293042
0.0002064342
0.00019985995
0.00019344333
0.00018693827
0.00018060508
0.00017417054
0.00016792153
0.00016156207
0.00015540511
0.00014912611
0.00014306691
0.00013687115
0.00013091573
0.00012480826
0.00011896522
0.00011295157
0.00010722634
0.00010131318
9.5717821e-05
8.9909373e-05
8.4454739e-05
7.8758538e-05
7.3455246e-05
6.7880194e-05
6.2741315e-05
5.729481e-05
5.2335397e-05
4.7026578e-05
4.2267447e-05
3.7106381e-05
3.2572797e-05
2.7571286e-05
2.329425e-05
1.8460951e-05
1.44856e-05
9.8213852e-06
6.2126824e-06
1.6203721e-06
0.011483667
0.0093152911
0.0055866558
0.0025826674
0.0011192908
0.00085103363
0.0010387484
0.0012327433
0.0013212059
0.0013381185
0.0013314862
0.001323971
0.0013199966
0.0013178881
0.0013157905
0.0013128925
0.0013090805
0.0013044861
0.0012992809
0.0012935989
0.0012875427
0.0012811791
0.0012745618
0.0012677262
0.0012607061
0.0012535241
0.0012462055
0.0012387663
0.001231226
0.001223596
0.0012158917
0.0012081205
0.0012002947
0.001192419
0.0011845033
0.0011765503
0.0011685683
0.0011605583
0.0011525278
0.0011444764
0.0011364109
0.0011283301
0.0011202402
0.0011121394
0.0011040334
0.0010959198
0.0010878041
0.0010796834
0.001071563
0.0010634396
0.0010553183
0.0010471957
0.0010390768
0.0010309578
0.0010228438
0.0010147308
0.0010066241
0.00099851902
0.00099042131
0.00098232583
0.00097423857
0.00096615395
0.00095807821
0.00095000541
0.00094194205
0.00093388182
0.00092583157
0.0009177846
0.0009097482
0.00090171516
0.00089369331
0.00088567489
0.0008776682
0.00086966493
0.00086167388
0.00085368612
0.00084571101
0.00083773899
0.00082978008
0.0008218241
0.00081388172
0.00080594215
0.00079801671
0.00079009399
0.00078218596
0.00077428056
0.00076639047
0.00075850283
0.00075063116
0.0007427617
0.00073490879
0.00072705781
0.00071922401
0.00071139187
0.00070357769
0.00069576492
0.00068797101
0.00068017826
0.00067240531
0.00066463318
0.00065688176
0.00064913079
0.00064140141
0.00063367207
0.0006259653
0.00061825812
0.00061057462
0.00060289028
0.00059523095
0.00058757031
0.00057993615
0.00057230008
0.00056469201
0.00055708129
0.00054950019
0.00054191557
0.00053436232
0.00052680454
0.00051927998
0.00051174973
0.00050425474
0.00049675289
0.00048928862
0.00048181637
0.00047438429
0.00046694297
0.00045954443
0.00045213511
0.00044477107
0.00043739443
0.00043006558
0.0004227222
0.00041542959
0.00040812078
0.00040086648
0.00039359439
0.00038638075
0.00037914699
0.00037197525
0.00036478058
0.00035765193
0.00035049782
0.00034341456
0.00033630315
0.00032926761
0.00032220055
0.00031521455
0.00030819324
0.00030125873
0.00029428494
0.00028740429
0.00028048012
0.00027365598
0.0002667833
0.0002600184
0.00025319993
0.00024649746
0.00023973576
0.00023309939
0.00022639544
0.00021982687
0.00021318347
0.00020668599
0.00020010794
0.00019369031
0.00018718141
0.00018084726
0.00017440886
0.00016815909
0.00016179572
0.00015563829
0.00014935523
0.00014329569
0.00013709576
0.00013114032
0.00012502854
0.00011918565
0.00011316757
0.00010744274
0.00010152491
9.5930358e-05
9.0116948e-05
8.4663259e-05
7.8961998e-05
7.3659987e-05
6.8079489e-05
6.2942181e-05
5.7489901e-05
5.2532478e-05
4.7217392e-05
4.2460564e-05
3.7292807e-05
3.2761756e-05
2.7753084e-05
2.3478174e-05
1.8637804e-05
1.4660205e-05
9.9900491e-06
6.3364145e-06
1.7056995e-06
0.010785716
0.0090239375
0.0057663901
0.002930468
0.0014157193
0.0010361287
0.001154154
0.0013188524
0.0013927526
0.0013970615
0.0013789871
0.00136274
0.0013526888
0.0013462062
0.0013406491
0.0013348393
0.0013285415
0.0013218329
0.0013148322
0.001307618
0.0013002439
0.0012927383
0.0012851248
0.0012774152
0.0012696247
0.0012617605
0.0012538348
0.0012458532
0.0012378267
0.001229759
0.0012216595
0.0012135302
0.0012053791
0.0011972069
0.0011890204
0.0011808191
0.0011726094
0.0011643897
0.0011561659
0.0011479359
0.0011397051
0.0011314709
0.0011232386
0.0011150051
0.0011067755
0.0010985465
0.0010903229
0.0010821011
0.0010738859
0.0010656734
0.0010574684
0.0010492669
0.0010410738
0.0010328846
0.0010247045
0.0010165287
0.0010083627
0.0010002013
0.00099205031
0.00098390411
0.00097576871
0.00096763821
0.00095951886
0.0009514044
0.00094330139
0.00093520322
0.00092711683
0.00091903518
0.00091096572
0.00090290091
0.00089484873
0.00088680111
0.00087876653
0.00087073636
0.00086271959
0.00085470698
0.00084670809
0.00083871307
0.00083073214
0.00082275481
0.00081479199
0.00080683258
0.00079888813
0.00079094691
0.00078302118
0.0007750985
0.00076719188
0.0007592881
0.00075140096
0.00074351636
0.00073564898
0.00072778378
0.00071993641
0.00071209091
0.00070426398
0.00069643863
0.00068863273
0.00068082811
0.00067304387
0.00066526053
0.00065749846
0.00064973688
0.00064199745
0.00063425806
0.0006265418
0.00061882508
0.00061113261
0.00060343921
0.00059577139
0.00058810213
0.00058045993
0.00057281565
0.00056519995
0.0005575814
0.00054999305
0.00054240095
0.00053484082
0.00052727589
0.00051974479
0.0005122077
0.0005047065
0.00049719808
0.0004897279
0.00048224936
0.00047481165
0.00046736429
0.00045996039
0.00045254525
0.0004451761
0.00043779385
0.00043046014
0.00042311134
0.00041581412
0.00040850008
0.00040124141
0.00039396425
0.00038674643
0.00037950774
0.00037233203
0.00036513257
0.00035800016
0.00035084139
0.00034375458
0.00033663861
0.0003295997
0.00032252817
0.00031553898
0.00030851329
0.00030157578
0.00029459769
0.00028771422
0.00028078581
0.00027395902
0.00026708215
0.00026031477
0.00025349216
0.0002467874
0.00024002155
0.00023338306
0.00022667501
0.00022010443
0.00021345696
0.00020695772
0.00020037554
0.00019395637
0.00018744332
0.00018110763
0.0001746651
0.00016841401
0.00016204647
0.00015588796
0.00014960059
0.00014354009
0.00013733576
0.00013137963
0.00012526335
0.00011941987
0.00011339719
0.00010767199
0.00010174931
9.6154718e-05
9.0336239e-05
8.4882521e-05
7.9176137e-05
7.38743e-05
6.8288342e-05
6.3151329e-05
5.7693337e-05
5.2736373e-05
4.741522e-05
4.2658757e-05
3.748478e-05
3.2953564e-05
2.7938843e-05
2.3661676e-05
1.8816869e-05
1.4827843e-05
1.0155109e-05
6.435772e-06
1.7608578e-06
0.01016498
0.0087074445
0.0058954778
0.0032517337
0.0017086225
0.0012237842
0.0012693761
0.0014040148
0.0014656099
0.0014595506
0.0014306385
0.0014052614
0.0013886497
0.0013775457
0.0013684389
0.001359653
0.0013507794
0.0013418447
0.0013329294
0.0013240644
0.0013152562
0.0013064941
0.0012977724
0.0012890802
0.0012804146
0.0012717676
0.0012631395
0.0012545251
0.0012459268
0.0012373408
0.0012287701
0.0012202114
0.001211668
0.0012031363
0.0011946199
0.0011861151
0.0011776255
0.0011691474
0.0011606845
0.0011522328
0.0011437961
0.0011353705
0.0011269599
0.0011185601
0.0011101751
0.0011018006
0.0010934408
0.0010850913
0.0010767561
0.0010684308
0.0010601197
0.0010518181
0.0010435305
0.0010352521
0.0010269878
0.0010187323
0.0010104908
0.0010022578
0.00099403885
0.00098582808
0.0009776314
0.0009694425
0.00096126767
0.00095310024
0.00094494683
0.00093680046
0.00092866815
0.00092054252
0.00091243111
0.00090432606
0.00089623546
0.00088815092
0.00088008105
0.00087201693
0.00086396767
0.00085592376
0.00084789491
0.00083987096
0.00083186232
0.00082385821
0.00081586973
0.00080788546
0.00079991719
0.00079195287
0.00078400498
0.00077606078
0.00076813353
0.00076020966
0.00075230326
0.00074439988
0.0007365145
0.00072863172
0.0007207675
0.00071290549
0.00070506278
0.00069722193
0.00068940122
0.00068158201
0.00067378384
0.00066598675
0.00065821156
0.00065043701
0.00064268523
0.00063493357
0.00062720566
0.00061947733
0.00061177387
0.00060406946
0.00059639125
0.00058871155
0.00058105951
0.00057340531
0.0005657803
0.0005581523
0.00055055513
0.00054295403
0.00053538552
0.00052781201
0.00052027295
0.00051272767
0.0005052189
0.00049770266
0.0004902253
0.00048273926
0.00047529472
0.00046784016
0.00046042975
0.00045300771
0.00044563236
0.00043824347
0.00043090386
0.00042354868
0.00041624584
0.00040892565
0.00040166164
0.00039437854
0.00038715564
0.00037991118
0.00037273061
0.00036552556
0.00035838854
0.00035122436
0.00034413316
0.00033701193
0.00032996884
0.00032289217
0.000315899
0.00030886828
0.00030192699
0.00029494399
0.00028805694
0.0002811237
0.00027429353
0.0002674119
0.00026064132
0.00025381404
0.00024710627
0.00024033576
0.00023369442
0.00022698178
0.00022040846
0.00021375648
0.00020725475
0.00020066801
0.00019424653
0.00018772895
0.00018139093
0.00017494389
0.00016869067
0.00016231861
0.00015615819
0.00014986619
0.00014380384
0.00013759481
0.00013163707
0.00012551601
0.00011967092
0.00011364342
0.00010791678
0.00010198906
9.6393193e-05
9.0569542e-05
8.5114408e-05
7.9402869e-05
7.4099613e-05
6.8508262e-05
6.3369677e-05
5.7906201e-05
5.2947393e-05
4.7620698e-05
4.2861594e-05
3.7682487e-05
3.314681e-05
2.8128268e-05
2.3842074e-05
1.8996909e-05
1.498454e-05
1.0312279e-05
6.5103446e-06
1.7882397e-06
0.0096195567
0.0083836829
0.0059754649
0.0035423908
0.0019954457
0.0014142166
0.0013849136
0.0014875683
0.0015382451
0.0015240831
0.001485277
0.0014505011
0.0014267758
0.0014107224
0.0013979736
0.0013862073
0.0013747485
0.0013635561
0.0013526852
0.0013421289
0.001331849
0.0013217939
0.0013119268
0.0013022131
0.0012926323
0.0012831617
0.0012737897
0.0012645007
0.0012552888
0.0012461427
0.0012370596
0.0012280307
0.0012190549
0.0012101246
0.0012012402
0.0011923947
0.0011835894
0.001174818
0.0011660823
0.0011573764
0.0011487028
0.0011400556
0.0011314377
0.0011228437
0.0011142766
0.0011057311
0.0010972106
0.0010887096
0.0010802319
0.0010717721
0.0010633341
0.0010549124
0.0010465115
0.0010381257
0.0010297596
0.0010214075
0.0010130744
0.0010047544
0.00099645276
0.00098816325
0.00097989169
0.00097163138
0.00096338854
0.00095515615
0.00094694081
0.00093873518
0.00093054633
0.00092236653
0.00091420336
0.00090604866
0.00089791057
0.00088978041
0.00088166688
0.00087356075
0.00086547126
0.00085738858
0.00084932258
0.0008412628
0.00083321979
0.00082518249
0.00081716215
0.00080914708
0.00080114923
0.00079315627
0.00078518088
0.00077721001
0.00076925713
0.00076130837
0.00075337808
0.00074545143
0.00073754371
0.00072963916
0.00072175404
0.00071387163
0.00070600933
0.00069814933
0.00069031024
0.00068247303
0.00067465759
0.00066684355
0.00065905212
0.00065126157
0.0006434945
0.00063572775
0.00062798542
0.00062024282
0.00061252576
0.00060480785
0.0005971168
0.00058942429
0.00058176011
0.00057409376
0.00056645724
0.00055881771
0.00055120963
0.00054359755
0.0005360187
0.00052843473
0.00052088586
0.00051333061
0.00050581252
0.00049828678
0.00049080054
0.00048330543
0.00047585245
0.0004683892
0.00046097075
0.00045354038
0.00044615737
0.00043876048
0.00043141358
0.00042405072
0.00041674094
0.00040941337
0.00040214275
0.00039485254
0.00038762331
0.00038037198
0.00037318536
0.00036597366
0.00035883088
0.00035166029
0.0003445636
0.00033743615
0.0003303878
0.00032330506
0.00031630686
0.00030927025
0.00030232415
0.0002953354
0.00028844376
0.0002815049
0.00027467036
0.00026778323
0.00026100846
0.00025417579
0.00024746402
0.00024068817
0.000234043
0.00022732513
0.00022074809
0.00021409097
0.00020758578
0.0002009939
0.00019456909
0.00018804643
0.00018170503
0.00017525297
0.00016899656
0.00016261951
0.00015645605
0.00015015898
0.00014409359
0.00013787948
0.00013191884
0.0001257927
0.0001199446
0.00011391202
0.00010818243
0.00010224948
9.6650621e-05
9.0821759e-05
8.5363241e-05
7.9646649e-05
7.4339667e-05
6.8743241e-05
6.3600313e-05
5.8132016e-05
5.3167862e-05
4.7836859e-05
4.3070494e-05
3.7888424e-05
3.3341837e-05
2.8323112e-05
2.4018606e-05
1.9178036e-05
1.5128946e-05
1.0458903e-05
6.5631675e-06
1.7953086e-06
0.0091415425
0.0080654797
0.0060092429
0.003798114
0.0022723519
0.0016074649
0.0015019368
0.0015696328
0.0016097448
0.0015896043
0.0015422581
0.0014981038
0.0014667259
0.0014452923
0.0014287338
0.0014139625
0.0013999143
0.0013864387
0.0013735727
0.0013612872
0.0013495053
0.0013381337
0.0013271015
0.0013163486
0.0013058356
0.0012955249
0.0012853928
0.0012754133
0.0012655718
0.0012558496
0.0012462378
0.0012367221
0.0012272971
0.0012179512
0.0012086814
0.0011994778
0.0011903392
0.0011812568
0.0011722307
0.001163253
0.0011543247
0.0011454384
0.0011365961
0.0011277908
0.0011190248
0.0011102917
0.0011015941
0.0010929258
0.0010842899
0.0010756802
0.0010671003
0.001058544
0.0010500153
0.0010415081
0.0010330267
0.0010245647
0.0010161272
0.0010077076
0.00099931111
0.00099093101
0.00098257307
0.00097423014
0.00096590844
0.00095760053
0.00094931302
0.00094103821
0.00093278317
0.00092453983
0.00091631585
0.00090810268
0.00089990857
0.00089172451
0.00088355928
0.00087540335
0.00086726607
0.0008591373
0.00085102704
0.00084292453
0.00083484046
0.00082676348
0.00081870499
0.00081065301
0.00080261966
0.00079459231
0.00078658384
0.00077858087
0.00077059712
0.00076261836
0.0007546592
0.00074670449
0.00073876975
0.00073083888
0.00072292845
0.00071502135
0.0007071353
0.0006992521
0.0006913907
0.00068353166
0.00067569523
0.00066786062
0.00066004943
0.00065223948
0.00064445377
0.00063666869
0.00062890879
0.00062114886
0.0006134152
0.00060568089
0.00059797415
0.0005902661
0.00058258707
0.00057490597
0.00056725539
0.00055960183
0.00055198041
0.000544355
0.00053676348
0.00052916683
0.00052160592
0.00051403858
0.00050650906
0.00049897178
0.00049147467
0.00048396855
0.0004765052
0.00046903144
0.0004616031
0.00045416265
0.00044677021
0.00043936366
0.00043200776
0.00042463564
0.00041731729
0.00040998083
0.00040270203
0.00039540326
0.00038816619
0.00038090661
0.00037371246
0.00036649281
0.00035934285
0.00035216458
0.00034506103
0.00033792614
0.00033087119
0.00032378123
0.0003167767
0.00030973307
0.0003027809
0.00029578534
0.00028888786
0.00028194236
0.00027510221
0.0002682086
0.00026142842
0.00025458943
0.00024787246
0.00024109038
0.00023444015
0.00022771621
0.00022113421
0.00021447117
0.00020796128
0.00020136352
0.00019493408
0.00018840566
0.00018205953
0.00017560182
0.00016934082
0.00016295821
0.00015679023
0.00015048759
0.00014441759
0.00013819798
0.00013223275
0.00012610118
0.0001202482
0.00011421032
0.00010847572
0.00010253748
9.6933244e-05
9.1099326e-05
8.5634673e-05
7.9913448e-05
7.4599462e-05
6.8998772e-05
6.384751e-05
5.8375773e-05
5.3401227e-05
4.8068129e-05
4.3287997e-05
3.8106302e-05
3.3540267e-05
2.8525922e-05
2.4192144e-05
1.9360658e-05
1.5261787e-05
1.0593842e-05
6.5989392e-06
1.7917099e-06
0.0087203745
0.0077614352
0.0060027058
0.0040158756
0.0025352479
0.0018030541
0.0016217684
0.0016508074
0.0016795346
0.0016551553
0.0016010085
0.0015479216
0.0015084873
0.0014811791
0.0014605535
0.0014427118
0.0014260658
0.0014102828
0.0013953757
0.0013813099
0.0013679823
0.0013552602
0.0013430362
0.0013312218
0.0013197574
0.0013085896
0.0012976824
0.0012869991
0.0012765163
0.0012662073
0.001256057
0.0012460453
0.0012361625
0.0012263925
0.0012167294
0.0012071596
0.0011976798
0.0011882786
0.0011789543
0.0011696969
0.001160506
0.0011513728
0.0011422979
0.0011332731
0.0011243001
0.001115371
0.0011064881
0.0010976441
0.0010888417
0.0010800737
0.0010713436
0.0010626443
0.0010539796
0.0010453426
0.0010367376
0.0010281577
0.0010196076
0.0010110803
0.001002581
0.00099410241
0.0009856503
0.00097721705
0.00096880891
0.00096041798
0.00095205096
0.00094369969
0.00093537135
0.00092705745
0.00091876575
0.00091048734
0.00090223057
0.00089398607
0.00088576277
0.00087755075
0.00086935954
0.00086117864
0.00085301821
0.00084486717
0.00083673639
0.00082861416
0.00082051211
0.00081241788
0.00080434385
0.000796277
0.00078823047
0.00078019053
0.00077217114
0.00076415772
0.00075616514
0.00074817789
0.00074021179
0.00073225034
0.00072431043
0.00071637456
0.00070846078
0.00070055048
0.00069266297
0.00068477837
0.00067691732
0.00066905857
0.00066122414
0.00065339137
0.00064558372
0.00063777705
0.0006299964
0.00062221602
0.00061446273
0.00060670902
0.0005989837
0.00059125724
0.00058356059
0.00057586199
0.00056819468
0.00056052448
0.00055288717
0.00054524592
0.0005376393
0.00053002754
0.00052245226
0.00051487053
0.00050732731
0.00049977631
0.00049226615
0.00048474691
0.00047727111
0.00046978479
0.00046234456
0.00045489209
0.00044748828
0.00044007021
0.00043270345
0.00042532027
0.00041799155
0.00041064448
0.00040335576
0.00039604678
0.00038880019
0.00038153074
0.00037432746
0.0003670983
0.00035993959
0.00035275217
0.00034564021
0.00033849646
0.0003314334
0.00032433486
0.00031732251
0.00031027057
0.00030331086
0.00029630723
0.00028940248
0.00028244914
0.00027560194
0.00026870072
0.00026191369
0.00025506729
0.00024834369
0.00024155433
0.00023489758
0.0002281666
0.00022157818
0.00021490828
0.00020839219
0.0002017877
0.00019535206
0.00018881709
0.00018246459
0.00017600052
0.00016973323
0.00016334442
0.00015717009
0.00015086134
0.00014478474
0.00013855923
0.00013258722
0.00012645001
0.0001205897
0.00011454647
0.00010880412
0.00010286078
9.7247973e-05
9.1409548e-05
8.5935031e-05
8.0210126e-05
7.4884681e-05
6.9281238e-05
6.4116257e-05
5.8643309e-05
5.3651744e-05
4.8319666e-05
4.3517644e-05
3.8340318e-05
3.374502e-05
2.8739428e-05
2.4365147e-05
1.9545392e-05
1.5385414e-05
1.0717839e-05
6.6231271e-06
1.7876251e-06
0.0083454367
0.0074765882
0.0059640684
0.0041947084
0.0027802984
0.0019996877
0.0017455211
0.0017320801
0.001747413
0.00171988
0.0016608876
0.0015997909
0.0015521455
0.0015184625
0.0014934217
0.0014723861
0.0014531246
0.0014350199
0.0014180304
0.0014021281
0.0013872001
0.0013730822
0.0013596304
0.0013467246
0.0013342827
0.0013222346
0.0013105318
0.0012991264
0.0012879861
0.0012770761
0.0012663749
0.0012558561
0.0012455055
0.0012353026
0.0012252379
0.0012152947
0.001205467
0.0011957408
0.0011861124
0.0011765698
0.0011671113
0.0011577261
0.001148414
0.0011391653
0.0011299807
0.0011208514
0.001111779
0.001102755
0.0010937818
0.0010848514
0.0010759669
0.0010671203
0.0010583154
0.0010495444
0.0010408117
0.0010321095
0.0010234426
0.0010148033
0.0010061969
0.00099761548
0.00098906491
0.00098053699
0.00097203811
0.00096355981
0.00095510897
0.00094667688
0.00093827095
0.00092988216
0.00092151849
0.00091317054
0.0009048469
0.0008965377
0.00088825214
0.00087997983
0.00087173057
0.00086349339
0.00085527876
0.00084707512
0.00083889365
0.00083072218
0.00082257266
0.00081443228
0.00080631375
0.00079820359
0.00079011529
0.00078203463
0.00077397598
0.00076592425
0.00075789474
0.00074987139
0.00074187049
0.00073387501
0.0007259023
0.00071793429
0.00070998956
0.00070204889
0.00069413213
0.00068621881
0.00067833009
0.00067044413
0.00066258352
0.00065472495
0.00064689249
0.00063906134
0.00063125717
0.00062345354
0.00061567795
0.00060790214
0.00060015563
0.00059240815
0.00058469136
0.00057697273
0.00056928626
0.00056159696
0.00055394141
0.00054628194
0.00053865792
0.00053102877
0.00052343691
0.00051583855
0.00050827951
0.00050071261
0.00049318734
0.00048565289
0.00047816265
0.00047066175
0.00046320768
0.00045574122
0.00044832417
0.00044089266
0.00043351322
0.00042611714
0.00041877627
0.00041141682
0.00040411644
0.00039679554
0.00038953772
0.00038225676
0.00037504266
0.0003678024
0.00036063331