/*--------------------------------*- C++ -*----------------------------------*\
| =========                 |                                                 |
| \\      /  F ield         | OpenFOAM: The Open Source CFD Toolbox           |
|  \\    /   O peration     | Version:  5.x                                   |
|   \\  /    A nd           | Web:      www.OpenFOAM.org                      |
|    \\/     M anipulation  |                                                 |
\*---------------------------------------------------------------------------*/
FoamFile
{
    version     2.0;
    format      ascii;
    class       surfaceScalarField;
    location    "1";
    object      phi;
}
// * * * * * * * * * * * * * * * * * * * * * * * * * * * * * * * * * * * * * //

dimensions      [0 3 -1 0 0 0 0];

internalField   nonuniform List<scalar> 
42870
(
2.9770552e-08
9.9456562e-09
-3.9716209e-08
2.0560988e-08
9.2095646e-09
1.4207191e-08
6.3537965e-09
1.0639466e-08
3.5677257e-09
8.8228393e-09
1.8166263e-09
7.8251945e-09
9.9764483e-10
7.1956189e-09
6.2957557e-10
6.7342243e-09
4.6139461e-10
6.3576222e-09
3.7660207e-10
6.034332e-09
3.2329016e-10
5.7524529e-09
2.8187916e-10
5.5056188e-09
2.4683408e-10
5.2883981e-09
2.1722069e-10
5.0957795e-09
1.9261865e-10
4.9234748e-09
1.7230462e-10
4.7680381e-09
1.5543678e-10
4.6267863e-09
1.4125173e-10
4.4976268e-09
1.2915956e-10
4.3789043e-09
1.1872251e-10
4.269276e-09
1.096283e-10
4.1676368e-09
1.0163918e-10
4.0730588e-09
9.4578014e-11
3.9847603e-09
8.8298433e-11
3.9020723e-09
8.2688065e-11
3.8244237e-09
7.7648565e-11
3.751319e-09
7.3104678e-11
3.6823315e-09
6.8987526e-11
3.6170857e-09
6.5245774e-11
3.5552559e-09
6.1829847e-11
3.4965516e-09
5.8704261e-11
3.4407193e-09
5.5832279e-11
3.3875302e-09
5.3189097e-11
3.3367836e-09
5.0746642e-11
3.2882961e-09
4.8487461e-11
3.2419067e-09
4.6389447e-11
3.1974663e-09
4.444034e-11
3.1548441e-09
4.2622242e-11
3.1139174e-09
4.0926676e-11
3.0745787e-09
3.9338753e-11
3.0367259e-09
3.7852805e-11
3.0002697e-09
3.6456134e-11
2.9651245e-09
3.5145213e-11
2.9312156e-09
3.390895e-11
2.8984701e-09
3.2745487e-11
2.8668252e-09
3.1644911e-11
2.8362185e-09
3.060669e-11
2.8065967e-09
2.9621774e-11
2.777906e-09
2.8690714e-11
2.7501009e-09
2.7805083e-11
2.7231346e-09
2.6966333e-11
2.6969681e-09
2.6166475e-11
2.6715604e-09
2.5407737e-11
2.6468779e-09
2.468242e-11
2.6228845e-09
2.399343e-11
2.5995513e-09
2.3333243e-11
2.5768459e-09
2.2705375e-11
2.5547435e-09
2.2102382e-11
2.5332152e-09
2.1528339e-11
2.5122394e-09
2.0975801e-11
2.49179e-09
2.0449375e-11
2.4718485e-09
1.9941541e-11
2.452391e-09
1.9457419e-11
2.4334017e-09
1.8989351e-11
2.4148587e-09
1.8542962e-11
2.3967483e-09
1.81104e-11
2.3790505e-09
1.7697795e-11
2.3617535e-09
1.7297047e-11
2.3448387e-09
1.6914796e-11
2.328296e-09
1.6542646e-11
2.3121083e-09
1.6187759e-11
2.2962669e-09
1.5841391e-11
2.2807556e-09
1.5511251e-11
2.2655674e-09
1.5188194e-11
2.2506869e-09
1.48805e-11
2.2361084e-09
1.4578578e-11
2.2218171e-09
1.4291304e-11
2.2078085e-09
1.4008588e-11
2.1940685e-09
1.3739943e-11
2.1805938e-09
1.3474722e-11
2.1673707e-09
1.3223115e-11
2.1543968e-09
1.2973865e-11
2.141659e-09
1.2737881e-11
2.1291557e-09
1.2503239e-11
2.1168741e-09
1.2281615e-11
2.1048138e-09
1.2060359e-11
2.0929618e-09
1.185197e-11
2.0813188e-09
1.1642998e-11
2.0698719e-09
1.1446836e-11
2.0586228e-09
1.1249157e-11
2.0475585e-09
1.1064315e-11
2.0366814e-09
1.0877033e-11
2.0259787e-09
1.0702693e-11
2.0154538e-09
1.0524994e-11
2.0050933e-09
1.0360424e-11
1.9949018e-09
1.0191565e-11
1.9848657e-09
1.0036105e-11
1.9749903e-09
9.8754078e-12
1.9652618e-09
9.7284602e-12
1.9556865e-09
9.575304e-12
1.9462502e-09
9.4363308e-12
1.93696e-09
9.2901483e-12
1.9278014e-09
9.1586625e-12
1.9187824e-09
9.0189282e-12
1.9098879e-09
8.8944893e-12
1.9011272e-09
8.7607168e-12
1.8924843e-09
8.6429292e-12
1.8839696e-09
8.5146679e-12
1.8755665e-09
8.4031756e-12
1.8672864e-09
8.2800045e-12
1.859112e-09
8.1744859e-12
1.8510559e-09
8.0560123e-12
1.8430998e-09
7.9561787e-12
1.8352577e-09
7.8420342e-12
1.8275101e-09
7.7476275e-12
1.8198726e-09
7.6374642e-12
1.8123244e-09
7.5482558e-12
1.8048826e-09
7.4417438e-12
1.7975251e-09
7.3575309e-12
1.7902708e-09
7.2543543e-12
1.7830958e-09
7.1749595e-12
1.776021e-09
7.0748185e-12
1.7690209e-09
7.0000895e-12
1.7621182e-09
6.9026956e-12
1.7552857e-09
6.8325005e-12
1.7485481e-09
6.7375718e-12
1.7418763e-09
6.6718021e-12
1.7352972e-09
6.5790666e-12
1.7287796e-09
6.5176344e-12
1.7223528e-09
6.4268234e-12
1.7159831e-09
6.3696634e-12
1.7097026e-09
6.280513e-12
1.703475e-09
6.227588e-12
1.6973352e-09
6.139835e-12
1.6912441e-09
6.0911203e-12
1.6852396e-09
6.0044935e-12
1.6792796e-09
5.9599809e-12
1.6734054e-09
5.8742146e-12
1.6675715e-09
5.8339313e-12
1.6618227e-09
5.7487646e-12
1.6561099e-09
5.7127601e-12
1.650482e-09
5.6279099e-12
1.6448858e-09
5.5962448e-12
1.6393744e-09
5.5114139e-12
1.6338902e-09
5.4841845e-12
1.6284911e-09
5.3990806e-12
1.6231147e-09
5.3764144e-12
1.617824e-09
5.2907285e-12
1.6125512e-09
5.2727718e-12
1.607365e-09
5.1861713e-12
1.6021919e-09
5.173102e-12
1.5971067e-09
5.0852407e-12
1.5920294e-09
5.0772756e-12
1.5870416e-09
4.987778e-12
1.5820564e-09
4.9851752e-12
1.5771628e-09
4.8936445e-12
1.5722661e-09
4.8966808e-12
1.5674634e-09
4.8026871e-12
1.5626517e-09
4.8117264e-12
1.5579369e-09
4.7147741e-12
1.5532067e-09
4.7302068e-12
1.5485769e-09
4.6298343e-12
1.5439248e-09
4.652053e-12
1.5393771e-09
4.547699e-12
1.5347999e-09
4.5772815e-12
1.5303316e-09
4.4682597e-12
1.5258258e-09
4.5057922e-12
1.5214343e-09
4.3914769e-12
1.5169968e-09
4.4375734e-12
1.5126795e-09
4.3172279e-12
1.5083069e-09
4.3726652e-12
1.5040614e-09
4.2454175e-12
1.4997503e-09
4.3111021e-12
1.4955744e-09
4.1759906e-12
1.4913214e-09
4.2529084e-12
1.4872126e-09
4.1088851e-12
1.4830144e-09
4.1982032e-12
1.4789703e-09
4.04402e-12
1.4748232e-09
4.1471132e-12
1.4708419e-09
3.9813673e-12
1.4667421e-09
4.0998094e-12
1.4628212e-09
3.9208741e-12
1.4587646e-09
4.0565347e-12
1.4549021e-09
3.8625223e-12
1.4508845e-09
4.0176057e-12
1.4470782e-09
3.8062945e-12
1.4430947e-09
3.9834827e-12
1.4393426e-09
3.752172e-12
1.4353878e-09
3.9547628e-12
1.4316876e-09
3.7001876e-12
1.4277553e-09
3.9323407e-12
1.4241049e-09
3.6503571e-12
1.4201874e-09
3.9174978e-12
1.4165847e-09
3.6027244e-12
1.4126723e-09
3.9123326e-12
1.4091149e-09
3.5574534e-12
1.4051937e-09
3.9212314e-12
1.4016779e-09
3.5157365e-12
1.3977186e-09
3.9593014e-12
1.3942248e-09
3.4938619e-12
4.4795194e-12
4.1944517e-08
1.0465748e-08
-4.2464609e-08
3.8698256e-08
1.2455825e-08
3.4615603e-08
1.043645e-08
3.0799605e-08
7.3837244e-09
2.7651708e-08
4.9645228e-09
2.5118373e-08
3.5309803e-09
2.3094184e-08
2.6537637e-09
2.1480341e-08
2.0752379e-09
2.0180148e-08
1.676795e-09
1.9107521e-08
1.3959169e-09
1.8199272e-08
1.1901282e-09
1.7414086e-08
1.0320203e-09
1.6725072e-08
9.0623525e-10
1.6113708e-08
8.0398204e-10
1.5566358e-08
7.1965501e-10
1.5072513e-08
6.4928202e-10
1.4623907e-08
5.8985714e-10
1.4213954e-08
5.3911232e-10
1.3837352e-08
4.9532512e-10
1.3489772e-08
4.5720814e-10
1.3167647e-08
4.237645e-10
1.2867994e-08
3.9423089e-10
1.2588304e-08
3.6798808e-10
1.2326441e-08
3.4455072e-10
1.2080581e-08
3.2350894e-10
1.1849147e-08
3.0453881e-10
1.1630777e-08
2.873576e-10
1.1424279e-08
2.7174319e-10
1.1228615e-08
2.5749465e-10
1.1042862e-08
2.4445641e-10
1.0866213e-08
2.3248159e-10
1.0697943e-08
2.214592e-10
1.0537411e-08
2.1127888e-10
1.0384038e-08
2.0186026e-10
1.0237309e-08
1.9311824e-10
1.0096756e-08
1.8499399e-10
9.9619575e-09
1.774203e-10
9.8325302e-09
1.7035395e-10
9.7081284e-09
1.6374062e-10
9.5884326e-09
1.5754858e-10
9.4731558e-09
1.5173297e-10
9.3620302e-09
1.4627074e-10
9.2548151e-09
1.4112406e-10
9.1512841e-09
1.3627651e-10
9.0512334e-09
1.3169555e-10
8.9544702e-09
1.2736995e-10
8.8608208e-09
1.2327114e-10
8.7701195e-09
1.1939203e-10
8.6822175e-09
1.1570706e-10
8.5969714e-09
1.1221247e-10
8.5142529e-09
1.0888499e-10
8.433937e-09
1.0572362e-10
8.3559126e-09
1.0270679e-10
8.2800702e-09
9.9835848e-11
8.206313e-09
9.7090443e-11
8.1345444e-09
9.4473939e-11
8.0646799e-09
9.1966881e-11
7.9966339e-09
8.9574394e-11
7.9303321e-09
8.7277614e-11
7.8656982e-09
8.5083257e-11
7.8026669e-09
8.2972797e-11
7.7411699e-09
8.0954418e-11
7.6811496e-09
7.9009718e-11
7.6225443e-09
7.7148257e-11
7.5653031e-09
7.5351582e-11
7.5093703e-09
7.3630569e-11
7.4547008e-09
7.1966549e-11
7.4012439e-09
7.0371681e-11
7.3489596e-09
6.8826935e-11
7.2978017e-09
6.7345742e-11
7.2477345e-09
6.5908566e-11
7.1987156e-09
6.4530128e-11
7.1507135e-09
6.319025e-11
7.1036891e-09
6.1904968e-11
7.0576143e-09
6.0653339e-11
7.0124529e-09
5.9452752e-11
6.9681801e-09
5.8281367e-11
6.9247621e-09
5.715799e-11
6.882177e-09
5.6059747e-11
6.8403932e-09
5.5006931e-11
6.7993916e-09
5.3975509e-11
6.7591421e-09
5.2987338e-11
6.7196283e-09
5.2017091e-11
6.6808216e-09
5.1088283e-11
6.6427078e-09
5.0174151e-11
6.6052598e-09
4.9299986e-11
6.5684654e-09
4.8437424e-11
6.5322985e-09
4.7613664e-11
6.4967491e-09
4.679858e-11
6.461792e-09
4.6021412e-11
6.427419e-09
4.525011e-11
6.3936056e-09
4.4516099e-11
6.3603453e-09
4.3785229e-11
6.3276145e-09
4.3091279e-11
6.2954082e-09
4.2397799e-11
6.2637032e-09
4.1741113e-11
6.2324964e-09
4.1082251e-11
6.2017646e-09
4.0460293e-11
6.1715063e-09
3.9833522e-11
6.1416987e-09
3.9243993e-11
6.1123418e-09
3.8647003e-11
6.0834127e-09
3.8087818e-11
6.0549131e-09
3.7518483e-11
6.0268199e-09
3.6987746e-11
5.9991365e-09
3.6444112e-11
5.9718393e-09
3.5940101e-11
5.9449336e-09
3.5420367e-11
5.9183953e-09
3.4941521e-11
5.8922312e-09
3.444402e-11
5.8664168e-09
3.3988914e-11
5.8409607e-09
3.35121e-11
5.8158375e-09
3.3079442e-11
5.7910576e-09
3.2621875e-11
5.7665947e-09
3.2210488e-11
5.7424614e-09
3.1770825e-11
5.71863e-09
3.1379647e-11
5.6951151e-09
3.0956627e-11
5.6718879e-09
3.0584695e-11
5.6489652e-09
3.0177133e-11
5.6263166e-09
2.9823575e-11
5.603961e-09
2.9430359e-11
5.5818667e-09
2.9094398e-11
5.5600549e-09
2.8714469e-11
5.538492e-09
2.8395405e-11
5.5172018e-09
2.8027753e-11
5.4961487e-09
2.7724966e-11
5.4753591e-09
2.736863e-11
5.4547952e-09
2.7081573e-11
5.4344864e-09
2.6735628e-11
5.4143922e-09
2.6463829e-11
5.3945454e-09
2.6127379e-11
5.3749025e-09
2.5870441e-11
5.3554997e-09
2.5542619e-11
5.3362907e-09
2.5300201e-11
5.317315e-09
2.4980152e-11
5.298523e-09
2.4751979e-11
5.2799583e-09
2.4438871e-11
5.2615675e-09
2.4224749e-11
5.2433985e-09
2.3917764e-11
5.2253937e-09
2.3717558e-11
5.2076058e-09
2.341586e-11
5.1899725e-09
2.3229492e-11
5.1725517e-09
2.2932245e-11
5.1552761e-09
2.2759723e-11
5.1382091e-09
2.2466101e-11
5.121278e-09
2.2307504e-11
5.1045521e-09
2.2016656e-11
5.0879528e-09
2.1872125e-11
5.0715558e-09
2.1583167e-11
5.0552759e-09
2.1452929e-11
5.0391962e-09
2.116496e-11
5.0232242e-09
2.1049328e-11
5.0074505e-09
2.0761401e-11
4.9917749e-09
2.0660777e-11
4.9762967e-09
2.0371909e-11
4.9609066e-09
2.028678e-11
4.9457133e-09
1.9995923e-11
4.9305982e-09
1.9926918e-11
4.91568e-09
1.9632945e-11
4.9008294e-09
1.9580776e-11
4.8861767e-09
1.9282552e-11
4.8715807e-09
1.9248028e-11
4.8571842e-09
1.8944256e-11
4.842833e-09
1.8928443e-11
4.8286836e-09
1.8617694e-11
4.8145676e-09
1.8621726e-11
4.8006566e-09
1.8302559e-11
4.7867664e-09
1.8327725e-11
4.7730851e-09
1.7998502e-11
4.7594114e-09
1.8046379e-11
4.7459516e-09
1.7705265e-11
4.732485e-09
1.7777656e-11
4.7192384e-09
1.7422645e-11
4.7059697e-09
1.7521582e-11
4.6929281e-09
1.7150479e-11
4.679848e-09
1.7278349e-11
4.6670033e-09
1.6888637e-11
4.6541022e-09
1.7048217e-11
4.6414465e-09
1.6637111e-11
4.6287147e-09
1.6831601e-11
4.6162397e-09
1.6395919e-11
4.6036671e-09
1.6629063e-11
4.5913644e-09
1.616522e-11
4.5789406e-09
1.6441426e-11
4.5668016e-09
1.5945304e-11
4.5545153e-09
1.6269809e-11
4.5425308e-09
1.5736634e-11
4.5303699e-09
1.6115707e-11
4.51853e-09
1.5540006e-11
4.5064811e-09
1.5981275e-11
4.4947748e-09
1.5356667e-11
4.4828228e-09
1.5869508e-11
4.4712368e-09
1.5188733e-11
4.4593641e-09
1.5784993e-11
4.4478811e-09
1.5040446e-11
4.4360658e-09
1.5736529e-11
4.4246578e-09
1.4923719e-11
4.4128559e-09
1.5761236e-11
4.4014311e-09
1.4918603e-11
1.685613e-11
4.4985343e-08
9.3760395e-09
-4.3895634e-08
4.4926063e-08
1.2515105e-08
4.3804091e-08
1.1558421e-08
4.2100654e-08
9.0871614e-09
4.0236471e-08
6.8287058e-09
3.8381063e-08
5.386389e-09
3.6586005e-08
4.4488217e-09
3.4904327e-08
3.7569157e-09
3.3367572e-08
3.2135501e-09
3.1978104e-08
2.7853852e-09
3.0723376e-08
2.4448557e-09
2.9588114e-08
2.1672821e-09
2.8558315e-08
1.9360344e-09
2.7621631e-08
1.7406661e-09
2.6766992e-08
1.5742943e-09
2.5984455e-08
1.431819e-09
2.5265234e-08
1.309078e-09
2.4601692e-08
1.202654e-09
2.3987273e-08
1.1097446e-09
2.3416368e-08
1.0281125e-09
2.2884189e-08
9.559438e-10
2.2386626e-08
8.9179378e-10
2.1920145e-08
8.3446929e-10
2.1481684e-08
7.8301148e-10
2.1068585e-08
7.3660864e-10
2.067852e-08
6.9460378e-10
2.030945e-08
6.5642729e-10
1.9959575e-08
6.2161821e-10
1.9627303e-08
5.8976634e-10
1.9311218e-08
5.605415e-10
1.9010059e-08
5.3364103e-10
1.8722694e-08
5.0882407e-10
1.844811e-08
4.8586218e-10
1.8185394e-08
4.645769e-10
1.793372e-08
4.4479207e-10
1.769234e-08
4.2637379e-10
1.7460577e-08
4.0918357e-10
1.7237811e-08
3.9312008e-10
1.7023479e-08
3.7807234e-10
1.6817064e-08
3.6396317e-10
1.6618095e-08
3.507021e-10
1.6426136e-08
3.3823021e-10
1.6240787e-08
3.2647247e-10
1.606168e-08
3.1538396e-10
1.5888474e-08
3.0490141e-10
1.5720853e-08
2.9499084e-10
1.5558526e-08
2.85598e-10
1.5401221e-08
2.7669754e-10
1.5248686e-08
2.6824221e-10
1.5100685e-08
2.6021357e-10
1.4957e-08
2.525698e-10
1.4817425e-08
2.4529811e-10
1.4681771e-08
2.3836092e-10
1.4549857e-08
2.3175009e-10
1.4421516e-08
2.2543131e-10
1.429659e-08
2.1940036e-10
1.4174931e-08
2.1362549e-10
1.40564e-08
2.0810579e-10
1.3940866e-08
2.0281145e-10
1.3828205e-08
1.9774448e-10
1.3718301e-08
1.928765e-10
1.3611043e-08
1.8821209e-10
1.3506329e-08
1.837239e-10
1.3404059e-08
1.7941881e-10
1.330414e-08
1.7527015e-10
1.3206484e-08
1.7128695e-10
1.3111007e-08
1.6744291e-10
1.301763e-08
1.6374905e-10
1.2926278e-08
1.6017918e-10
1.2836877e-08
1.5674624e-10
1.2749362e-08
1.5342389e-10
1.2663665e-08
1.5022695e-10
1.2579727e-08
1.471287e-10
1.2497486e-08
1.4414582e-10
1.2416888e-08
1.4125102e-10
1.2337878e-08
1.3846284e-10
1.2260406e-08
1.3575322e-10
1.2184421e-08
1.3314259e-10
1.2109879e-08
1.3060192e-10
1.2036733e-08
1.2815359e-10
1.1964941e-08
1.2576741e-10
1.189446e-08
1.2346779e-10
1.1825254e-08
1.212232e-10
1.1757282e-08
1.1906015e-10
1.1690511e-08
1.1694557e-10
1.1624903e-08
1.1490822e-10
1.1560427e-08
1.1291324e-10
1.1497049e-08
1.1099182e-10
1.143474e-08
1.0910709e-10
1.1373469e-08
1.0729279e-10
1.1313209e-08
1.0550985e-10
1.125393e-08
1.0379474e-10
1.119561e-08
1.0210593e-10
1.1138218e-08
1.0048282e-10
1.1081735e-08
9.8881193e-11
1.1026132e-08
9.7343607e-11
1.0971392e-08
9.5822827e-11
1.0917487e-08
9.4364859e-11
1.0864402e-08
9.2919166e-11
1.081211e-08
9.1535459e-11
1.0760597e-08
9.0159586e-11
1.070984e-08
8.8845265e-11
1.0659824e-08
8.7534383e-11
1.0610527e-08
8.6285002e-11
1.0561936e-08
8.5034676e-11
1.051403e-08
8.3846185e-11
1.0466798e-08
8.2652338e-11
1.0420219e-08
8.1521041e-11
1.0374283e-08
8.0379914e-11
1.0328969e-08
7.9302432e-11
1.0284271e-08
7.8210549e-11
1.0240167e-08
7.7183789e-11
1.019665e-08
7.6137928e-11
1.0153702e-08
7.5159065e-11
1.0111316e-08
7.4156232e-11
1.0069473e-08
7.3222688e-11
1.002817e-08
7.2260095e-11
9.9873852e-09
7.1369507e-11
9.9471177e-09
7.044455e-11
9.9073466e-09
6.9594763e-11
9.8680719e-09
6.8705011e-11
9.8292722e-09
6.7894066e-11
9.7909495e-09
6.7037233e-11
9.7530815e-09
6.626334e-11
9.715672e-09
6.5437263e-11
9.6786982e-09
6.4698798e-11
9.6421654e-09
6.3901442e-11
9.60605e-09
6.319694e-11
9.5703593e-09
6.2426371e-11
9.5350686e-09
6.1754511e-11
9.5001871e-09
6.1008885e-11
9.4656891e-09
6.0368494e-11
9.4315856e-09
5.9646051e-11
9.3978498e-09
5.9036073e-11
9.3644948e-09
5.8335116e-11
9.3314921e-09
5.7754628e-11
9.2988575e-09
5.707353e-11
9.2665605e-09
5.6521748e-11
9.2346193e-09
5.5858932e-11
9.2030017e-09
5.5335181e-11
9.1717285e-09
5.4689081e-11
9.1407652e-09
5.4192802e-11
9.1101355e-09
5.3561895e-11
9.0798026e-09
5.3092667e-11
9.0497932e-09
5.2475473e-11
9.0200677e-09
5.2032992e-11
8.9906563e-09
5.142802e-11
8.9615164e-09
5.1012094e-11
8.9326817e-09
5.0417845e-11
8.9041062e-09
5.0028417e-11
8.8758278e-09
4.9443395e-11
8.8477966e-09
4.9080541e-11
8.8200547e-09
4.8503223e-11
8.7925484e-09
4.8167153e-11
8.7653243e-09
4.7595985e-11
8.738324e-09
4.7287048e-11
8.7115995e-09
4.672043e-11
8.6850873e-09
4.643916e-11
8.6588448e-09
4.5875427e-11
8.6328031e-09
4.5622484e-11
8.6070257e-09
4.5059962e-11
8.5814375e-09
4.4836178e-11
8.5561088e-09
4.427302e-11
8.5309577e-09
4.4079519e-11
8.5060616e-09
4.3513791e-11
8.4813315e-09
4.3351804e-11
8.4568525e-09
4.278154e-11
8.4325277e-09
4.2652539e-11
8.4084506e-09
4.2075567e-11
8.3845157e-09
4.1981371e-11
8.3608256e-09
4.1395347e-11
8.3372652e-09
4.1338047e-11
8.3139474e-09
4.0740466e-11
8.2907465e-09
4.0722445e-11
8.2677864e-09
4.0110632e-11
8.24493e-09
4.0134704e-11
8.2223129e-09
3.9505692e-11
8.1997861e-09
3.9575108e-11
8.1774974e-09
3.8925731e-11
8.1552848e-09
3.9044225e-11
8.1333097e-09
3.8370992e-11
8.1113959e-09
3.8542865e-11
8.0897191e-09
3.7842048e-11
8.0680882e-09
3.8072292e-11
8.0466937e-09
3.7339873e-11
8.0253292e-09
3.7634228e-11
8.0041999e-09
3.6865959e-11
7.9830846e-09
3.7231012e-11
7.962202e-09
3.6422676e-11
7.9413173e-09
3.6865961e-11
7.9206602e-09
3.6013739e-11
7.899986e-09
3.654362e-11
7.8795296e-09
3.5645205e-11
7.8590437e-09
3.6270886e-11
7.8387561e-09
3.5327979e-11
7.8184306e-09
3.6062136e-11
7.7982689e-09
3.508539e-11
7.778033e-09
3.5997071e-11
7.7579073e-09
3.5044257e-11
3.7495795e-11
4.6708224e-08
8.4205644e-09
-4.5752749e-08
4.7418981e-08
1.1804349e-08
4.7560519e-08
1.1416883e-08
4.7200912e-08
9.446769e-09
4.6552771e-08
7.4768462e-09
4.5745269e-08
6.1938913e-09
4.4815487e-08
5.3786035e-09
4.3808851e-08
4.7635519e-09
4.2773299e-08
4.2491022e-09
4.1740343e-08
3.8183415e-09
4.0725656e-08
3.4595424e-09
3.973759e-08
3.1553477e-09
3.8782133e-08
2.8914923e-09
3.7863732e-08
2.6590671e-09
3.6985166e-08
2.4528603e-09
3.6147603e-08
2.2693814e-09
3.5350941e-08
2.1057401e-09
3.4594194e-08
1.9594008e-09
3.3875825e-08
1.8281141e-09
3.3193973e-08
1.7099644e-09
3.2546621e-08
1.6032956e-09
3.1931699e-08
1.5067153e-09
3.1347161e-08
1.4190075e-09
3.0791026e-08
1.3391471e-09
3.0261409e-08
1.2662255e-09
2.9756537e-08
1.1994756e-09
2.9274755e-08
1.1382095e-09
2.8814524e-08
1.0818491e-09
2.8374421e-08
1.0298689e-09
2.7953132e-08
9.8183025e-10
2.7549446e-08
9.373275e-10
2.7162245e-08
8.9602534e-10
2.67905e-08
8.576071e-10
2.6433262e-08
8.2181422e-10
2.6089658e-08
7.883964e-10
2.5758879e-08
7.5715258e-10
2.544018e-08
7.2788252e-10
2.5132872e-08
7.0042879e-10
2.4836315e-08
6.7462913e-10
2.4549919e-08
6.5035946e-10
2.4273134e-08
6.274867e-10
2.4005452e-08
6.059126e-10
2.3746397e-08
5.8552671e-10
2.349553e-08
5.6625093e-10
2.3252439e-08
5.4799252e-10
2.3016741e-08
5.3068932e-10
2.2788076e-08
5.1426254e-10
2.2566111e-08
4.9866272e-10
2.2350531e-08
4.8382214e-10
2.2141043e-08
4.697016e-10
2.1937371e-08
4.5624223e-10
2.1739256e-08
4.4341314e-10
2.1546454e-08
4.311626e-10
2.1358738e-08
4.1946658e-10
2.117589e-08
4.0827904e-10
2.0997708e-08
3.9758165e-10
2.0824001e-08
3.8733303e-10
2.0654587e-08
3.7751961e-10
2.0489295e-08
3.6810374e-10
2.0327963e-08
3.5907593e-10
2.0170438e-08
3.5040154e-10
2.0016576e-08
3.4207458e-10
1.9866237e-08
3.3406279e-10
1.9719292e-08
3.2636327e-10
1.9575617e-08
3.1894565e-10
1.9435094e-08
3.1180975e-10
1.929761e-08
3.0492665e-10
1.9163061e-08
2.9829863e-10
1.9031342e-08
2.9189787e-10
1.890236e-08
2.8572888e-10
1.8776019e-08
2.797646e-10
1.8652234e-08
2.7401167e-10
1.8530919e-08
2.6844347e-10
1.8411997e-08
2.6306863e-10
1.8295387e-08
2.5786076e-10
1.8181019e-08
2.5283043e-10
1.8068821e-08
2.4795118e-10
1.7958728e-08
2.432355e-10
1.7850674e-08
2.3865663e-10
1.7744598e-08
2.3422899e-10
1.764044e-08
2.2992531e-10
1.7538146e-08
2.2576194e-10
1.7437659e-08
2.2171088e-10
1.7338928e-08
2.1779049e-10
1.7241902e-08
2.139718e-10
1.7146535e-08
2.1027526e-10
1.7052777e-08
2.0667071e-10
1.6960588e-08
2.031808e-10
1.6869922e-08
1.9977396e-10
1.6780739e-08
1.9647514e-10
1.6692998e-08
1.9325113e-10
1.6606663e-08
1.9012936e-10
1.6521695e-08
1.870747e-10
1.643806e-08
1.8411723e-10
1.6355722e-08
1.8121968e-10
1.627465e-08
1.7841498e-10
1.619481e-08
1.7566338e-10
1.6116174e-08
1.7300093e-10
1.6038708e-08
1.7038513e-10
1.5962388e-08
1.6785536e-10
1.5887181e-08
1.6536605e-10
1.5813066e-08
1.6296023e-10
1.5740012e-08
1.605889e-10
1.5667998e-08
1.5829904e-10
1.5596995e-08
1.5603788e-10
1.5526984e-08
1.5385669e-10
1.5457938e-08
1.516985e-10
1.538984e-08
1.4961931e-10
1.5322662e-08
1.4755747e-10
1.525639e-08
1.4557414e-10
1.5190998e-08
1.4360255e-10
1.5126473e-08
1.4170946e-10
1.5062788e-08
1.3982245e-10
1.4999933e-08
1.3801443e-10
1.4937882e-08
1.3620676e-10
1.4876626e-08
1.3447907e-10
1.481614e-08
1.3274589e-10
1.4756416e-08
1.3109416e-10
1.4697429e-08
1.2943092e-10
1.4639173e-08
1.2785114e-10
1.4581624e-08
1.2625364e-10
1.4524776e-08
1.2474214e-10
1.4468607e-08
1.2320643e-10
1.441311e-08
1.2175981e-10
1.4358265e-08
1.2028218e-10
1.4304067e-08
1.1889734e-10
1.4250494e-08
1.1747433e-10
1.4197543e-08
1.1614843e-10
1.4145192e-08
1.1477677e-10
1.4093439e-08
1.1350719e-10
1.4042265e-08
1.1218379e-10
1.3991665e-08
1.1096817e-10
1.3941621e-08
1.0969013e-10
1.3892131e-08
1.0852629e-10
1.3843175e-08
1.0729082e-10
1.3794753e-08
1.0617681e-10
1.3746845e-08
1.0498127e-10
1.3699451e-08
1.0391533e-10
1.3652553e-08
1.0275722e-10
1.3606151e-08
1.0173778e-10
1.3560225e-08
1.0061464e-10
1.3514777e-08
9.9640277e-11
1.346979e-08
9.8549785e-11
1.3425263e-08
9.7619296e-11
1.3381179e-08
9.6559209e-11
1.3337541e-08
9.5671557e-11
1.3294329e-08
9.4639677e-11
1.3251547e-08
9.3793978e-11
1.3209177e-08
9.2788147e-11
1.3167222e-08
9.1983701e-11
1.3125663e-08
9.1001817e-11
1.3084506e-08
9.02381e-11
1.3043731e-08
8.927808e-11
1.3003343e-08
8.8554738e-11
1.2963325e-08
8.7614516e-11
1.292368e-08
8.6931375e-11
1.2884392e-08
8.6008883e-11
1.2845465e-08
8.5365979e-11
1.2806881e-08
8.4459146e-11
1.2768647e-08
8.3856671e-11
1.2730744e-08
8.2963453e-11
1.2693178e-08
8.2401815e-11
1.2655931e-08
8.1520041e-11
1.2619011e-08
8.0999944e-11
1.2582397e-08
8.0127445e-11
1.2546099e-08
7.9649712e-11
1.2510096e-08
7.8784333e-11
1.2474399e-08
7.8350056e-11
1.2438985e-08
7.7489503e-11
1.2403866e-08
7.7100133e-11
1.2369019e-08
7.6242036e-11
1.2334458e-08
7.5899276e-11
1.2300157e-08
7.5041222e-11
1.2266133e-08
7.4747048e-11
1.2232357e-08
7.3886575e-11
1.2198848e-08
7.3643375e-11
1.2165576e-08
7.2777902e-11
1.2132563e-08
7.258843e-11
1.2099773e-08
7.1715399e-11
1.2067234e-08
7.1582809e-11
1.2034906e-08
7.069961e-11
1.2002821e-08
7.0627467e-11
1.1970931e-08
6.973166e-11
1.193928e-08
6.9724032e-11
1.1907806e-08
6.8813415e-11
1.1876566e-08
6.887479e-11
1.1845484e-08
6.7947689e-11
1.1814632e-08
6.8082946e-11
1.1783916e-08
6.7138793e-11
1.1753429e-08
6.7353155e-11
1.1723049e-08
6.6393267e-11
1.1692901e-08
6.6692136e-11
1.1662825e-08
6.5721019e-11
1.1632984e-08
6.6111206e-11
1.1603175e-08
6.513722e-11
1.1573599e-08
6.5637978e-11
1.1544019e-08
6.4666124e-11
1.1514597e-08
6.5418895e-11
1.1485169e-08
6.4472071e-11
6.7062628e-11
4.8508633e-08
7.680048e-09
-4.7768117e-08
4.9286548e-08
1.1026434e-08
4.9723557e-08
1.0979873e-08
4.9836279e-08
9.334047e-09
4.9749657e-08
7.5634683e-09
4.9544989e-08
6.3985595e-09
4.9231586e-08
5.692006e-09
4.8820567e-08
5.1745715e-09
4.8337892e-08
4.7317776e-09
4.7807169e-08
4.3490639e-09
4.724158e-08
4.0251312e-09
4.6648515e-08
3.7484131e-09
4.6034522e-08
3.5054849e-09
4.5406349e-08
3.2872404e-09
4.4770413e-08
3.0887964e-09
4.4132285e-08
2.9075098e-09
4.3496539e-08
2.7414856e-09
4.2866834e-08
2.5891062e-09
4.2246043e-08
2.4489052e-09
4.1636381e-08
2.3196257e-09
4.1039511e-08
2.2001663e-09
4.0456628e-08
2.0895981e-09
3.9888546e-08
1.9870897e-09
3.9335764e-08
1.8919282e-09
3.8798532e-08
1.8034575e-09
3.82769e-08
1.721108e-09
3.7770762e-08
1.6443478e-09
3.7279896e-08
1.5727151e-09
3.6803991e-08
1.5057741e-09
3.6342673e-08
1.443148e-09
3.5895522e-08
1.3844778e-09
3.5462093e-08
1.3294551e-09
3.5041917e-08
1.2777829e-09
3.4634523e-08
1.2292079e-09
3.4239436e-08
1.1834834e-09
3.3856188e-08
1.1404009e-09
3.3484315e-08
1.0997549e-09
3.3123371e-08
1.0613731e-09
3.2772917e-08
1.0250834e-09
3.2432533e-08
9.9074337e-10
3.2101811e-08
9.5820819e-10
3.1780365e-08
9.2735942e-10
3.1467816e-08
8.9807486e-10
3.1163812e-08
8.7025572e-10
3.0868006e-08
8.4379828e-10
3.0580075e-08
8.1861987e-10
3.0299706e-08
7.9463205e-10
3.0026603e-08
7.7176534e-10
2.9760481e-08
7.4994398e-10
2.9501074e-08
7.2910934e-10
2.924812e-08
7.0919619e-10
2.9001378e-08
6.9015492e-10
2.8760611e-08
6.7192912e-10
2.8525601e-08
6.544766e-10
2.8296132e-08
6.3774837e-10
2.8072005e-08
6.2170842e-10
2.7853024e-08
6.0631403e-10
2.763901e-08
5.9153436e-10
2.7429781e-08
5.77332e-10
2.7225177e-08
5.6368044e-10
2.7025032e-08
5.5054681e-10
2.6829198e-08
5.3790823e-10
2.6637525e-08
5.2573569e-10
2.6449879e-08
5.1400941e-10
2.6266121e-08
5.027037e-10
2.6086129e-08
4.9180139e-10
2.5909776e-08
4.8127967e-10
2.5736951e-08
4.7112357e-10
2.5567536e-08
4.6131277e-10
2.5401431e-08
4.5183422e-10
2.5238526e-08
4.4266971e-10
2.507873e-08
4.3380788e-10
2.4921941e-08
4.2523231e-10
2.4768076e-08
4.1693314e-10
2.4617042e-08
4.088955e-10
2.4468761e-08
4.0111084e-10
2.4323147e-08
3.9356559e-10
2.418013e-08
3.8625242e-10
2.4039628e-08
3.7915884e-10
2.3901578e-08
3.7227862e-10
2.3765903e-08
3.6560017e-10
2.3632547e-08
3.5911831e-10
2.3501436e-08
3.5282214e-10
2.3372519e-08
3.467075e-10
2.3245726e-08
3.4076399e-10
2.3121013e-08
3.3498849e-10
2.2998313e-08
3.293709e-10
2.2877585e-08
3.2390914e-10
2.2758765e-08
3.1859327e-10
2.2641818e-08
3.1342225e-10
2.2526683e-08
3.0838612e-10
2.2413328e-08
3.0348496e-10
2.2301694e-08
2.987086e-10
2.2191753e-08
2.9405833e-10
2.2083449e-08
2.8952355e-10
2.1976757e-08
2.8510687e-10
2.1871623e-08
2.8079708e-10
2.1768026e-08
2.7659821e-10
2.1665913e-08
2.7249823e-10
2.1565265e-08
2.6850274e-10
2.1466033e-08
2.6459868e-10
2.13682e-08
2.6079338e-10
2.1271716e-08
2.5707248e-10
2.117657e-08
2.5344526e-10
2.1082712e-08
2.498958e-10
2.0990133e-08
2.4643555e-10
2.0898785e-08
2.4304674e-10
2.0808661e-08
2.3974325e-10
2.0719713e-08
2.3650515e-10
2.0631938e-08
2.3334903e-10
2.0545288e-08
2.3025245e-10
2.0459763e-08
2.2723504e-10
2.0375314e-08
2.2427148e-10
2.0291943e-08
2.2138479e-10
2.0209604e-08
2.1854639e-10
2.01283e-08
2.1578305e-10
2.0047983e-08
2.1306249e-10
1.9968662e-08
2.1041571e-10
1.9890286e-08
2.0780621e-10
1.9812868e-08
2.0526967e-10
1.9736357e-08
2.0276492e-10
1.9660766e-08
2.0033284e-10
1.9586045e-08
1.9792694e-10
1.9512211e-08
1.9559394e-10
1.9439212e-08
1.9328139e-10
1.9367067e-08
1.9104248e-10
1.9295723e-08
1.8881815e-10
1.9225203e-08
1.8666873e-10
1.9155452e-08
1.845278e-10
1.9086495e-08
1.8246362e-10
1.9018278e-08
1.8040157e-10
1.8950827e-08
1.7841872e-10
1.8884086e-08
1.7643129e-10
1.8818086e-08
1.7452613e-10
1.8752767e-08
1.7260932e-10
1.8688166e-08
1.7077851e-10
1.8624218e-08
1.6892856e-10
1.8560965e-08
1.6716903e-10
1.849834e-08
1.6538238e-10
1.8436386e-08
1.6369132e-10
1.8375036e-08
1.6196455e-10
1.8314337e-08
1.6033937e-10
1.8254218e-08
1.5866928e-10
1.8194729e-08
1.5710763e-10
1.8135797e-08
1.5549119e-10
1.8077478e-08
1.5399097e-10
1.8019692e-08
1.5242526e-10
1.7962502e-08
1.5098454e-10
1.7905823e-08
1.4946676e-10
1.7849723e-08
1.4808386e-10
1.7794113e-08
1.4661134e-10
1.7739067e-08
1.4528476e-10
1.768449e-08
1.4385493e-10
1.7630461e-08
1.4258338e-10
1.7576882e-08
1.4119378e-10
1.7523837e-08
1.3997616e-10
1.7471222e-08
1.3862438e-10
1.7419128e-08
1.3745983e-10
1.7367443e-08
1.3614357e-10
1.7316269e-08
1.3503138e-10
1.7265484e-08
1.3374843e-10
1.7215197e-08
1.3268813e-10
1.7165281e-08
1.3143627e-10
1.7115854e-08
1.3042765e-10
1.7066776e-08
1.2920478e-10
1.7018178e-08
1.2824773e-10
1.6969911e-08
1.2705186e-10
1.6922114e-08
1.2614654e-10
1.6874628e-08
1.2497568e-10
1.6827606e-08
1.2412256e-10
1.6780873e-08
1.229748e-10
1.6734598e-08
1.2217454e-10
1.6688591e-08
1.210481e-10
1.6643036e-08
1.2030156e-10
1.6597728e-08
1.1919483e-10
1.6552868e-08
1.1850319e-10
1.6508231e-08
1.174147e-10
1.646404e-08
1.1677939e-10
1.6420048e-08
1.1570798e-10
1.63765e-08
1.1513069e-10
1.6333124e-08
1.140755e-10
1.6290193e-08
1.1355813e-10
1.6247406e-08
1.1251891e-10
1.6205066e-08
1.1206372e-10
1.6162839e-08
1.1104097e-10
1.6121063e-08
1.1065044e-10
1.6079365e-08
1.0964574e-10
1.6038125e-08
1.0932268e-10
1.5996925e-08
1.083392e-10
1.5956191e-08
1.080872e-10
1.5915454e-08
1.0712997e-10
1.5875192e-08
1.0695464e-10
1.5834883e-08
1.060298e-10
1.5795049e-08
1.0594464e-10
1.5755133e-08
1.050534e-10
1.5715666e-08
1.0510566e-10
1.567611e-08
1.0422128e-10
1.563688e-08
1.0464934e-10
1.5597594e-08
1.0375841e-10
1.061395e-10
5.0434271e-08
7.1052702e-09
-4.9859493e-08
5.1196539e-08
1.0264166e-08
5.1670458e-08
1.0505954e-08
5.188219e-08
9.1223151e-09
5.1956828e-08
7.4888306e-09
5.1969955e-08
6.3854323e-09
5.1925595e-08
5.7363658e-09
5.1817585e-08
5.2825823e-09
5.1655491e-08
4.893871e-09
5.1453949e-08
4.5506058e-09
5.1220409e-08
4.2586712e-09
5.0956579e-08
4.0122434e-09
5.066338e-08
3.7986834e-09
5.0342927e-08
3.6076937e-09
4.9998288e-08
3.4334358e-09
4.9632828e-08
3.2729695e-09
4.9249818e-08
3.1244956e-09
4.8852316e-08
2.9866078e-09
4.8443154e-08
2.858068e-09
4.8024936e-08
2.737843e-09
4.7600037e-08
2.6250656e-09
4.7170595e-08
2.5190399e-09
4.6738512e-08
2.4191734e-09
4.6305463e-08
2.3249771e-09
4.5872905e-08
2.2360148e-09
4.54421e-08
2.1519136e-09
4.5014118e-08
2.07233e-09
4.4589869e-08
1.996964e-09
4.4170108e-08
1.9255344e-09
4.3755465e-08
1.8577919e-09
4.3346442e-08
1.7935003e-09
4.294345e-08
1.7324476e-09
4.25468e-08
1.6744324e-09
4.2156736e-08
1.6192719e-09
4.1773427e-08
1.5667927e-09
4.1396992e-08
1.5168355e-09
4.1027497e-08
1.4692504e-09
4.0664972e-08
1.423898e-09
4.0309407e-08
1.3806485e-09
3.9960771e-08
1.3393791e-09
3.9619002e-08
1.2999777e-09
3.9284025e-08
1.2623356e-09
3.8955744e-08
1.2263561e-09
3.8634057e-08
1.1919427e-09
3.8318843e-08
1.1590122e-09
3.8009985e-08
1.1274786e-09
3.7707346e-08
1.0972706e-09
3.7410801e-08
1.0683108e-09