/*--------------------------------*- C++ -*----------------------------------*\
| =========                 |                                                 |
| \\      /  F ield         | OpenFOAM: The Open Source CFD Toolbox           |
|  \\    /   O peration     | Version:  5.x                                   |
|   \\  /    A nd           | Web:      www.OpenFOAM.org                      |
|    \\/     M anipulation  |                                                 |
\*---------------------------------------------------------------------------*/
FoamFile
{
    version     2.0;
    format      ascii;
    class       volVectorField;
    location    "1";
    object      U;
}
// * * * * * * * * * * * * * * * * * * * * * * * * * * * * * * * * * * * * * //

dimensions      [0 1 -1 0 0 0 0];

internalField   nonuniform List<vector> 
21600
(
(0.40517278 0.012133453 0)
(0.28658232 0.010905355 0)
(0.19462888 0.006422291 0)
(0.14037669 0.0024872428 0)
(0.11280756 0.00059977178 0)
(0.097465747 0.00010205933 0)
(0.088149219 2.641582e-05 0)
(0.081853581 5.7575155e-05 0)
(0.077026401 9.7627956e-05 0)
(0.072979071 0.00011626915 0)
(0.069456127 0.00011547451 0)
(0.066363932 0.00010542061 0)
(0.063643398 9.3703036e-05 0)
(0.06123773 8.3336677e-05 0)
(0.059094289 7.4782845e-05 0)
(0.057168007 6.7731707e-05 0)
(0.055423425 6.1802e-05 0)
(0.053832482 5.6718332e-05 0)
(0.052373627 5.2293312e-05 0)
(0.051029135 4.8407285e-05 0)
(0.049785018 4.4969533e-05 0)
(0.048629116 4.191587e-05 0)
(0.047551734 3.9188297e-05 0)
(0.046544073 3.6744555e-05 0)
(0.045599185 3.4542902e-05 0)
(0.044710494 3.255425e-05 0)
(0.043872926 3.074793e-05 0)
(0.043081427 2.9104327e-05 0)
(0.04233224 2.7600527e-05 0)
(0.041621377 2.6223465e-05 0)
(0.040946022 2.4955496e-05 0)
(0.04030295 2.378806e-05 0)
(0.039690037 2.2707091e-05 0)
(0.039104611 2.1707177e-05 0)
(0.038545074 2.0776701e-05 0)
(0.038009162 1.9912517e-05 0)
(0.037495679 1.9104725e-05 0)
(0.03700267 1.8351854e-05 0)
(0.036529256 1.7645205e-05 0)
(0.036073712 1.6984585e-05 0)
(0.035635418 1.6362156e-05 0)
(0.035212824 1.5778731e-05 0)
(0.034805518 1.5227073e-05 0)
(0.034412083 1.4708809e-05 0)
(0.034032286 1.4217114e-05 0)
(0.033664805 1.375429e-05 0)
(0.033309559 1.3313782e-05 0)
(0.0329653 1.289847e-05 0)
(0.032632077 1.2501956e-05 0)
(0.032308693 1.2127632e-05 0)
(0.031995315 1.1769167e-05 0)
(0.031690779 1.1430419e-05 0)
(0.031395358 1.110505e-05 0)
(0.031107909 1.0797355e-05 0)
(0.0308288 1.0500929e-05 0)
(0.030556897 1.0220479e-05 0)
(0.030292658 9.9494833e-06 0)
(0.030034949 9.6930563e-06 0)
(0.029784313 9.4445064e-06 0)
(0.029539603 9.2093569e-06 0)
(0.029301447 8.9807013e-06 0)
(0.029068679 8.7644779e-06 0)
(0.028842007 8.5535233e-06 0)
(0.028620238 8.3542015e-06 0)
(0.028404162 8.1590534e-06 0)
(0.028192551 7.9748834e-06 0)
(0.027986276 7.7938975e-06 0)
(0.027784069 7.6233593e-06 0)
(0.027586882 7.4551009e-06 0)
(0.027393399 7.2968693e-06 0)
(0.027204658 7.1400795e-06 0)
(0.027019287 6.992994e-06 0)
(0.026838411 6.8465667e-06 0)
(0.026660598 6.709608e-06 0)
(0.026487061 6.5725674e-06 0)
(0.026316302 6.4448393e-06 0)
(0.026149626 6.316319e-06 0)
(0.025985463 6.1970291e-06 0)
(0.025825213 6.0762597e-06 0)
(0.025667228 5.9647033e-06 0)
(0.025513008 5.8509984e-06 0)
(0.025360817 5.7465506e-06 0)
(0.025212264 5.6392926e-06 0)
(0.025065517 5.5413988e-06 0)
(0.024922297 5.4400311e-06 0)
(0.024780672 5.3481976e-06 0)
(0.024642479 5.252219e-06 0)
(0.024505678 5.1660049e-06 0)
(0.024372232 5.074963e-06 0)
(0.024239981 4.9939722e-06 0)
(0.024111022 4.9074559e-06 0)
(0.023983067 4.8313331e-06 0)
(0.023858355 4.748966e-06 0)
(0.023734462 4.6773962e-06 0)
(0.023613775 4.5988329e-06 0)
(0.023493726 4.5315341e-06 0)
(0.023376859 4.456456e-06 0)
(0.02326045 4.3931745e-06 0)
(0.023147213 4.3212887e-06 0)
(0.023034255 4.2617992e-06 0)
(0.022924471 4.1928363e-06 0)
(0.022814787 4.1369377e-06 0)
(0.022708292 4.0706442e-06 0)
(0.022601718 4.0181563e-06 0)
(0.022498358 3.9542951e-06 0)
(0.022394738 3.9050608e-06 0)
(0.022294372 3.8434096e-06 0)
(0.022193562 3.7972913e-06 0)
(0.022096056 3.7376381e-06 0)
(0.021997918 3.6945152e-06 0)
(0.021903148 3.636659e-06 0)
(0.021807554 3.596428e-06 0)
(0.021715405 3.5401773e-06 0)
(0.021622233 3.5027497e-06 0)
(0.021532597 3.4479195e-06 0)
(0.021441733 3.4132234e-06 0)
(0.021354508 3.3596344e-06 0)
(0.021265843 3.3276121e-06 0)
(0.021180935 3.2750869e-06 0)
(0.021094365 3.2456948e-06 0)
(0.021011686 3.1940615e-06 0)
(0.020927113 3.1672714e-06 0)
(0.020846581 3.11636e-06 0)
(0.02076391 3.0921547e-06 0)
(0.020685449 3.0417942e-06 0)
(0.020604591 3.0201715e-06 0)
(0.020528128 2.9701921e-06 0)
(0.020448998 2.9511636e-06 0)
(0.020374466 2.9013898e-06 0)
(0.02029698 2.8849821e-06 0)
(0.020224318 2.8352379e-06 0)
(0.020148397 2.8214995e-06 0)
(0.020077546 2.7716047e-06 0)
(0.020003113 2.7605901e-06 0)
(0.019934021 2.7103488e-06 0)
(0.019861001 2.7021235e-06 0)
(0.019793617 2.6513397e-06 0)
(0.019721938 2.6460012e-06 0)
(0.019656218 2.5944794e-06 0)
(0.019585809 2.5921425e-06 0)
(0.019521711 2.5396608e-06 0)
(0.019452502 2.5404452e-06 0)
(0.019389989 2.4867628e-06 0)
(0.019321911 2.4908208e-06 0)
(0.019260948 2.4356966e-06 0)
(0.019193934 2.44321e-06 0)
(0.019134493 2.3863826e-06 0)
(0.019068475 2.397547e-06 0)
(0.019010528 2.3387286e-06 0)
(0.018945439 2.353767e-06 0)
(0.018888965 2.2926514e-06 0)
(0.018824737 2.3118245e-06 0)
(0.018769716 2.2480719e-06 0)
(0.018706282 2.2716794e-06 0)
(0.0186527 2.2049261e-06 0)
(0.018589989 2.2332832e-06 0)
(0.018537836 2.1631288e-06 0)
(0.018475778 2.1966349e-06 0)
(0.018425049 2.1226085e-06 0)
(0.01836357 2.1616892e-06 0)
(0.018314262 2.0833482e-06 0)
(0.018253287 2.1284301e-06 0)
(0.018205406 2.0452295e-06 0)
(0.018144855 2.0969225e-06 0)
(0.018098409 2.0081896e-06 0)
(0.0180382 2.067111e-06 0)
(0.017993204 1.9722206e-06 0)
(0.017933249 2.0390161e-06 0)
(0.017889725 1.9372296e-06 0)
(0.01782993 2.0127108e-06 0)
(0.017787906 1.9031491e-06 0)
(0.017728172 1.9882547e-06 0)
(0.017687685 1.8699308e-06 0)
(0.017627902 1.9656849e-06 0)
(0.017588997 1.8375197e-06 0)
(0.017529046 1.945131e-06 0)
(0.017491782 1.8058253e-06 0)
(0.017431531 1.926723e-06 0)
(0.017395976 1.7747961e-06 0)
(0.01733528 1.9106189e-06 0)
(0.017301517 1.7443473e-06 0)
(0.017240211 1.8970414e-06 0)
(0.017208343 1.7143847e-06 0)
(0.017146238 1.8862774e-06 0)
(0.01711639 1.6848045e-06 0)
(0.017053268 1.8787387e-06 0)
(0.017025594 1.6554336e-06 0)
(0.016961197 1.8749606e-06 0)
(0.016935888 1.6260888e-06 0)
(0.016869902 1.8757642e-06 0)
(0.016847205 1.5964316e-06 0)
(0.016779238 1.8823654e-06 0)
(0.016759482 1.5658886e-06 0)
(0.016689011 1.8968734e-06 0)
(0.016672667 1.5333756e-06 0)
(0.01659893 1.9240865e-06 0)
(0.016586757 1.4963956e-06 0)
(0.016508385 1.9794098e-06 0)
(0.016501989 1.4624956e-06 0)
(0.016413811 2.5168748e-06 0)
(0.48430074 0.022535635 0)
(0.45685468 0.02451436 0)
(0.41445722 0.019498821 0)
(0.37040863 0.012617597 0)
(0.33188205 0.007313877 0)
(0.29913892 0.0043275974 0)
(0.27267522 0.0027949233 0)
(0.25195274 0.0019946252 0)
(0.2356542 0.0015564213 0)
(0.22245305 0.0012942576 0)
(0.21139312 0.0011136244 0)
(0.20188875 0.00097262578 0)
(0.19358497 0.0008567011 0)
(0.18624566 0.00076068064 0)
(0.17969974 0.00068114745 0)
(0.17381378 0.00061488385 0)
(0.16848382 0.00055902584 0)
(0.16362584 0.00051133623 0)
(0.15917398 0.00047013812 0)
(0.15507339 0.00043421882 0)
(0.15128062 0.00040265108 0)
(0.147758 0.00037473778 0)
(0.14447558 0.00034990573 0)
(0.14140626 0.00032771106 0)
(0.13852871 0.00030776945 0)
(0.13582275 0.00028978289 0)
(0.13327286 0.00027348269 0)
(0.13086354 0.00025866451 0)
(0.12858331 0.0002451354 0)
(0.12641996 0.00023275318 0)
(0.12436489 0.00022137533 0)
(0.12240822 0.00021090154 0)
(0.12054348 0.00020122344 0)
(0.1187625 0.00019226957 0)
(0.11706039 0.00018395511 0)
(0.11543025 0.00017622896 0)
(0.11386843 0.00016902303 0)
(0.11236895 0.00016230107 0)
(0.11092915 0.00015600693 0)
(0.10954374 0.00015011537 0)
(0.10821087 0.000144579 0)
(0.10692576 0.00013938092 0)
(0.10568722 0.00013448023 0)
(0.10449087 0.00012986648 0)
(0.10333604 0.00012550356 0)
(0.10221868 0.00012138616 0)
(0.10113857 0.0001174817 0)
(0.10009186 0.00011378902 0)
(0.099078757 0.00011027814 0)
(0.098095566 0.00010695134 0)
(0.097142838 0.00010378052 0)
(0.096216986 0.00010077086 0)
(0.095318886 9.7895594e-05 0)
(0.094445009 9.5162404e-05 0)
(0.093596529 9.25454e-05 0)
(0.092769938 9.0054487e-05 0)
(0.091966691 8.7664289e-05 0)
(0.091183269 8.5386728e-05 0)
(0.090421394 8.3196634e-05 0)
(0.089677507 8.1107812e-05 0)
(0.088953589 7.9095028e-05 0)
(0.088246018 7.7173879e-05 0)
(0.087557026 7.5318837e-05 0)
(0.086882905 7.3547237e-05 0)
(0.086226137 7.1833054e-05 0)
(0.085582904 7.0195338e-05 0)
(0.084955943 6.860738e-05 0)
(0.084341304 6.7089946e-05 0)
(0.083741979 6.5615468e-05 0)
(0.08315387 6.4206457e-05 0)
(0.082580227 6.2834304e-05 0)
(0.082016783 6.1523332e-05 0)
(0.081467057 6.0243716e-05 0)
(0.080926593 5.9021655e-05 0)
(0.080399185 5.7825948e-05 0)
(0.079880168 5.6684758e-05 0)
(0.079373625 5.5565323e-05 0)
(0.078874662 5.449789e-05 0)
(0.078387662 5.3447953e-05 0)
(0.077907481 5.2447958e-05 0)
(0.077438817 5.1461485e-05 0)
(0.076976255 5.0523309e-05 0)
(0.076524823 4.9594904e-05 0)
(0.076078812 4.8713536e-05 0)
(0.075643599 4.7838361e-05 0)
(0.075213159 4.7009323e-05 0)
(0.074793236 4.6183029e-05 0)
(0.074377463 4.5402308e-05 0)
(0.073971974 4.4620977e-05 0)
(0.073570035 4.388496e-05 0)
(0.073178193 4.3145049e-05 0)
(0.072789316 4.2450488e-05 0)
(0.072410391 4.174878e-05 0)
(0.072033863 4.1092752e-05 0)
(0.071667182 4.0426323e-05 0)
(0.071302338 3.9806192e-05 0)
(0.070947278 3.9172369e-05 0)
(0.070593502 3.8585749e-05 0)
(0.070249483 3.7982094e-05 0)
(0.069906199 3.7426827e-05 0)
(0.069572686 3.6851106e-05 0)
(0.069239357 3.6325243e-05 0)
(0.06891585 3.5775393e-05 0)
(0.068591974 3.5277165e-05 0)
(0.068278008 3.4751282e-05 0)
(0.067963115 3.4279091e-05 0)
(0.067658257 3.3775418e-05 0)
(0.067351905 3.3327823e-05 0)
(0.067055752 3.2844721e-05 0)
(0.066757525 3.2420416e-05 0)
(0.066469701 3.195636e-05 0)
(0.066179208 3.1554168e-05 0)
(0.065899362 3.110773e-05 0)
(0.065616233 3.072659e-05 0)
(0.065344037 3.0296428e-05 0)
(0.065067922 2.9935391e-05 0)
(0.06480307 2.9520238e-05 0)
(0.064533639 2.9178458e-05 0)
(0.064275845 2.877711e-05 0)
(0.064012783 2.8453833e-05 0)
(0.063761779 2.806515e-05 0)
(0.063504787 2.7759721e-05 0)
(0.063260324 2.738261e-05 0)
(0.063009117 2.7094453e-05 0)
(0.062770962 2.6727855e-05 0)
(0.062525266 2.6456476e-05 0)
(0.062293203 2.6099374e-05 0)
(0.062052757 2.5844365e-05 0)
(0.061826583 2.5495762e-05 0)
(0.061591136 2.5256789e-05 0)
(0.061370663 2.4915711e-05 0)
(0.061139973 2.4692535e-05 0)
(0.060925027 2.435802e-05 0)
(0.06069886 2.4150457e-05 0)
(0.060489279 2.3821537e-05 0)
(0.060267407 2.3629474e-05 0)
(0.060063044 2.3305192e-05 0)
(0.059845245 2.3128625e-05 0)
(0.059645964 2.2808036e-05 0)
(0.059432023 2.2647031e-05 0)
(0.059237699 2.2329136e-05 0)
(0.059027404 2.2183819e-05 0)
(0.058837924 2.1867597e-05 0)
(0.058631068 2.1738209e-05 0)
(0.058446331 2.1422638e-05 0)
(0.058242705 2.1309517e-05 0)
(0.058062624 2.0993526e-05 0)
(0.057862023 2.0897085e-05 0)
(0.057686519 2.057954e-05 0)
(0.057488739 2.0500301e-05 0)
(0.057317747 2.0180021e-05 0)
(0.057122581 2.0118631e-05 0)
(0.056956047 1.9794355e-05 0)
(0.056763288 1.9751587e-05 0)
(0.056601171 1.9421982e-05 0)
(0.056410606 1.9398709e-05 0)
(0.056252879 1.9062339e-05 0)
(0.056064292 1.9059663e-05 0)
(0.055910941 1.871493e-05 0)
(0.055724109 1.8734061e-05 0)
(0.055575134 1.8379383e-05 0)
(0.055389827 1.8421632e-05 0)
(0.055245243 1.8055151e-05 0)
(0.05506122 1.8122274e-05 0)
(0.054921061 1.7741863e-05 0)
(0.05473807 1.7835693e-05 0)
(0.054602386 1.7439251e-05 0)
(0.054420158 1.7561814e-05 0)
(0.054289021 1.7146913e-05 0)
(0.054107272 1.7300691e-05 0)
(0.053980776 1.6864554e-05 0)
(0.0537992 1.70524e-05 0)
(0.053677463 1.6591947e-05 0)
(0.053495728 1.6817035e-05 0)
(0.053378899 1.6328884e-05 0)
(0.053196643 1.659495e-05 0)
(0.053084902 1.607515e-05 0)
(0.052901727 1.6386561e-05 0)
(0.052795296 1.5830669e-05 0)
(0.052610755 1.6192457e-05 0)
(0.052509901 1.5595346e-05 0)
(0.052323496 1.6013441e-05 0)
(0.052228543 1.5369191e-05 0)
(0.052039701 1.5850628e-05 0)
(0.051951043 1.5152308e-05 0)
(0.051759105 1.5705556e-05 0)
(0.051677226 1.4944859e-05 0)
(0.051481412 1.5580267e-05 0)
(0.051406915 1.4747258e-05 0)
(0.051206284 1.5477764e-05 0)
(0.051139939 1.4560105e-05 0)
(0.050933311 1.5402331e-05 0)
(0.05087614 1.4384443e-05 0)
(0.050661967 1.5360849e-05 0)
(0.050615409 1.422269e-05 0)
(0.050391472 1.5366984e-05 0)
(0.050357784 1.4085511e-05 0)
(0.050120332 1.5468817e-05 0)
(0.050103778 1.4070192e-05 0)
(0.049843799 1.7154566e-05 0)
(0.48500575 0.020562068 0)
(0.48876345 0.026123205 0)
(0.48430343 0.023583136 0)
(0.47044141 0.017965098 0)
(0.45157471 0.012980257 0)
(0.43042402 0.0097478408 0)
(0.40942179 0.0076798381 0)
(0.38989881 0.0062019348 0)
(0.37223899 0.0050889526 0)
(0.35634356 0.0042539947 0)
(0.34199538 0.0036250961 0)
(0.32900567 0.0031400452 0)
(0.31722433 0.0027546888 0)
(0.30651788 0.0024416407 0)
(0.29676477 0.0021836698 0)
(0.28785011 0.0019687077 0)
(0.27967275 0.0017875653 0)
(0.27214159 0.00163322 0)
(0.26518063 0.0015003066 0)
(0.25872233 0.0013847942 0)
(0.25271178 0.001283571 0)
(0.24709917 0.0011942549 0)
(0.24184467 0.0011149329 0)
(0.23691084 0.001044106 0)
(0.23226836 0.00098052493 0)
(0.22788838 0.00092319922 0)
(0.22374903 0.00087127588 0)
(0.21982756 0.00082407837 0)
(0.21610749 0.00078100405 0)
(0.21257044 0.00074157884 0)
(0.20920394 0.00070536419 0)
(0.20599283 0.00067202089 0)
(0.20292766 0.00064122088 0)
(0.19999567 0.00061271725 0)
(0.19718973 0.00058625829 0)
(0.19449887 0.00056166187 0)
(0.1919178 0.00053873034 0)
(0.18943692 0.00051732842 0)
(0.18705242 0.00049729752 0)
(0.1847557 0.00047853679 0)
(0.18254417 0.00046091634 0)
(0.18041001 0.00044436121 0)
(0.17835163 0.00042876289 0)
(0.17636181 0.00041406619 0)
(0.17443979 0.0004001787 0)
(0.1725788 0.00038706064 0)
(0.17077883 0.00037463183 0)
(0.16903341 0.00036286467 0)
(0.16734317 0.00035168831 0)
(0.16570187 0.00034108496 0)
(0.16411073 0.00033099088 0)
(0.16256363 0.00032139635 0)
(0.16106234 0.00031224306 0)
(0.15960078 0.000303528 0)
(0.15818125 0.00029519695 0)
(0.15679766 0.00028725262 0)
(0.15545278 0.00027964382 0)
(0.15414049 0.0002723782 0)
(0.15286399 0.00026540676 0)
(0.15161708 0.00025874155 0)
(0.15040341 0.00025233501 0)
(0.14921664 0.00024620316 0)
(0.14806085 0.0002402993 0)
(0.14692954 0.00023464313 0)
(0.14582722 0.00022918828 0)
(0.14474718 0.00022395791 0)
(0.14369437 0.00021890555 0)
(0.14266184 0.00021405766 0)
(0.14165498 0.00020936727 0)
(0.14066657 0.00020486408 0)
(0.13970245 0.00020050022 0)
(0.13875509 0.00019630864 0)
(0.13783082 0.0001922402 0)
(0.13692174 0.00018833113 0)
(0.13603467 0.00018453071 0)
(0.13516134 0.00018087849 0)
(0.13430908 0.00017732183 0)
(0.13346922 0.00017390377 0)
(0.13264959 0.00017056937 0)
(0.13184107 0.00016736527 0)
(0.13105208 0.00016423398 0)
(0.13027299 0.00016122591 0)
(0.1295128 0.00015828062 0)
(0.12876138 0.00015545253 0)
(0.12802833 0.00015267792 0)
(0.12730294 0.00015001547 0)
(0.12659548 0.00014739778 0)
(0.12589463 0.00014488809 0)
(0.12521134 0.00014241493 0)
(0.12453365 0.00014004641 0)
(0.12387323 0.00013770659 0)
(0.12321741 0.00013546879 0)
(0.12257865 0.00013325217 0)
(0.12194352 0.00013113567 0)
(0.12132529 0.00012903305 0)
(0.12070974 0.00012702932 0)
(0.12011101 0.00012503233 0)
(0.11951402 0.00012313364 0)
(0.11893383 0.00012123464 0)
(0.11835443 0.00011943397 0)
(0.11779189 0.00011762599 0)
(0.11722919 0.00011591698 0)
(0.11668347 0.0001141936 0)
(0.11613663 0.00011257044 0)
(0.11560695 0.00011092578 0)
(0.11507518 0.0001093832 0)
(0.11456083 0.00010781184 0)
(0.1140434 0.00010634504 0)
(0.11354369 0.00010484197 0)
(0.1130399 0.00010344657 0)
(0.11255422 0.00010200716 0)
(0.11206342 0.00010067917 0)
(0.11159118 9.9299104e-05 0)
(0.11111275 9.8034887e-05 0)
(0.1106534 9.6710158e-05 0)
(0.11018675 9.5506409e-05 0)
(0.10973978 9.4233268e-05 0)
(0.10928436 9.3086977e-05 0)
(0.1088493 9.1861908e-05 0)
(0.10840458 9.0770344e-05 0)
(0.10798098 8.9590057e-05 0)
(0.10754646 8.8550758e-05 0)
(0.1071339 8.741214e-05 0)
(0.1067091 8.6422874e-05 0)
(0.1063072 8.5322962e-05 0)
(0.10589166 8.4381731e-05 0)
(0.10550005 8.3317724e-05 0)
(0.10509333 8.2422746e-05 0)
(0.10471169 8.1391963e-05 0)
(0.10431337 8.054166e-05 0)
(0.10394138 7.9541522e-05 0)
(0.10355104 7.8734532e-05 0)
(0.10318841 7.7762556e-05 0)
(0.10280567 7.6997681e-05 0)
(0.10245213 7.6051448e-05 0)
(0.1020766 7.5327678e-05 0)
(0.10173191 7.4404848e-05 0)
(0.10136322 7.3721386e-05 0)
(0.10102715 7.2819666e-05 0)
(0.10066493 7.2175878e-05 0)
(0.10033729 7.1292962e-05 0)
(0.099981176 7.068838e-05 0)
(0.099661769 6.9821985e-05 0)
(0.099311417 6.9256364e-05 0)
(0.099000082 6.8404248e-05 0)
(0.098655139 6.7877528e-05 0)
(0.098351733 6.7037404e-05 0)
(0.098011849 6.6549693e-05 0)
(0.097716247 6.571922e-05 0)
(0.097381075 6.5270849e-05 0)
(0.097093174 6.4447655e-05 0)
(0.096762363 6.4039176e-05 0)
(0.09648208 6.3220802e-05 0)
(0.096155275 6.2852992e-05 0)
(0.095882549 6.20369e-05 0)
(0.095559389 6.1710761e-05 0)
(0.095294182 6.0894284e-05 0)
(0.094974298 6.0611154e-05 0)
(0.094716596 5.9791467e-05 0)
(0.094399608 5.9552894e-05 0)
(0.094149421 5.872713e-05 0)
(0.093834935 5.8534948e-05 0)
(0.0935923 5.7699889e-05 0)
(0.093279904 5.7556488e-05 0)
(0.093044889 5.6708672e-05 0)
(0.09273415 5.661663e-05 0)
(0.092506854 5.5752524e-05 0)
(0.092197316 5.571484e-05 0)
(0.091977873 5.4830477e-05 0)
(0.091669047 5.4850801e-05 0)
(0.09145763 5.3941809e-05 0)
(0.091148993 5.4024323e-05 0)
(0.09094582 5.3085954e-05 0)
(0.090636803 5.3235392e-05 0)
(0.090442143 5.2262486e-05 0)
(0.090132128 5.2484417e-05 0)
(0.089946307 5.1471141e-05 0)
(0.089634611 5.1772015e-05 0)
(0.089458022 5.0711983e-05 0)
(0.089143888 5.1099231e-05 0)
(0.088977007 4.9985242e-05 0)
(0.08865958 5.04675e-05 0)
(0.088502979 4.9291581e-05 0)
(0.088181292 4.9878968e-05 0)
(0.088035662 4.8632152e-05 0)
(0.087708595 4.9336534e-05 0)
(0.087574783 4.8008744e-05 0)
(0.087241023 4.8844098e-05 0)
(0.087120072 4.7424285e-05 0)
(0.086778042 4.8407208e-05 0)
(0.086671271 4.6883417e-05 0)
(0.086319022 4.8033435e-05 0)
(0.086228148 4.6394055e-05 0)
(0.085863163 4.7733897e-05 0)
(0.085790533 4.5972284e-05 0)
(0.085409348 4.7528775e-05 0)
(0.085358409 4.5662767e-05 0)
(0.084955751 4.7526211e-05 0)
(0.084931778 4.5672201e-05 0)
(0.084499169 5.0274228e-05 0)
(0.48431472 0.017835462 0)
(0.49042473 0.024335422 0)
(0.497457 0.023345436 0)
(0.49888307 0.019096467 0)
(0.49460799 0.014929092 0)
(0.48638434 0.012195154 0)
(0.4762524 0.010413786 0)
(0.46546331 0.0090499535 0)
(0.45455144 0.0079133311 0)
(0.44369214 0.0069716621 0)
(0.43296543 0.0061984205 0)
(0.42245183 0.0055554784 0)
(0.41223646 0.0050092506 0)
(0.40238502 0.0045381141 0)
(0.39294265 0.0041290771 0)
(0.38392852 0.0037730145 0)
(0.37534882 0.0034621978 0)
(0.36719453 0.0031898653 0)
(0.35945359 0.0029501564 0)
(0.35210542 0.0027381891 0)
(0.34513153 0.002549863 0)
(0.33850793 0.0023818089 0)
(0.33221525 0.0022311787 0)
(0.32622976 0.0020956284 0)
(0.32053371 0.0019731466 0)
(0.3151052 0.0018620799 0)
(0.30992896 0.0017609883 0)
(0.30498538 0.001668691 0)
(0.30026187 0.0015841389 0)
(0.29574104 0.0015064759 0)
(0.29141277 0.001434923 0)
(0.28726162 0.0013688504 0)
(0.28327966 0.0013076682 0)
(0.27945312 0.0012509064 0)
(0.27577595 0.0011981101 0)
(0.2722357 0.0011489237 0)
(0.26882799 0.0011029899 0)
(0.26554142 0.0010600374 0)
(0.26237302 0.0010197804 0)
(0.25931224 0.0009820104 0)
(0.25635732 0.00094649516 0)
(0.25349837 0.00091307355 0)
(0.2507347 0.000881554 0)
(0.24805692 0.0008518117 0)
(0.24546529 0.00082368611 0)
(0.24295077 0.00079708075 0)
(0.24051449 0.00077185903 0)
(0.23814765 0.00074794682 0)
(0.23585216 0.00072522624 0)
(0.23361937 0.00070364099 0)
(0.23145192 0.00068308781 0)
(0.2293412 0.0006635249 0)
(0.22729057 0.00064486054 0)
(0.22529138 0.00062706481 0)
(0.22334763 0.00061005505 0)
(0.22145063 0.00059381128 0)
(0.21960499 0.00057825798 0)
(0.21780187 0.00056338354 0)
(0.21604651 0.00054911802 0)
(0.21432986 0.00053545702 0)
(0.2126578 0.00052233491 0)
(0.21102101 0.00050975358 0)
(0.20942598 0.00049765063 0)
(0.2078631 0.00048603358 0)
(0.20633948 0.0004748424 0)
(0.20484515 0.00046408966 0)
(0.20338786 0.00045371695 0)
(0.20195725 0.00044374149 0)
(0.20056172 0.00043410587 0)
(0.19919044 0.00042483167 0)
(0.19785251 0.00041586183 0)
(0.1965366 0.00040722217 0)
(0.19525249 0.00039885545 0)
(0.19398832 0.00039079157 0)
(0.19275459 0.00038297265 0)
(0.19153886 0.00037543266 0)
(0.19035239 0.00036811258 0)
(0.18918207 0.00036105046 0)
(0.18803997 0.00035418571 0)
(0.18691231 0.00034756055 0)
(0.18581195 0.00034111237 0)
(0.18472439 0.00033488768 0)
(0.18366336 0.00032882143 0)
(0.18261355 0.00032296458 0)
(0.18158964 0.00031724919 0)
(0.18057542 0.00031173094 0)
(0.17958656 0.00030633851 0)
(0.17860594 0.00030113257 0)
(0.17765025 0.00029603795 0)
(0.17670137 0.00029112064 0)
(0.1757771 0.00028630112 0)
(0.17485825 0.00028165104 0)
(0.17396378 0.00027708605 0)
(0.17307335 0.00027268388 0)
(0.17220718 0.00026835475 0)
(0.17134369 0.00026418295 0)
(0.17050443 0.0002600727 0)
(0.16966649 0.00025611535 0)
(0.16885284 0.00025220849 0)
(0.16803916 0.00024845114 0)
(0.16724992 0.00024473353 0)
(0.16645928 0.00024116298 0)
(0.16569332 0.00023762166 0)
(0.16492458 0.00023422589 0)
(0.16418086 0.00023084896 0)
(0.16343296 0.00022761698 0)
(0.16271051 0.00022439352 0)
(0.16198243 0.00022131532 0)
(0.16128033 0.00021823524 0)
(0.16057114 0.00021530163 0)
(0.15988854 0.00021235565 0)
(0.15919733 0.00020955821 0)
(0.15853345 0.00020673769 0)
(0.15785937 0.00020406873 0)
(0.15721345 0.00020136569 0)
(0.15655571 0.00019881815 0)
(0.15592707 0.00019622516 0)
(0.1552849 0.00019379257 0)
(0.15467288 0.00019130269 0)
(0.15404556 0.00018897914 0)
(0.15344956 0.00018658592 0)
(0.15283639 0.00018436599 0)
(0.15225585 0.00018206338 0)
(0.15165616 0.00017994211 0)
(0.15109056 0.00017772439 0)
(0.15050373 0.00017569727 0)
(0.14995256 0.00017355909 0)
(0.14937797 0.000171622 0)
(0.14884079 0.00016955828 0)
(0.14827786 0.0001677075 0)
(0.14775424 0.00016571343 0)
(0.1472024 0.0001639456 0)
(0.14669196 0.00016201661 0)
(0.14615065 0.00016032868 0)
(0.14565302 0.00015846038 0)
(0.14512172 0.00015684965 0)
(0.14463656 0.00015503788 0)
(0.14411474 0.00015350198 0)
(0.14364177 0.00015174269 0)
(0.14312891 0.00015027954 0)
(0.14266785 0.00014856879 0)
(0.14216345 0.00014717659 0)
(0.14171405 0.00014551056 0)
(0.14121762 0.00014418784 0)
(0.14077967 0.00014256285 0)
(0.14029071 0.00014130845 0)
(0.13986402 0.00013972081 0)
(0.13938204 0.00013853383 0)
(0.13896644 0.0001369799 0)
(0.13849095 0.00013585975 0)
(0.13808633 0.00013433592 0)
(0.13761682 0.00013328233 0)
(0.13722307 0.00013178496 0)
(0.13675904 0.00013079798 0)
(0.13637609 0.00012932342 0)
(0.13591703 0.0001284034 0)
(0.13554484 0.00012694791 0)
(0.13509023 0.00012609564 0)
(0.13472881 0.00012465542 0)
(0.13427809 0.00012387196 0)
(0.13392747 0.00012244318 0)
(0.13348009 0.00012172999 0)
(0.13314033 0.00012030852 0)
(0.1326957 0.00011966767 0)
(0.13236693 0.00011824927 0)
(0.13192442 0.00011768307 0)
(0.1316068 0.00011626344 0)
(0.13116577 0.00011577475 0)
(0.13085951 0.0001143492 0)
(0.13041925 0.0001139416 0)
(0.13012462 0.00011250519 0)
(0.12968438 0.00011218282 0)
(0.12940172 0.00011073034 0)
(0.12896069 0.00011049793 0)
(0.1286904 0.00010902392 0)
(0.12824769 0.0001088871 0)
(0.12799027 0.00010738563 0)
(0.12754491 0.00010735088 0)
(0.12730093 0.00010581576 0)
(0.12685184 0.0001058905 0)
(0.12662202 0.00010431513 0)
(0.12616798 0.00010450783 0)
(0.12595314 0.00010288544 0)
(0.12549279 0.00010320583 0)
(0.12529395 0.00010152955 0)
(0.12482572 0.00010198856 0)
(0.12464407 0.00010025179 0)
(0.12416613 0.00010086159 0)
(0.12400315 9.9058959e-05 0)
(0.12351336 9.983275e-05 0)
(0.12337086 9.7961706e-05 0)
(0.12286658 9.8912713e-05 0)
(0.12274687 9.6977368e-05 0)
(0.12222485 9.811757e-05 0)
(0.12213089 9.6136471e-05 0)
(0.12158692 9.7484129e-05 0)
(0.12152261 9.5496306e-05 0)
(0.12095118 9.7248822e-05 0)
(0.12092112 9.5293416e-05 0)
(0.12031603 0.0001005236 0)
(0.48571886 0.016050743 0)
(0.49005557 0.022583257 0)
(0.49782044 0.022343701 0)
(0.5033633 0.018866535 0)
(0.50487797 0.015207023 0)
(0.50313269 0.012810156 0)
(0.49964928 0.011328552 0)
(0.49538667 0.010222719 0)
(0.49067859 0.0092716079 0)
(0.48557161 0.0084493734 0)
(0.48007416 0.0077528631 0)
(0.47423102 0.0071571051 0)
(0.46812221 0.00663362 0)
(0.46182862 0.0061638654 0)
(0.45542761 0.005738559 0)
(0.44897882 0.0053527866 0)
(0.44253565 0.0050026891 0)
(0.43613596 0.0046846413 0)
(0.42981516 0.004395195 0)
(0.42359552 0.0041313101 0)
(0.41749957 0.0038902772 0)
(0.41153822 0.0036697604 0)
(0.40572486 0.0034676518 0)
(0.40006241 0.0032821186 0)
(0.39455819 0.0031114813 0)
(0.38920979 0.0029542852 0)
(0.38402075 0.00280919 0)
(0.37898529 0.0026750439 0)
(0.37410482 0.0025507774 0)
(0.36937152 0.002435479 0)
(0.36478579 0.0023282943 0)
(0.36033863 0.002228502 0)
(0.35603012 0.0021354171 0)
(0.35185064 0.0020484677 0)
(0.34780041 0.0019671016 0)
(0.34386947 0.0018908644 0)
(0.34005846 0.0018193076 0)
(0.33635726 0.0017520679 0)
(0.33276707 0.0016887782 0)
(0.32927771 0.001629147 0)
(0.32589102 0.0015728715 0)
(0.32259678 0.0015197168 0)
(0.31939751 0.0014694309 0)
(0.31628297 0.001421824 0)
(0.31325636 0.0013766842 0)
(0.31030736 0.0013338577 0)
(0.30743992 0.0012931648 0)
(0.30464359 0.0012544807 0)
(0.30192303 0.0012176516 0)
(0.29926763 0.001182576 0)
(0.29668278 0.0011491211 0)
(0.29415767 0.0011172043 0)
(0.2916984 0.0010867101 0)
(0.28929391 0.0010575715 0)
(0.28695102 0.0010296869 0)
(0.28465835 0.0010030022 0)
(0.28242349 0.00097742736 0)
(0.28023467 0.00095291912 0)
(0.27810023 0.00092939685 0)
(0.27600801 0.00090682641 0)
(0.27396708 0.00088513493 0)
(0.27196482 0.00086429603 0)
(0.2700111 0.00084424323 0)
(0.26809278 0.00082495687 0)
(0.26622053 0.00080637569 0)
(0.26438063 0.00078848585 0)
(0.26258459 0.00077123038 0)
(0.26081806 0.00075460057 0)
(0.25909342 0.00073854289 0)
(0.25739565 0.00072305326 0)
(0.25573801 0.00070808081 0)
(0.25410473 0.0006936257 0)
(0.25251004 0.00067963911 0)
(0.25093737 0.0006661251 0)
(0.24940191 0.00065303635 0)
(0.24788624 0.00064038059 0)
(0.24640659 0.00062811145 0)
(0.24494459 0.00061624024 0)
(0.2435176 0.00060472102 0)
(0.24210622 0.00059356857 0)
(0.24072896 0.00058273697 0)
(0.23936536 0.00057224443 0)
(0.23803513 0.00056204461 0)
(0.23671667 0.00055215921 0)
(0.23543099 0.00054254099 0)
(0.23415524 0.00053321528 0)
(0.23291178 0.00052413348 0)
(0.23167645 0.00051532468 0)
(0.23047308 0.00050673849 0)
(0.22927606 0.00049840795 0)
(0.22811077 0.00049028045 0)
(0.22695008 0.0004823932 0)
(0.22582102 0.00047469088 0)
(0.22469482 0.0004672152 0)
(0.22360025 0.00045990762 0)
(0.22250682 0.00045281469 0)
(0.22144514 0.00044587411 0)
(0.22038284 0.00043913769 0)
(0.21935254 0.00043253881 0)
(0.21831988 0.00042613496 0)
(0.21731956 0.00041985465 0)
(0.21631509 0.00041376153 0)
(0.21534343 0.00040777856 0)
(0.21436582 0.00040197619 0)
(0.2134216 0.00039627109 0)
(0.21246957 0.00039074115 0)
(0.21155165 0.00038529603 0)
(0.21062401 0.00038002175 0)
(0.20973131 0.00037482012 0)
(0.20882692 0.0003697861 0)
(0.20795844 0.00036481274 0)
(0.20707623 0.00036000479 0)
(0.20623103 0.00035524563 0)
(0.20536998 0.00035065073 0)
(0.20454718 0.00034609273 0)
(0.20370632 0.0003416989 0)
(0.20290509 0.00033732996 0)
(0.2020835 0.00033312615 0)
(0.20130308 0.00032893502 0)
(0.20049987 0.00032491104 0)
(0.19973954 0.00032088727 0)
(0.19895386 0.00031703378 0)
(0.19821295 0.0003131676 0)
(0.197444 0.00030947595 0)
(0.19672188 0.0003057582 0)
(0.19596888 0.00030222043 0)
(0.19526496 0.00029864257 0)
(0.19452716 0.00029525135 0)
(0.19384091 0.00029180534 0)
(0.19311757 0.00028855396 0)
(0.19244849 0.00028523223 0)
(0.19173892 0.00028211451 0)
(0.19108653 0.00027890994 0)
(0.19039004 0.00027592021 0)
(0.18975394 0.00027282603 0)
(0.18906986 0.00026995911 0)
(0.18844964 0.00026696897 0)
(0.18777731 0.00026422018 0)
(0.18717263 0.00026132799 0)
(0.18651142 0.00025869307 0)
(0.18592195 0.00025589299 0)
(0.18527121 0.00025336806 0)
(0.18469668 0.00025065454 0)
(0.18405579 0.00024823621 0)
(0.18349595 0.00024560398 0)
(0.18286427 0.00024328923 0)
(0.18231891 0.00024073314 0)
(0.18169583 0.00023851932 0)
(0.18116477 0.00023603439 0)
(0.18054965 0.00023391925 0)
(0.18003276 0.00023150066 0)
(0.17942496 0.00022948236 0)
(0.17892215 0.00022712541 0)
(0.17832102 0.00022520247 0)
(0.17783222 0.00022290253 0)
(0.1772371 0.00022107386 0)
(0.17676229 0.00021882641 0)
(0.17617251 0.00021709135 0)
(0.17571173 0.0002148919 0)
(0.17512657 0.00021325014 0)
(0.1746799 0.00021109435 0)
(0.17409863 0.00020954603 0)
(0.17366619 0.00020742935 0)
(0.17308805 0.0002059752 0)
(0.17267003 0.00020389322 0)
(0.17209421 0.00020253419 0)
(0.17169084 0.0002004826 0)
(0.17111649 0.00019922018 0)
(0.1707281 0.00019719451 0)
(0.1701543 0.00019603091 0)
(0.16978126 0.00019402666 0)
(0.16920705 0.00019296453 0)
(0.16884982 0.0001909773 0)
(0.16827413 0.00019001977 0)
(0.16793328 0.00018804523 0)
(0.16735497 0.00018719619 0)
(0.16703115 0.00018523004 0)
(0.16644897 0.00018449399 0)
(0.16614297 0.00018253225 0)
(0.16555552 0.00018191434 0)
(0.16526827 0.00017995332 0)
(0.164674 0.00017945928 0)
(0.1644066 0.00017749615 0)
(0.16380378 0.00017713245 0)
(0.1635575 0.00017516552 0)
(0.16294417 0.00017493902 0)
(0.16272055 0.00017296859 0)
(0.16209445 0.00017288638 0)
(0.1618953 0.00017091625 0)
(0.16125383 0.00017098537 0)
(0.16108132 0.00016902482 0)
(0.16042141 0.00016925203 0)
(0.16027815 0.00016731828 0)
(0.15959618 0.00016771503 0)
(0.15948531 0.00016582992 0)
(0.15877697 0.00016645136 0)
(0.1587021 0.00016459983 0)
(0.15796253 0.00016584811 0)
(0.15792703 0.00016393733 0)
(0.15715193 0.00016905672 0)
(0.48712426 0.014785548 0)
(0.49045741 0.021077023 0)
(0.49712104 0.021400249 0)
(0.5029435 0.018455558 0)