/*--------------------------------*- C++ -*----------------------------------*\
| =========                 |                                                 |
| \\      /  F ield         | OpenFOAM: The Open Source CFD Toolbox           |
|  \\    /   O peration     | Version:  5.x                                   |
|   \\  /    A nd           | Web:      www.OpenFOAM.org                      |
|    \\/     M anipulation  |                                                 |
\*---------------------------------------------------------------------------*/
FoamFile
{
    version     2.0;
    format      ascii;
    class       volScalarField;
    location    "0.2";
    object      p;
}
// * * * * * * * * * * * * * * * * * * * * * * * * * * * * * * * * * * * * * //

dimensions      [0 2 -2 0 0 0 0];

internalField   nonuniform List<scalar> 
2475
(
0.0360225
0.0315475
0.0252069
0.01934
0.0135883
0.00751209
0.00167053
-0.00240619
-0.00375973
-0.00302571
-0.00155477
-0.00023499
0.000625429
0.00105672
0.00120641
0.00120951
0.00115544
0.00108979
0.0010299
0.000975303
0.000920762
0.000854953
0.000784511
0.000708277
0.000628779
0.000546045
0.000464089
0.000375515
0.000292082
0.000212653
0.00013323
7.03258e-05
2.42934e-06
-1.60105e-05
-7.06717e-05
0.0325655
0.0301224
0.0247589
0.0190857
0.0134582
0.00760923
0.00199148
-0.00202046
-0.00347394
-0.00284993
-0.00144263
-0.000158907
0.000678376
0.00109559
0.00123676
0.00123448
0.00117652
0.0011079
0.00104552
0.000989009
0.000932843
0.000865739
0.000794079
0.000716935
0.000636476
0.000553062
0.000470336
0.000381266
0.000297151
0.000217421
0.000137379
7.43208e-05
5.8263e-06
-1.26026e-05
-6.77656e-05
0.0298867
0.028768
0.0243967
0.0189653
0.0134385
0.00786165
0.00260529
-0.00127673
-0.00292196
-0.00255792
-0.00130115
-8.65344e-05
0.000725619
0.00113459
0.00127193
0.00126631
0.00120474
0.00113232
0.00106622
0.0010063
0.000947282
0.000877911
0.000804483
0.000725989
0.000644356
0.000560034
0.000476464
0.000386754
0.000301962
0.000221832
0.00014121
7.79103e-05
8.88797e-06
-9.79446e-06
-6.53948e-05
0.0277678
0.0273718
0.0239144
0.0188639
0.0134924
0.00818846
0.00329375
-0.000418367
-0.0022196
-0.00215156
-0.00110171
2.35053e-05
0.00080581
0.00120318
0.00133151
0.00131697
0.00124729
0.00116794
0.001096
0.00103095
0.000967763
0.000895053
0.000819115
0.000738604
0.000655329
0.000569593
0.000484794
0.000394018
0.00030827
0.000227426
0.000146051
8.22353e-05
1.26265e-05
-6.92386e-06
-6.2623e-05
0.0259424
0.0259349
0.023261
0.0187148
0.0135868
0.00854523
0.00396684
0.000426706
-0.00148265
-0.00169205
-0.000868117
0.000152763
0.000903629
0.00129216
0.00141173
0.00138596
0.0013053
0.00121678
0.00113737
0.00106572
0.000996896
0.000919573
0.00084002
0.000756537
0.000670841
0.000583041
0.000496461
0.000404162
0.000317016
0.000235099
0.000152692
8.802e-05
1.77036e-05
-3.6205e-06
-5.87416e-05
0.0243162
0.0245301
0.0224821
0.0185068
0.0137058
0.00892199
0.00460903
0.00123061
-0.000743488
-0.00119524
-0.000603439
0.000296166
0.00100956
0.00139177
0.00150523
0.00146799
0.00137445
0.00127514
0.00118725
0.00110841
0.00103328
0.000950847
0.000866992
0.00077996
0.000691155
0.000600812
0.000511856
0.000417717
0.000328626
0.000245327
0.000161496
9.56637e-05
2.44749e-05
3.76228e-07
-5.33174e-05
0.022868
0.023231
0.0216604
0.0182414
0.0138261
0.00930859
0.00522446
0.00199112
-1.28268e-05
-0.000666043
-0.000303242
0.000457464
0.00112263
0.00149853
0.0016092
0.0015613
0.00145321
0.00134108
0.00124324
0.00115653
0.00107459
0.000986867
0.000898342
0.000807583
0.000715208
0.000622155
0.000530364
0.000434358
0.000342864
0.000258091
0.000172419
0.000105257
3.29994e-05
5.29336e-06
-4.63731e-05
0.0216072
0.022088
0.0208672
0.0179346
0.0139269
0.00969157
0.00581901
0.00271535
0.000702347
-0.000112697
3.40474e-05
0.000641197
0.00124384
0.00161045
0.00172175
0.00166533
0.00154172
0.00141452
0.00130484
0.00120918
0.00111983
0.00102657
0.000933064
0.000838428
0.000742114
0.000646223
0.000551234
0.000453363
0.000359156
0.000272908
0.000185082
0.000116471
4.29902e-05
1.11457e-05
-3.84837e-05
0.0205113
0.0211092
0.020138
0.0176056
0.0139941
0.0100535
0.00638932
0.00340616
0.00139474
0.000452474
0.000404964
0.000850952
0.00137589
0.00172686
0.00184108
0.00177935
0.00164029
0.00149604
0.00137236
0.00126631
0.00116874
0.00106961
0.000970847
0.000872118
0.000771555
0.000672603
0.000574137
0.000474261
0.000377146
0.00028931
0.000199196
0.000128881
5.41146e-05
1.77507e-05
-3.03677e-05
0.0195208
0.0202505
0.0194811
0.0172703
0.0140202
0.0103769
0.00692366
0.00406014
0.00205893
0.00101838
0.00080299
0.0010893
0.00152262
0.00184806
0.00196498
0.00190152
0.00174857
0.00158613
0.00144638
0.00132824
0.00122139
0.00111594
0.00101165
0.000908575
0.000803518
0.000701192
0.000599025
0.00049688
0.000396749
0.000307036
0.000214668
0.000142234
6.61846e-05
2.49408e-05
-2.24686e-05
0.0185878
0.0194714
0.0188896
0.016944
0.014009
0.0106513
0.00741135
0.00467419
0.00269486
0.00157889
0.00122151
0.001357
0.00168802
0.00197546
0.00209185
0.0020299
0.00186602
0.00168547
0.00152789
0.0013957
0.00127818
0.00116565
0.00105556
0.000947858
0.000838107
0.000732057
0.000625989
0.000521216
0.000418021
0.00032601
0.000231493
0.000156466
7.91157e-05
3.26572e-05
-1.49619e-05
0.0176945
0.0187519
0.0183547
0.0166376
0.013973
0.0108772
0.00784735
0.00524502
0.00330257
0.00212965
0.00165314
0.00165173
0.00187523
0.00211227
0.00222181
0.00216334
0.00199212
0.00179457
0.0016179
0.00146958
0.00133965
0.00121897
0.00110269
0.000990065
0.000875449
0.000765325
0.000655173
0.000547334
0.00044107
0.00034629
0.000249687
0.000171611
9.28592e-05
4.09194e-05
-7.89955e-06
0.0168386
0.0180823
0.0178681
0.0163559
0.0139248
0.0110621
0.00823085
0.00576716
0.00387737
0.00266571
0.00209033
0.0019691
0.00208675
0.00226276
0.00235646
0.00230083
0.00212542
0.00191291
0.00171687
0.00155064
0.00140641
0.00127621
0.00115313
0.00103525
0.000915658
0.000801105
0.000686738
0.000575327
0.000465966
0.000368006
0.000269279
0.000187743
0.00010737
4.9768e-05
-1.28749e-06
0.0160207
0.0174568
0.0174236
0.0160987
0.0138718
0.0112144
0.00856375
0.00623536
0.00441169
0.00318191
0.00252748
0.00230408
0.00232295
0.00243033
0.00249766
0.00244124
0.00226397
0.0020393
0.00182484
0.00163963
0.00147922
0.00133779
0.00120704
0.00108343
0.000958818
0.000839492
0.000720819
0.000605354
0.000492739
0.000391281
0.000290333
0.000204956
0.0001226
5.92279e-05
4.88386e-06
0.015242
0.0168714
0.0170159
0.015863
0.0138165
0.0113398
0.00884986
0.00664755
0.00489863
0.00367255
0.00295971
0.00265047
0.0025809
0.00261675
0.00264781
0.00258468
0.00240658
0.0021726
0.00194146
0.00173702
0.00155884
0.00140425
0.00126474
0.00113468
0.00100496
0.000880572
0.000757485
0.00063763
0.00052146
0.000416198
0.00031293
0.000223381
0.000138498
6.92892e-05
1.06504e-05
0.0145046
0.0163235
0.016641
0.0156463
0.0137593
0.0114413
0.00909313
0.00700527
0.00533392
0.00413059
0.0033809
0.00300174
0.00285583
0.00282274
0.00280998
0.00273277
0.00255271
0.00231146
0.00206573
0.00184268
0.00164586
0.00147626
0.00132659
0.00118918
0.00105405
0.000924438
0.000796777
0.00067232
0.000552291
0.000442811
0.000337078
0.00024319
0.000155057
7.98925e-05
1.60709e-05
0.0138113
0.0158119
0.0162951
0.0154458
0.0136981
0.0115188
0.00929706
0.00731271
0.00571684
0.00454948
0.00378437
0.00335221
0.00314243
0.00304703
0.00298648
0.00288744
0.00270211
0.00245456
0.00219636
0.00195609
0.00174056
0.00155446
0.00139299
0.00124715
0.00110612
0.000971142
0.000838751
0.000709474
0.000585418
0.000471295
0.000362691
0.000264464
0.000172327
9.09607e-05
2.11955e-05
0.0131628
0.0153332
0.0159716
0.0152559
0.01363
0.0115724
0.00946492
0.00757489
0.00604979
0.00492524
0.00416344
0.00369644
0.00343509
0.00328603
0.003178
0.00305049
0.0028551
0.00260107
0.00233211
0.00207634
0.00184268
0.00163929
0.00146448
0.00130895
0.00116132
0.0010206
0.000883373
0.000749091
0.000620887
0.000501971
0.000389783
0.000287124
0.000190351
0.000102424
2.60692e-05
0.0125543
0.01488
0.0156624
0.0150708
0.0135546
0.0116039
0.00959953
0.00779593
0.00633641
0.00525655
0.00451178
0.00402824
0.00372827
0.00353468
0.00338324
0.00322357
0.00301288
0.00275074
0.00247191
0.00220221
0.0019515
0.00173079
0.00154155
0.00137486
0.00121973
0.0010728
0.000930593
0.000791272
0.0006586
0.000535017
0.000418596
0.000311072
0.000209118
0.000114231
3.07401e-05
0.0119808
0.0144484
0.0153647
0.0148898
0.013474
0.0116163
0.00970278
0.00797835
0.00657979
0.00554419
0.00482499
0.00434124
0.00401653
0.00378749
0.003599
0.0034072
0.00317673
0.00290353
0.00261476
0.00233248
0.00206615
0.00182853
0.00162433
0.00144518
0.00128147
0.0011279
0.000980319
0.000836047
0.000698523
0.000570368
0.000449444
0.000336303
0.000228488
0.000126332
3.52702e-05
0.0114437
0.0140405
0.01508
0.0147125
0.0133875
0.0116104
0.00977517
0.00812311
0.00678241
0.0057906
0.00510151
0.00462959
0.00429418
0.00403933
0.00382086
0.00359992
0.00334721
0.00305959
0.00276008
0.00246622
0.00218557
0.0019317
0.00171255
0.00152029
0.0013467
0.00118591
0.00103244
0.000883258
0.000740759
0.000607816
0.000482387
0.000363039
0.000248333
0.00013856
3.96973e-05
0.0109455
0.0136579
0.014807
0.0145354
0.0132916
0.0115854
0.00981828
0.00823238
0.00694751
0.005999
0.00534167
0.00488903
0.00455572
0.0042857
0.00404417
0.00379854
0.00352402
0.00321948
0.00290753
0.00260248
0.00230842
0.00203926
0.00180562
0.00160023
0.00141556
0.00124671
0.00108707
0.000932807
0.000785424
0.000647369
0.000517117
0.000391364
0.000268724
0.00015073
4.40964e-05
0.0104829
0.0132974
0.0145425
0.0143561
0.0131851
0.011543
0.00983609
0.00830968
0.0070777
0.00617114
0.00554612
0.00511709
0.00479582
0.00452143
0.00426393
0.0039988
0.0037055
0.00338333
0.00305649
0.00274022
0.0024339
0.00215032
0.0019026
0.00168431
0.00148809
0.00131021
0.00114415
0.000984552
0.000832255
0.000689177
0.000553512
0.000421061
0.000289752
0.000162733
4.84357e-05
0.0100504
0.0129558
0.0142859
0.0141752
0.0130695
0.0114853
0.00983187
0.00835762
0.00717419
0.00630811
0.00571614
0.0053133
0.00501041
0.00474128
0.00447574
0.00419658
0.0038885
0.00355
0.00320635
0.00287833
0.00256118
0.0022637
0.00200225
0.00177163
0.00156417
0.00137645
0.00120334
0.00103843
0.000881049
0.000733145
0.000591648
0.000451799
0.00031135
0.000174614
5.25728e-05
0.00964649
0.012633
0.0140385
0.0139947
0.0129469
0.0114136
0.00980706
0.00837801
0.0072385
0.00641164
0.00585337
0.00547833
0.00519739
0.00494083
0.0046752
0.0043877
0.00406866
0.00371715
0.003357
0.00301571
0.00268876
0.00237822
0.00210346
0.00186127
0.00164293
0.00144516
0.00126437
0.00109436
0.000931876
0.0007789
0.00063145
0.000483408
0.00033328
0.000186542
5.65812e-05
0.00927153
0.0123299
0.0138013
0.0138156
0.0128177
0.0113281
0.00976218
0.00837273
0.00727299
0.00648367
0.00595891
0.0056125
0.00535536
0.0051163
0.00485769
0.00456765
0.00424148
0.00388144
0.00350738
0.00315105
0.00281459
0.00249297
0.0022051
0.001952
0.00172318
0.00151582
0.00132717
0.00115174
0.00098442
0.000826016
0.000672495
0.000515832
0.000355224
0.000198439
6.07439e-05
0.0089249
0.0120455
0.0135734
0.0136369
0.0126813
0.0112292
0.00969891
0.0083447
0.0072808
0.00652633
0.00603361
0.00571581
0.00548363
0.00526538
0.00501942
0.00473255
0.00440329
0.00403866
0.00365447
0.00328306
0.00293686
0.00260646
0.00230568
0.002042
0.00180395
0.00158744
0.00139135
0.00121021
0.00103834
0.000874304
0.000713954
0.000548371
0.000376898
0.000210092
6.51678e-05
0.00860644
0.0117798
0.013355
0.0134595
0.0125398
0.01112
0.00962048
0.00829693
0.00726417
0.00654085
0.00607808
0.00578876
0.00558233
0.00538658
0.005157
0.00487851
0.00455062
0.00418437
0.00379442
0.00341064
0.00305414
0.00271614
0.0024041
0.00213005
0.00188414
0.0016591
0.0014562
0.00126969
0.00109331
0.000923399
0.000755399
0.00058043
0.00039812
0.000221347
6.90943e-05
0.00831417
0.0115318
0.0131464
0.013285
0.0123952
0.0110022
0.00952789
0.00822956
0.00722293
0.00652737
0.00609292
0.00583171
0.00565121
0.0054786
0.00526772
0.00500169
0.00467985
0.00431459
0.00392301
0.00353138
0.00316445
0.00281929
0.00249916
0.00221547
0.0019621
0.00173026
0.00152145
0.00133031
0.00114949
0.000973217
0.000796642
0.000611782
0.000418886
0.000232778
7.22284e-05
0.00803993
0.0112965
0.0129454
0.013113
0.0122472
0.0108746
0.00941922
0.00814038
0.00715509
0.00648361
0.00607492
0.00584013
0.00568553
0.00553703
0.00534714
0.00509665
0.0047848
0.00442409
0.00403444
0.0036399
0.00326453
0.00291307
0.00258748
0.00229608
0.00203596
0.00179967
0.00158663
0.00139168
0.00120688
0.00102398
0.000837798
0.000642828
0.00043976
0.000245911
8.13137e-05
0.00742635
0.0107715
0.0124957
0.0127206
0.0118965
0.010557
0.00913205
0.0078851
0.00693567
0.00630636
0.00594683
0.00576692
0.00567051
0.0055793
0.00544193
0.00523391
0.00495271
0.00461158
0.00423302
0.00383993
0.00345357
0.0030903
0.00275515
0.00245183
0.00218085
0.00193828
0.0017206
0.00151986
0.00132777
0.00113067
0.000922182
0.000704016
0.000479737
0.000268919
8.9448e-05
0.00756454
0.0108135
0.0124322
0.0125515
0.0116333
0.0102199
0.00874577
0.00747526
0.0065272
0.00592227
0.00560543
0.00547974
0.00544194
0.00540782
0.00532261
0.00516008
0.00491643
0.00460557
0.00425063
0.00387591
0.00350193
0.00314505
0.00281505
0.0025172
0.002254
0.00202063
0.00181077
0.00161368
0.00141563
0.0012031
0.000970939
0.000729379
0.000491698
0.000273937
8.68791e-05
0.00609114
0.00931657
0.0109735
0.0111862
0.0103962
0.00912271
0.00777849
0.00662025
0.00576158
0.00522174
0.00494819
0.00484879
0.00482749
0.0048098
0.0047504
0.00462909
0.00444242
0.00419988
0.00391909
0.00362068
0.0033212
0.00303066
0.0027567
0.00250391
0.0022739
0.00206156
0.00186046
0.0016638
0.00146202
0.00124948
0.00102361
0.000791658
0.00056257
0.000339076
0.000121042
0.00493996
0.00149271
-0.000364563
-0.000758162
-0.000136214
0.000973607
0.00214836
0.00312313
0.00377843
0.0040919
0.00411648
0.00394655
0.00368022
0.00339383
0.00313529
0.0029288
0.00278075
0.00268245
0.00261542
0.00255923
0.00249848
0.00242136
0.00231773
0.00218069
0.00201052
0.00181571
0.00160826
0.00140237
0.00121066
0.00103904
0.000879325
0.000712993
0.000527404
0.000318007
9.87726e-05
0.00366558
0.00020494
-0.00161782
-0.00193518
-0.00121662
-1.35073e-05
0.0012361
0.00226826
0.0029663
0.00331077
0.00335582
0.00319667
0.00293563
0.0026575
0.00241792
0.00224356
0.00213909
0.00209331
0.0020868
0.00209779
0.00210636
0.00209639
0.00205514
0.00197369
0.00184828
0.00168282
0.00148924
0.00128783
0.0011036
0.00095235
0.000831621
0.000713167
0.000563375
0.000360652
0.000118495
0.0043431
0.000753218
-0.00121723
-0.00169038
-0.00111909
-4.02957e-05
0.00111353
0.00207728
0.00273007
0.00304733
0.00307761
0.00291097
0.00264457
0.00235889
0.0021077
0.00191868
0.00179917
0.00174139
0.0017286
0.00174094
0.0017595
0.00176817
0.00175359
0.00170435
0.00161278
0.00147747
0.0013079
0.00112455
0.000955822
0.000821948
0.000725334
0.000637337
0.000517569
0.000337825
0.00010775
0.00397826
0.000374404
-0.00160933
-0.0020951
-0.0015355
-0.000467056
0.000678113
0.0016351
0.0022831
0.00259749
0.0026266
0.00246012
0.0021949
0.00191124
0.00166299
0.00147824
0.00136481
0.00131544
0.00131372
0.00134014
0.00137594
0.0014049
0.0014133
0.00138937
0.0013252
0.00121874
0.00107864
0.000923161
0.000779382
0.000668074
0.000593492
0.000530142
0.000438913
0.000290041
9.03667e-05
0.00386456
0.000263462
-0.0017206
-0.00220934
-0.00165456
-0.000592008
0.000546854
0.00149754
0.00213944
0.00244798
0.00247153
0.00229979
0.00202965
0.00174151
0.00148937
0.00130145
0.00118585
0.00113557
0.00113457
0.00116353
0.00120369
0.00123853
0.00125373
0.00123702
0.00118021
0.00108204
0.00095213
0.000810285
0.000683854
0.000592315
0.000536796
0.000489174
0.000410288
0.000272862
8.80204e-05
0.00368082
7.82496e-05
-0.00190786
-0.00239933
-0.00184788
-0.000788992
0.000346095
0.00129309
0.0019315
0.00223683
0.00225741
0.00208296
0.00181034
0.00151998
0.00126598
0.00107682
0.000960909
0.000911632
0.000913191
0.000946366
0.000992215
0.00103368
0.00105557
0.00104491
0.000993408
0.000900895
0.000778949
0.000649977
0.000541935
0.000472561
0.000438122
0.000406651
0.000340434
0.000219622
6.57722e-05
0.0034822
-0.000119157
-0.00210409
-0.00259444
-0.0020419
-0.000981969
0.000154163
0.00110221
0.00174169
0.00204808
0.00206974
0.00189642
0.00162505
0.00133611
0.00108383
0.000896927
0.000784108
0.000739085
0.000746261
0.000786416
0.00084018
0.00088973
0.000918737
0.000913425
0.000865483
0.000776355
0.000660277
0.000542541
0.000451718
0.000402806
0.000386112
0.000365524
0.000304905
0.000192213
5.75033e-05
0.00331302
-0.000287277
-0.00227099
-0.00275997
-0.00220596
-0.00114446
-6.69961e-06
0.000943037
0.00158421
0.00189223
0.00191541
0.00174347
0.00147334
0.00118556
0.000934509
0.000749191
0.000638722
0.000597177
0.000609186
0.000655419
0.000715969
0.00077199
0.000805897
0.000803094
0.000755629
0.000667082
0.000554761
0.000446892
0.000371853
0.000340808
0.00033759
0.000322881
0.000263963
0.000158648
4.48093e-05
0.00317421
-0.000424459
-0.00240695
-0.00289501
-0.00234022
-0.00127792
-0.000139243
0.000811541
0.00145383
0.00176295
0.00178713
0.00161604
0.00134662
0.00105948
0.000809205
0.000625131
0.000516837
0.000478799
0.00049581
0.000548273
0.000615485
0.000677303
0.000714726
0.000712477
0.000663482
0.000574025
0.000464972
0.000367137
0.00030762
0.000292531
0.000299068
0.000286344
0.000227155
0.000129472
3.53144e-05
0.00306595
-0.000532233
-0.00251403
-0.00300124
-0.00244552
-0.00138224
-0.000242565
0.000709227
0.00135247
0.00166238
0.00168715
0.00151643
0.00124718
0.000960144
0.000710148
0.000526941
0.000420632
0.000386095
0.000408227
0.000466994
0.000540645
0.000607484
0.000646967
0.000643316
0.000590864
0.000499252
0.000393219
0.000305629
0.000261158
0.000259599
0.00027177
0.000256985
0.000195305
0.000104651
2.7717e-05
0.00299234
-0.00060528
-0.00258647
-0.00307308
-0.00251674
-0.00145283
-0.000312477
0.00063998
0.0012838
0.0015941
0.001619
0.00144814
0.00117853
0.000891045
0.0006408
0.00045799
0.000353263
0.000321866
0.000348701
0.000413162
0.000492304
0.000562781
0.000602616
0.000595871
0.000538748
0.000444417
0.000341261
0.000263339
0.000231888
0.000240206
0.000254
0.000234532
0.00016997
8.59453e-05
2.25158e-05
0.00295524
-0.000641709
-0.00262237
-0.0031086
-0.00255202
-0.00148793
-0.000347433
0.000605158
0.00124905
0.0015593
0.00158402
0.00141281
0.00114274
0.000854786
0.000604241
0.000421608
0.000317882
0.000288516
0.000318351
0.000386313
0.000468599
0.000540773
0.000580029
0.000570543
0.000509988
0.000413978
0.000313092
0.000241635
0.000218075
0.000231369
0.000244633
0.000221331
0.000155157
7.57193e-05
1.99402e-05
0.0130818
0.0110117
0.0110004
0.0105796
0.0107494
0.0108043
0.0108549
0.0107195
0.0110044
0.0110542
0.0114174
0.0119316
0.0126827
0.013804
0.0152421
0.0171555
0.0195642
0.0227701
0.0266897
0.0309645
0.013087
0.0110006
0.0110057
0.0105648
0.0107585
0.0107761
0.0108667
0.0106732
0.0110262
0.0109994
0.0114494
0.0118751
0.0127175
0.0137515
0.0152679
0.0170949
0.0195196
0.0224418
0.0258666
0.0291877
0.0130875
0.0109866
0.0110108
0.0105496
0.010765
0.0107477
0.0108772
0.010634
0.0110436
0.0109552
0.0114713
0.0118255
0.0127333
0.0137007
0.0152532
0.0169969
0.019319
0.0218772
0.0247552
0.0273776
0.0130821
0.0109714
0.0110155
0.0105353
0.0107698
0.0107205
0.0108835
0.010602
0.0110455
0.0109314
0.0114635
0.0118069
0.0127011
0.0136743
0.0151673
0.0168596
0.0189448
0.0211833
0.0235482
0.025725
0.0130728
0.0109561
0.0110204
0.0105233
0.0107728
0.010696
0.0108831
0.0105803
0.0110305
0.0109305
0.0114244
0.0118141
0.0126263
0.0136281
0.0150081
0.0166049
0.018455
0.0203853
0.0223479
0.024202
0.013061
0.0109422
0.011025
0.0105156
0.0107704
0.0106785
0.0108723
0.010573
0.0109955
0.0109519
0.0113591
0.0118129
0.0125345
0.013522
0.0147751
0.0162078
0.0178364
0.0195181
0.0211815
0.0227764
0.013047
0.0109317
0.011027
0.0105134
0.0107593
0.0106703
0.010848
0.0105814
0.0109405
0.0109709
0.0112893
0.0117844
0.0124364
0.0133519
0.0144672
0.0156924
0.017064
0.0185376
0.0200505
0.0214283
0.0130303
0.0109266
0.0110241
0.0105177
0.0107376
0.0106713
0.0108083
0.0105938
0.010882
0.0109751
0.0112343
0.0117254
0.0123278
0.0131251
0.0140855
0.0151201
0.0162192
0.0173966
0.0186806
0.0201165
0.0130091
0.0109296
0.0110143
0.0105297
0.0107028
0.0106817
0.0107569
0.0106023
0.0108332
0.0109634
0.0111887
0.011643
0.0121888
0.0128572
0.0135932
0.0143528
0.0151932
0.0161778
0.0173799
0.0188954
0.0129814
0.0109441
0.0109959
0.0105501
0.0106532
0.0106973
0.0107074
0.0105989
0.0107955
0.0109421
0.0111326
0.0115325
0.0119635
0.0124209
0.012959
0.0135287
0.0141718
0.0150041
0.0161621
0.017762
0.0129449
0.0109727
0.0109688
0.0105764
0.0105948
0.0107018
0.0106736
0.0105822
0.0107605
0.010907
0.0110424
0.0113144
0.0116235
0.0119404
0.0123044
0.0126949
0.0131736
0.0138825
0.0149945
0.016677
0.0128979
0.0110183
0.0109342
0.0106049
0.0105397
0.0106868
0.0106569
0.0105575
0.0107117
0.0108252
0.0108625
0.0110341
0.0112545
0.0114447
0.0116382
0.0118568
0.0121876
0.0127888
0.013863
0.0156243
0.012838
0.0110831
0.0108963
0.0106218
0.0104996
0.0106518
0.0106368
0.0105227
0.0106221
0.0106826
0.0106564
0.010734
0.0108571
0.010925
0.0109577
0.011012
0.0112035
0.0117132
0.012765
0.0146061
0.0127644
0.0111647
0.0108668
0.0106213
0.010475
0.0106073
0.0105968
0.0104544
0.0104907
0.0105174
0.0104382
0.0104139
0.0104262
0.010372
0.0102582
0.0101621
0.0102258
0.0106573
0.0117016
0.0136265
0.0126775
0.0112516
0.010857
0.010613
0.0104468
0.0105511
0.0105286
0.0103522
0.0103358
0.0103317
0.0102018
0.0100711
0.00996205
0.00978724
0.00954165
0.00931232
0.00926257
0.00962623
0.0106733
0.0126868
0.0125775
0.0113368
0.010876
0.0106016
0.0104053
0.0104729
0.0104335
0.0102306
0.0101619
0.01012
0.00993904
0.00970469
0.00947058
0.0091775
0.00881179
0.00846576
0.00831897
0.0086265
0.00968375
0.0117896
0.0124648
0.0114164
0.0109237
0.0105911
0.0103467
0.0103683
0.0103147
0.0100922
0.00996831
0.00987802
0.00964628
0.00931664
0.00895872
0.00854738
0.00807033
0.00762396
0.00739999
0.0076674
0.00874236
0.0109409
0.0123429
0.0114802
0.0109967
0.010588
0.0102727
0.0102388
0.0101703
0.00993281
0.00975262
0.00960606
0.00932309
0.00890663
0.00842919
0.00790059
0.0073215
0.0067945
0.00651612
0.0067614
0.0078607
0.0101474
0.0122221
0.0115213
0.0110704
0.0105994
0.0101958
0.0100876
0.00999668
0.00974758
0.00951444
0.00930632
0.00896845
0.00847217
0.00788423
0.007243
0.00657789
0.0059915
0.00567827
0.00591503
0.00704183
0.00940842
0.0121107
0.0115357
0.0111213
0.0106233
0.0101258
0.00992205
0.0097946
0.00953472
0.00925377
0.00897938
0.00858175
0.00801334
0.00732988
0.00659057
0.00585386
0.00522253
0.00488626
0.00512252
0.00627846
0.00871765
0.0120105
0.011528
0.0111428
0.0106407
0.010064
0.00975376
0.00957296
0.00929596
0.00897014
0.00862706
0.00816716
0.00753518
0.0067722
0.00595354
0.00515515
0.00448643
0.00413444
0.0043766
0.00556492
0.00807309
0.0119195
0.0115108
0.0111345
0.0106206
0.00999203
0.00958785
0.00934505
0.00904009
0.00866841
0.00825652
0.00773253
0.00704382
0.00621737
0.00533431
0.00448346
0.00378392
0.00342324
0.00367767
0.00490181
0.00747625
0.011838
0.0114864
0.0110978
0.0105533
0.00989552
0.00942361
0.00911575
0.00877457
0.00835554
0.00787567
0.00728582
0.00654253
0.00566675
0.00473468
0.0038433
0.00312081
0.00275741
0.00302794
0.00428842
0.00692463
0.0117667
0.0114518
0.0110277
0.010446
0.00977048
0.00925266
0.00888576
0.00850132
0.00803483
0.00749008
0.00683582
0.0060402
0.00512543
0.00415887
0.00323937
0.00250124
0.00213825
0.00242533
0.00371989
0.00641227
0.0117011
0.0114022
0.0109263
0.0103069
0.00962052
0.00906896
0.00865004
0.00822073
0.00770646
0.00710211
0.00638774
0.00554679
0.0046009
0.00361065
0.00267288
0.00192508
0.00156433
0.00186729
0.00319319
0.00593646
0.0116299
0.0113343
0.0108067
0.0101471
0.00944872
0.00886999
0.00840408
0.00793129
0.00737254
0.00671429
0.00594825
0.00506883
0.00409755
0.0030907
0.00214217
0.00139031
0.00103438
0.00135321
0.00270817
0.00549736
0.0115449
0.0112467
0.0106727
0.00997307
0.00925787
0.00865329
0.00814749
0.00763476
0.00703706
0.00633352
0.00552376
0.00461067
0.00361769
0.00259902
0.0016457
0.000895238
0.000547418
0.000882676
0.00226455
0.00509452
0.0114415
0.0111377
0.0105237
0.00978513
0.00905157
0.00842124
0.00788031
0.0073343
0.00670513
0.00596578
0.00511953
0.0041769
0.00316478
0.00213706
0.00118273
0.000437791
0.000101346
0.000454062
0.00186118
0.00472736
0.0113164
0.0110053
0.0103566
0.00958217
0.00883158
0.00817913
0.00760815
0.00703497
0.00638258
0.00561719
0.00474228
0.00377459
0.00274515
0.00170865
0.000752835
1.30717e-05
-0.000310914
6.0753e-05
0.00149285
0.00439243
0.0111659
0.0108485
0.0101684
0.00936233
0.00859851
0.00793078
0.00733822
0.00674458
0.0060771
0.00529638
0.00440213
0.00341546
0.00237139
0.00132627
0.00036706
-0.000371922
-0.000690876
-0.000305002
0.00115239
0.00408179
0.0107368
0.0104097
0.00967503
0.00880873
0.00802365
0.00733669
0.00671661
0.0061026
0.00542466
0.00463614
0.00372416
0.00271361
0.00164812
0.000588574
-0.000378683
-0.00112248
-0.00144467
-0.00105947
0.000410476
0.00338779
0.0096869
0.0093855
0.00872511
0.00791915
0.00718978
0.00657582
0.00602161
0.00547419
0.0048886
0.00422852
0.00347199
0.00261937
0.00169451
0.000746518
-0.000142708
-0.000842529
-0.00115201
-0.000779978
0.000658016
0.00359187
0.00841465
0.00831417
0.00796843
0.00749364
0.00702462
0.00660792
0.00617662
0.00566266
0.00502237
0.00424313
0.00332659
0.00229177
0.001179
5.11639e-05
-0.00100055
-0.00184207
-0.00227589
-0.00201258
-0.000667486
0.00218831
0.00526903
0.00521017
0.00528366
0.00543772
0.00566336
0.00599845
0.00644899
0.00700924
0.00767915
0.0084558
0.00932638
0.0102673
0.0112463
0.0122165
0.0131021
0.0137776
0.014048
0.0136075
0.0120877
0.00905261
0.00402672
0.00423125
0.00470511
0.00529164
0.00586617
0.00639646
0.00689719
0.00739493
0.00791862
0.00849631
0.0091481
0.00987793
0.0106694
0.0114805
0.0122334
0.0127984
0.0129734
0.0124779
0.0109053
0.00782316
0.00296456
0.00324541
0.00385956
0.0046281
0.00540455
0.00613078
0.00681868
0.00750363
0.00822001
0.00899021
0.00982062
0.0107015
0.0116068
0.0124894
0.0132716
0.0138279
0.0139643
0.0133967
0.0117477
0.00859258
0.00237251
0.00271062
0.00340502
0.00426461
0.00513903
0.00595574
0.00671186
0.00743844
0.0081701
0.00893209
0.0097364
0.0105805
0.0114451
0.012288
0.0130339
0.0135585
0.0136677
0.0130775
0.0114102
0.00824122
0.00192741
0.0022755
0.00298118
0.00385802
0.00476178
0.00561664
0.00641275
0.00717578
0.00793853
0.00872581
0.00954971
0.0104084
0.0112837
0.0121348
0.0128879
0.0134189
0.0135337
0.0129485
0.011286
0.00812222
0.00157755
0.00192553
0.00262972
0.00350927
0.00442434
0.00530122
0.00612639
0.00691972
0.0077096
0.00851865
0.00935853
0.0102279
0.0111095
0.0119634
0.0127163
0.0132454
0.0133575
0.0127695
0.0111049
0.00793961
0.00129585
0.00163813
0.0023303
0.00319953
0.00411299
0.0049992
0.00584173
0.00665578
0.00746549
0.00829091
0.00914267
0.0100196
0.0109053
0.011761
0.0125147
0.013044
0.0131563
0.0125687
0.0109045
0.00773998
0.00105849
0.00139218
0.0020677
0.00292117
0.00382731
0.00471754
0.00557371
0.00640661
0.00723602
0.00807894
0.00894454
0.00983149
0.0107239
0.011584
0.0123403
0.0128712
0.0129845
0.0123976
0.010734
0.00757002
0.000860772
0.00118457
0.00184161
0.00267696
0.00357315
0.00446503
0.00533303
0.00618372
0.0070323
0.00789241
0.00877173
0.00966865
0.0105678
0.0114322
0.0121913
0.0127242
0.0128391
0.0122537
0.0105917
0.00742941
0.00071211
0.00102428
0.00165901
0.00247185
0.0033544
0.00424544
0.00512398
0.00599219
0.00686046
0.00773887
0.0086331
0.00954108
0.0104478
0.0113172
0.0120794
0.012614
0.0127299
0.012145
0.0104831
0.00732093
0.000609826
0.000910792
0.00152414
0.00231508
0.00318366
0.00407251
0.00495966
0.00584336
0.00672953
0.00762477
0.00853278
0.0094509
0.0103645
0.011238
0.0120025
0.0125384
0.0126548
0.0120703
0.0104087
0.00724686
0.000555231
0.000849145
0.00144902
0.00222595
0.00308519
0.00397197
0.00486384
0.00575673
0.00665382
0.00755952
0.00847628
0.00940099
0.0103191
0.0111955
0.0119618
0.0124987
0.0126158
0.0120316
0.0103704
0.0072091
)
;

boundaryField
{
    top
    {
        type            zeroGradient;
    }
    inlet
    {
        type            zeroGradient;
    }
    outlet
    {
        type            fixedValue;
        value           uniform 0;
    }
    plate
    {
        type            zeroGradient;
    }
    symmBound
    {
        type            zeroGradient;
    }
    frontAndBack
    {
        type            empty;
    }
}


// ************************************************************************* //
