/*--------------------------------*- C++ -*----------------------------------*\
| =========                 |                                                 |
| \\      /  F ield         | OpenFOAM: The Open Source CFD Toolbox           |
|  \\    /   O peration     | Version:  5.x                                   |
|   \\  /    A nd           | Web:      www.OpenFOAM.org                      |
|    \\/     M anipulation  |                                                 |
\*---------------------------------------------------------------------------*/
FoamFile
{
    version     2.0;
    format      ascii;
    class       surfaceScalarField;
    location    "0.2";
    object      phi;
}
// * * * * * * * * * * * * * * * * * * * * * * * * * * * * * * * * * * * * * //

dimensions      [0 3 -1 0 0 0 0];

internalField   nonuniform List<scalar> 
4850
(
7.34176e-08
6.85859e-09
-8.02762e-08
6.46383e-08
8.77931e-09
5.57485e-08
8.88976e-09
4.68841e-08
8.86443e-09
3.82195e-08
8.66459e-09
3.04032e-08
7.81633e-09
2.43172e-08
6.08598e-09
2.0359e-08
3.95816e-09
1.80738e-08
2.28518e-09
1.66879e-08
1.38599e-09
1.57289e-08
9.59003e-10
1.49622e-08
7.66676e-10
1.42702e-08
6.9196e-10
1.36111e-08
6.59098e-10
1.29825e-08
6.28594e-10
1.23895e-08
5.93037e-10
1.18401e-08
5.49356e-10
1.13338e-08
5.06311e-10
1.08707e-08
4.63143e-10
1.04427e-08
4.27992e-10
1.00472e-08
3.9549e-10
9.67434e-09
3.72858e-10
9.32633e-09
3.48012e-10
8.99454e-09
3.3179e-10
8.68377e-09
3.10775e-10
8.38501e-09
2.98757e-10
8.10578e-09
2.79225e-10
7.83336e-09
2.72419e-10
7.58057e-09
2.52797e-10
7.33042e-09
2.50152e-10
7.09968e-09
2.30735e-10
6.86682e-09
2.32856e-10
6.65469e-09
2.12131e-10
6.43493e-09
2.19759e-10
2.12862e-10
8.82079e-08
6.33892e-09
-8.76882e-08
8.71745e-08
9.81267e-09
8.50606e-08
1.10037e-08
8.22495e-08
1.16755e-08
7.86742e-08
1.22399e-08
7.43527e-08
1.21379e-08
6.95823e-08
1.08563e-08
6.49259e-08
8.61464e-09
6.07972e-08
6.41383e-09
5.7152e-08
5.03125e-09
5.38479e-08
4.26303e-09
5.08383e-08
3.77634e-09
4.81018e-08
3.42843e-09
4.56191e-08
3.14177e-09
4.33754e-08
2.87237e-09
4.13407e-08
2.62765e-09
3.94947e-08
2.39535e-09
3.7806e-08
2.1951e-09
3.62609e-08
2.00822e-09
3.48301e-08
1.85877e-09
3.35055e-08
1.72006e-09
3.22593e-08
1.61909e-09
3.10957e-08
1.51162e-09
2.99885e-08
1.43899e-09
2.89519e-08
1.34736e-09
2.79565e-08
1.29416e-09
2.70258e-08
1.20993e-09
2.61207e-08
1.17755e-09
2.52795e-08
1.09395e-09
2.44476e-08
1.08201e-09
2.3683e-08
9.95423e-10
2.29091e-08
1.00676e-09
2.22112e-08
9.09985e-10
2.14808e-08
9.50148e-10
8.85718e-10
9.59799e-08
5.91079e-09
-9.55518e-08
9.64139e-08
9.37862e-09
9.63445e-08
1.10732e-08
9.60989e-08
1.19211e-08
9.56694e-08
1.26694e-08
9.47834e-08
1.30238e-08
9.32637e-08
1.2376e-08
9.12335e-08
1.06449e-08
8.9027e-08
8.62033e-09
8.67974e-08
7.26083e-09
8.44977e-08
6.56273e-09
8.20995e-08
6.17449e-09
7.96396e-08
5.88841e-09
7.71473e-08
5.63401e-09
7.46592e-08
5.36047e-09
7.21881e-08
5.09878e-09
6.97611e-08
4.82232e-09
6.73833e-08
4.57293e-09
6.5086e-08
4.30551e-09
6.28663e-08
4.07845e-09
6.0748e-08
3.83832e-09
5.87101e-08
3.65703e-09
5.67753e-08
3.44639e-09
5.49087e-08
3.30566e-09
5.31413e-08
3.11474e-09
5.14263e-08
3.00916e-09
4.98091e-08
2.82716e-09
4.8225e-08
2.76163e-09
4.67423e-08
2.57658e-09
4.52676e-08
2.55674e-09
4.39055e-08
2.35752e-09
4.25215e-08
2.39077e-09
4.12698e-08
2.16167e-09
3.9957e-08
2.26302e-09
2.07401e-09
1.04234e-07
5.77629e-09
-1.041e-07
1.04804e-07
8.80894e-09
1.05116e-07
1.07606e-08
1.05363e-07
1.16744e-08
1.05718e-07
1.23138e-08
1.06009e-07
1.27335e-08
1.05973e-07
1.24116e-08
1.05499e-07
1.11195e-08
1.04744e-07
9.37495e-09
1.039e-07
8.10508e-09
1.02966e-07
7.49637e-09
1.01886e-07
7.25449e-09
1.0067e-07
7.10438e-09
9.93243e-08
6.97985e-09
9.78698e-08
6.81499e-09
9.62972e-08
6.67142e-09
9.46222e-08
6.49725e-09
9.28332e-08
6.36195e-09
9.09629e-08
6.17582e-09
8.90078e-08
6.03357e-09
8.70137e-08
5.83239e-09
8.49711e-08
5.69963e-09
8.29324e-08
5.48515e-09
8.08663e-08
5.37174e-09
7.88312e-08
5.14985e-09
7.67766e-08
5.0637e-09
7.47794e-08
4.82434e-09
7.27657e-08
4.7754e-09
7.08386e-08
4.50367e-09
6.88802e-08
4.51513e-09
6.70378e-08
4.19991e-09
6.51398e-08
4.28879e-09
6.33943e-08
3.9072e-09
6.15533e-08
4.10393e-09
3.75045e-09
1.13294e-07
5.79005e-09
-1.13308e-07
1.13809e-07
8.29454e-09
1.14259e-07
1.03103e-08
1.14588e-07
1.13459e-08
1.15015e-07
1.1887e-08
1.15503e-07
1.22454e-08
1.15854e-07
1.20602e-08
1.15897e-07
1.10765e-08
1.15693e-07
9.57908e-09
1.15429e-07
8.36904e-09
1.15157e-07
7.76831e-09
1.14817e-07
7.59412e-09
1.14402e-07
7.51967e-09
1.13902e-07
7.47991e-09
1.13334e-07
7.38245e-09
1.12675e-07
7.33045e-09
1.11929e-07
7.24377e-09
1.11059e-07
7.23201e-09
1.10081e-07
7.15382e-09
1.08966e-07
7.14859e-09
1.07749e-07
7.04969e-09
1.06403e-07
7.04491e-09
1.04985e-07
6.90361e-09
1.03453e-07
6.90353e-09
1.01868e-07
6.73441e-09
1.00168e-07
6.76369e-09
9.84345e-08
6.55834e-09
9.65895e-08
6.62033e-09
9.47524e-08
6.34077e-09
9.28045e-08
6.46307e-09
9.09012e-08
6.10315e-09
8.88767e-08
6.31334e-09
8.69452e-08
5.83866e-09
8.48787e-08
6.17048e-09
5.70198e-09
1.23122e-07
5.86404e-09
-1.23196e-07
1.23547e-07
7.86956e-09
1.24072e-07
9.78498e-09
1.24473e-07
1.09457e-08
1.24886e-07
1.14737e-08
1.25365e-07
1.17667e-08
1.25784e-07
1.16408e-08
1.25971e-07
1.08896e-08
1.25924e-07
9.62626e-09
1.25812e-07
8.4811e-09
1.25734e-07
7.84566e-09
1.2565e-07
7.67892e-09
1.25539e-07
7.6307e-09
1.25386e-07
7.63287e-09
1.25216e-07
7.55235e-09
1.2501e-07
7.53641e-09
1.24776e-07
7.47752e-09
1.24474e-07
7.53359e-09
1.24116e-07
7.51278e-09
1.2366e-07
7.60379e-09
1.23132e-07
7.57777e-09
1.22494e-07
7.68271e-09
1.2179e-07
7.60765e-09
1.20978e-07
7.71583e-09
1.20104e-07
7.60882e-09
1.19102e-07
7.76545e-09
1.18026e-07
7.63442e-09
1.16802e-07
7.84438e-09
1.1552e-07
7.62248e-09
1.14094e-07
7.88967e-09
1.12624e-07
7.57246e-09
1.10994e-07
7.94309e-09
1.09339e-07
7.49419e-09
1.07542e-07
7.96739e-09
7.52807e-09
1.33708e-07
5.92985e-09
-1.33774e-07
1.34051e-07
7.52697e-09
1.34599e-07
9.23642e-09
1.35074e-07
1.04709e-08
1.35498e-07
1.10498e-08
1.35952e-07
1.13125e-08
1.36379e-07
1.12141e-08
1.36627e-07
1.06415e-08
1.36651e-07
9.60233e-09
1.36577e-07
8.55474e-09
1.36538e-07
7.88451e-09
1.36522e-07
7.69509e-09
1.365e-07
7.65255e-09
1.36449e-07
7.68377e-09
1.36396e-07
7.60574e-09
1.36334e-07
7.59836e-09
1.36277e-07
7.53413e-09
1.36196e-07
7.61468e-09
1.36099e-07
7.61034e-09
1.35956e-07
7.74705e-09
1.35781e-07
7.75268e-09
1.35546e-07
7.91687e-09
1.35279e-07
7.87532e-09
1.34953e-07
8.04182e-09
1.34593e-07
7.96897e-09
1.34158e-07
8.20005e-09
1.33663e-07
8.12956e-09
1.33062e-07
8.44552e-09
1.32384e-07
8.30069e-09
1.31605e-07
8.66798e-09
1.30746e-07
8.43145e-09
1.29766e-07
8.92299e-09
1.28665e-07
8.59598e-09
1.27476e-07
9.15547e-09
8.87397e-09
1.45099e-07
5.96581e-09
-1.45135e-07
1.45362e-07
7.26338e-09
1.45892e-07
8.70684e-09
1.4642e-07
9.94262e-09
1.46876e-07
1.05936e-08
1.47321e-07
1.0868e-08
1.47741e-07
1.07941e-08
1.48027e-07
1.03553e-08
1.48112e-07
9.51665e-09
1.48069e-07
8.59829e-09
1.48037e-07
7.91613e-09
1.48043e-07
7.68973e-09
1.48053e-07
7.64232e-09
1.48037e-07
7.6996e-09
1.48011e-07
7.63154e-09
1.47984e-07
7.62598e-09
1.47968e-07
7.5502e-09
1.4795e-07
7.63255e-09
1.47929e-07
7.63094e-09
1.47894e-07
7.78186e-09
1.47846e-07
7.80137e-09
1.47776e-07
7.98612e-09
1.4769e-07
7.96125e-09
1.47588e-07
8.14378e-09
1.4747e-07
8.08723e-09
1.47332e-07
8.33801e-09
1.47155e-07
8.30632e-09
1.46938e-07
8.66287e-09
1.4665e-07
8.58845e-09
1.46329e-07
8.98904e-09
1.45936e-07
8.82502e-09
1.455e-07
9.35915e-09
1.44914e-07
9.18176e-09
1.44315e-07
9.75393e-09
9.65836e-09
1.57357e-07
5.93516e-09
-1.57327e-07
1.57583e-07
7.03779e-09
1.58051e-07
8.23916e-09
1.58601e-07
9.39215e-09
1.59094e-07
1.01008e-08
1.59542e-07
1.04203e-08
1.59951e-07
1.03848e-08
1.60257e-07
1.00488e-08
1.60396e-07
9.37781e-09
1.6039e-07
8.60463e-09
1.60364e-07
7.94159e-09
1.60377e-07
7.6769e-09
1.60406e-07
7.61396e-09
1.60414e-07
7.6909e-09
1.60401e-07
7.64508e-09
1.60384e-07
7.64278e-09
1.60374e-07
7.56004e-09
1.60374e-07
7.6323e-09
1.60374e-07
7.63173e-09
1.60375e-07
7.78069e-09
1.60365e-07
7.81103e-09
1.60354e-07
7.99681e-09
1.6033e-07
7.98554e-09
1.60309e-07
8.16451e-09
1.60276e-07
8.12102e-09
1.6025e-07
8.36342e-09
1.60198e-07
8.35883e-09
1.60148e-07
8.71294e-09
1.60042e-07
8.69391e-09
1.59942e-07
9.08892e-09
1.59792e-07
8.9753e-09
1.59657e-07
9.49449e-09
1.59394e-07
9.44438e-09
1.59164e-07
9.98417e-09
1.00301e-08
1.70575e-07
5.84546e-09
-1.70485e-07
1.70795e-07
6.81694e-09
1.712e-07
7.8348e-09
1.71736e-07
8.85573e-09
1.72254e-07
9.58349e-09
1.72714e-07
9.95999e-09
1.73116e-07
9.98248e-09
1.73429e-07
9.73563e-09
1.73606e-07
9.20085e-09
1.73641e-07
8.56985e-09
1.73627e-07
7.95607e-09
1.7364e-07
7.6637e-09
1.73679e-07
7.57481e-09
1.73709e-07
7.66043e-09
1.7371e-07
7.64445e-09
1.73702e-07
7.65108e-09
1.73694e-07
7.56783e-09
1.73701e-07
7.62511e-09
1.73709e-07
7.62421e-09
1.73725e-07
7.76448e-09
1.73732e-07
7.80407e-09
1.73744e-07
7.98504e-09
1.73743e-07
7.98638e-09
1.73749e-07
8.15835e-09
1.73742e-07
8.12798e-09
1.7375e-07
8.35543e-09
1.73737e-07
8.37168e-09
1.73742e-07
8.70766e-09
1.73708e-07
8.72835e-09
1.73689e-07
9.10748e-09
1.73635e-07
9.0297e-09
1.73618e-07
9.51134e-09
1.73508e-07
9.55426e-09
1.73444e-07
1.00489e-08
1.01844e-08
1.84856e-07
5.71412e-09
-1.84724e-07
1.85085e-07
6.58795e-09
1.85447e-07
7.47229e-09
1.85947e-07
8.35583e-09
1.86468e-07
9.06288e-09
1.86942e-07
9.48552e-09
1.87346e-07
9.57877e-09
1.87661e-07
9.42058e-09
1.87861e-07
9.0006e-09
1.87936e-07
8.49506e-09
1.87939e-07
7.95333e-09
1.87951e-07
7.65176e-09
1.87994e-07
7.53106e-09
1.88042e-07
7.61271e-09
1.88061e-07
7.62598e-09
1.88062e-07
7.64951e-09
1.88058e-07
7.57179e-09
1.88068e-07
7.61493e-09
1.88082e-07
7.61065e-09
1.88106e-07
7.74048e-09
1.88124e-07
7.78606e-09
1.88146e-07
7.96284e-09
1.88157e-07
7.97519e-09
1.88173e-07
8.14267e-09
1.88176e-07
8.125e-09
1.88193e-07
8.33892e-09
1.88192e-07
8.37177e-09
1.88213e-07
8.68681e-09
1.88206e-07
8.73606e-09
1.88215e-07
9.09836e-09
1.88191e-07
9.05308e-09
1.88209e-07
9.49381e-09
1.88159e-07
9.60389e-09
1.88152e-07
1.00558e-08
1.025e-08
2.00302e-07
5.55412e-09
-2.00142e-07
2.00542e-07
6.34785e-09
2.00885e-07
7.13006e-09
2.01342e-07
7.89835e-09
2.01849e-07
8.55609e-09
2.02329e-07
9.00518e-09
2.02741e-07
9.16683e-09
2.03061e-07
9.1003e-09
2.03277e-07
8.78494e-09
2.03386e-07
8.38621e-09
2.03412e-07
7.92702e-09
2.03427e-07
7.63682e-09
2.0347e-07
7.48772e-09
2.0353e-07
7.55293e-09
2.03568e-07
7.58858e-09
2.03582e-07
7.63536e-09
2.03584e-07
7.56962e-09
2.03596e-07
7.60282e-09
2.03614e-07
7.59301e-09
2.03643e-07
7.71154e-09
2.03669e-07
7.75994e-09
2.03698e-07
7.93379e-09
2.03716e-07
7.95683e-09
2.03737e-07
8.12203e-09
2.03744e-07
8.1177e-09
2.03763e-07
8.31966e-09
2.03768e-07
8.3674e-09
2.03794e-07
8.66095e-09
2.03796e-07
8.73379e-09
2.03817e-07
9.07739e-09
2.03803e-07
9.06732e-09
2.03828e-07
9.46895e-09
2.03801e-07
9.63049e-09
2.03811e-07
1.00453e-08
1.02846e-08
2.17016e-07
5.3742e-09
-2.16836e-07
2.17266e-07
6.0973e-09
2.176e-07
6.79667e-09
2.18021e-07
7.47675e-09
2.18504e-07
8.07359e-09
2.18979e-07
8.53026e-09
2.19399e-07
8.74646e-09
2.19731e-07
8.76812e-09
2.19962e-07
8.55434e-09
2.20098e-07
8.24993e-09
2.20152e-07
7.87343e-09
2.20177e-07
7.61153e-09
2.20219e-07
7.44627e-09
2.20285e-07
7.48617e-09
2.2034e-07
7.53384e-09
2.2037e-07
7.60527e-09
2.20381e-07
7.5591e-09
2.20396e-07
7.58768e-09
2.20416e-07
7.57334e-09
2.20448e-07
7.67906e-09
2.2048e-07
7.72807e-09
2.20515e-07
7.8982e-09
2.20539e-07
7.93318e-09
2.20565e-07
8.09634e-09
2.20575e-07
8.1077e-09
2.20597e-07
8.29788e-09
2.20603e-07
8.36129e-09
2.20631e-07
8.6326e-09
2.20637e-07
8.72822e-09
2.20664e-07
9.05008e-09
2.20653e-07
9.07849e-09
2.20678e-07
9.44351e-09
2.20662e-07
9.64666e-09
2.20677e-07
1.00306e-08
1.03079e-08
2.35104e-07
5.18022e-09
-2.3491e-07
2.35362e-07
5.83876e-09
2.3569e-07
6.46892e-09
2.36086e-07
7.08028e-09
2.3654e-07
7.61959e-09
2.37001e-07
8.06934e-09
2.37424e-07
8.32327e-09
2.37772e-07
8.42056e-09
2.38021e-07
8.3052e-09
2.38181e-07
8.09007e-09
2.38262e-07
7.79208e-09
2.38305e-07
7.56877e-09
2.38348e-07
7.40359e-09
2.38418e-07
7.41602e-09
2.38487e-07
7.46513e-09
2.38535e-07
7.55718e-09
2.38556e-07
7.5375e-09
2.38577e-07
7.5673e-09
2.38598e-07
7.55245e-09
2.38632e-07
7.64422e-09
2.38668e-07
7.69223e-09
2.38711e-07
7.85583e-09
2.3874e-07
7.90415e-09
2.38772e-07
8.06429e-09
2.38785e-07
8.09418e-09
2.38811e-07
8.27253e-09
2.38818e-07
8.35348e-09
2.38848e-07
8.60254e-09
2.38855e-07
8.72147e-09
2.38886e-07
9.01968e-09
2.38876e-07
9.08759e-09
2.38901e-07
9.41913e-09
2.38891e-07
9.65624e-09
2.38906e-07
1.00156e-08
1.03254e-08
2.54681e-07
4.97652e-09
-2.54477e-07
2.54944e-07
5.57548e-09
2.55266e-07
6.14711e-09
2.55645e-07
6.70123e-09
2.56071e-07
7.19365e-09
2.56514e-07
7.62709e-09
2.56932e-07
7.90462e-09
2.57293e-07
8.06002e-09
2.57563e-07
8.03439e-09
2.57747e-07
7.90672e-09
2.57855e-07
7.68389e-09
2.5792e-07
7.50389e-09
2.5797e-07
7.35366e-09
2.58042e-07
7.34432e-09
2.58121e-07
7.3858e-09
2.58187e-07
7.49146e-09
2.58223e-07
7.50123e-09
2.58251e-07
7.53885e-09
2.58275e-07
7.52898e-09
2.58311e-07
7.60764e-09
2.5835e-07
7.65376e-09
2.58399e-07
7.80713e-09
2.58434e-07
7.86913e-09
2.58473e-07
8.025e-09
2.58492e-07
8.07545e-09
2.58521e-07
8.2427e-09
2.58532e-07
8.34267e-09
2.58564e-07
8.57102e-09
2.58572e-07
8.71337e-09
2.58603e-07
8.98819e-09
2.58597e-07
9.09393e-09
2.5862e-07
9.39632e-09
2.58616e-07
9.66008e-09
2.5863e-07
1.00017e-08
1.03383e-08
2.75874e-07
4.76629e-09
-2.75663e-07
2.76138e-07
5.31072e-09
2.76453e-07
5.83232e-09
2.76817e-07
6.33695e-09
2.77219e-07
6.79168e-09
2.77641e-07
7.20506e-09
2.7805e-07
7.49597e-09
2.78417e-07
7.69265e-09
2.78709e-07
7.74263e-09
2.78918e-07
7.69791e-09
2.79052e-07
7.54944e-09
2.79141e-07
7.4153e-09
2.79204e-07
7.29019e-09
2.79279e-07
7.27005e-09
2.79365e-07
7.29933e-09
2.79447e-07
7.40975e-09
2.79501e-07
7.44754e-09
2.79541e-07
7.49872e-09
2.7957e-07
7.49981e-09
2.79609e-07
7.56857e-09
2.79649e-07
7.6132e-09
2.79703e-07
7.75319e-09
2.79745e-07
7.82751e-09
2.79792e-07
7.97848e-09
2.79817e-07
8.04994e-09
2.79852e-07
8.2081e-09
2.79867e-07
8.32744e-09
2.799e-07
8.53799e-09
2.79911e-07
8.70271e-09
2.79942e-07
8.95655e-09
2.7994e-07
9.09611e-09
2.79961e-07
9.37504e-09
2.79963e-07
9.65811e-09
2.79976e-07
9.98883e-09
1.03472e-08
2.98814e-07
4.55235e-09
-2.986e-07
2.99077e-07
5.04768e-09
2.99384e-07
5.52526e-09
2.99734e-07
5.98691e-09
3.00116e-07
6.40921e-09
3.00519e-07
6.80239e-09
3.00915e-07
7.10029e-09
3.01283e-07
7.32493e-09
3.01591e-07
7.43444e-09
3.01826e-07
7.46293e-09
3.01987e-07
7.38806e-09
3.02099e-07
7.30304e-09
3.02181e-07
7.20819e-09
3.02262e-07
7.18924e-09
3.02353e-07
7.20842e-09
3.02449e-07
7.31427e-09
3.0252e-07
7.37599e-09
3.02576e-07
7.44302e-09
3.02614e-07
7.4612e-09
3.02658e-07
7.52477e-09
3.02702e-07
7.56971e-09
3.0276e-07
7.69533e-09
3.02808e-07
7.77903e-09
3.02861e-07
7.92528e-09
3.02894e-07
8.01674e-09
3.02934e-07
8.16872e-09
3.02955e-07
8.30669e-09
3.02989e-07
8.50326e-09
3.03004e-07
8.68796e-09
3.03036e-07
8.92496e-09
3.03039e-07
9.09262e-09
3.0306e-07
9.35457e-09
3.03068e-07
9.65026e-09
3.0308e-07
9.97653e-09
1.03522e-08
3.23645e-07
4.337e-09
-3.2343e-07
3.23905e-07
4.78788e-09
3.24204e-07
5.22573e-09
3.24541e-07
5.65014e-09
3.24906e-07
6.04376e-09
3.25292e-07
6.41721e-09
3.25673e-07
6.7186e-09
3.26037e-07
6.96156e-09
3.26355e-07
7.11591e-09
3.26614e-07
7.20426e-09
3.26803e-07
7.19911e-09
3.2694e-07
7.16595e-09
3.27043e-07
7.10515e-09
3.27135e-07
7.09681e-09
3.27231e-07
7.11304e-09
3.27337e-07
7.20787e-09
3.27426e-07
7.2876e-09
3.27499e-07
7.3695e-09
3.27551e-07
7.40921e-09
3.27603e-07
7.47335e-09
3.27651e-07
7.52121e-09
3.27712e-07
7.63424e-09
3.27767e-07
7.72391e-09
3.27827e-07
7.86575e-09
3.27868e-07
7.97523e-09
3.27913e-07
8.12442e-09
3.2794e-07
8.27946e-09
3.27976e-07
8.46666e-09
3.27997e-07
8.66765e-09
3.28029e-07
8.89301e-09
3.28039e-07
9.08238e-09
3.2806e-07
9.33358e-09
3.28073e-07
9.63677e-09
3.28086e-07
9.96398e-09
1.03536e-08
3.50526e-07
4.12155e-09
-3.50311e-07
3.50782e-07
4.53156e-09
3.51074e-07
4.93393e-09
3.51399e-07
5.32581e-09
3.51748e-07
5.69461e-09
3.52117e-07
6.04813e-09
3.52485e-07
6.3505e-09
3.52841e-07
6.60528e-09
3.53165e-07
6.79229e-09
3.53442e-07
6.92696e-09
3.53658e-07
6.9832e-09
3.53822e-07
7.00205e-09
3.53947e-07
6.9804e-09
3.54055e-07
6.98813e-09
3.54158e-07
7.01009e-09
3.54272e-07
7.09381e-09
3.54376e-07
7.18365e-09
3.54467e-07
7.27831e-09
3.54536e-07
7.34024e-09
3.54598e-07
7.41148e-09
3.54654e-07
7.46499e-09
3.54719e-07
7.56934e-09
3.54781e-07
7.66275e-09
3.54846e-07
7.80024e-09
3.54896e-07
7.92485e-09
3.54946e-07
8.07492e-09
3.54981e-07
8.24469e-09
3.5502e-07
8.42771e-09
3.55046e-07
8.64084e-09
3.5508e-07
8.85964e-09
3.55097e-07
9.06524e-09
3.5512e-07
9.31048e-09
3.55139e-07
9.61793e-09
3.55153e-07
9.95035e-09
1.03514e-08
3.79632e-07
3.90763e-09
-3.79418e-07
3.79883e-07
4.28022e-09
3.80166e-07
4.65121e-09
3.80478e-07
5.01393e-09
3.80812e-07
5.36085e-09
3.81165e-07
5.69453e-09
3.81521e-07
5.99466e-09
3.81869e-07
6.2571e-09
3.82195e-07
6.46698e-09
3.82485e-07
6.63664e-09
3.82725e-07
6.74296e-09
3.82916e-07
6.81093e-09
3.83064e-07
6.83248e-09
3.83192e-07
6.86021e-09
3.83307e-07
6.89497e-09
3.83428e-07
6.97305e-09
3.83546e-07
7.06609e-09
3.83653e-07
7.17045e-09
3.83741e-07
7.25239e-09
3.83817e-07
7.33628e-09
3.83883e-07
7.39842e-09
3.83954e-07
7.49886e-09
3.84021e-07
7.59554e-09
3.84092e-07
7.72935e-09
3.84151e-07
7.86507e-09
3.84207e-07
8.01965e-09
3.8425e-07
8.20155e-09
3.84292e-07
8.38521e-09
3.84326e-07
8.60738e-09
3.84362e-07
8.82318e-09
3.84386e-07
9.04129e-09
3.84413e-07
9.28398e-09
3.84437e-07
9.59386e-09
3.84452e-07
9.93485e-09
1.03456e-08
4.11146e-07
3.69745e-09
-4.10936e-07
4.11391e-07
4.03584e-09
4.11664e-07
4.37823e-09
4.11964e-07
4.71402e-09
4.12284e-07
5.04035e-09
4.12623e-07
5.35558e-09
4.12968e-07
5.64967e-09
4.13308e-07
5.91675e-09
4.13633e-07
6.14223e-09
4.13932e-07
6.33778e-09
4.14192e-07
6.48294e-09
4.14409e-07
6.59416e-09
4.14583e-07
6.65856e-09
4.14731e-07
6.71199e-09
4.14862e-07
6.76359e-09
4.14992e-07
6.84313e-09
4.15121e-07
6.93752e-09
4.15244e-07
7.04717e-09
4.15351e-07
7.1459e-09
4.15442e-07
7.24516e-09
4.15521e-07
7.31905e-09
4.156e-07
7.42035e-09
4.15674e-07
7.521e-09
4.1575e-07
7.65351e-09
4.15819e-07
7.79588e-09
4.15881e-07
7.95747e-09
4.15933e-07
8.14969e-09
4.15981e-07
8.33726e-09
4.16021e-07
8.56726e-09
4.16062e-07
8.78211e-09
4.16093e-07
9.0103e-09
4.16124e-07
9.2532e-09
4.16154e-07
9.5643e-09
4.16172e-07
9.91649e-09
1.03362e-08
4.45267e-07
3.49191e-09
-4.45062e-07
4.45504e-07
3.79906e-09
4.45768e-07
4.11425e-09
4.46057e-07
4.42517e-09
4.46366e-07
4.73147e-09
4.46691e-07
5.03025e-09
4.47025e-07
5.31534e-09
4.47358e-07
5.58398e-09
4.47681e-07
5.81988e-09
4.47985e-07
6.03357e-09
4.48259e-07
6.20827e-09
4.48499e-07
6.35425e-09
4.48699e-07
6.45849e-09
4.4887e-07
6.54145e-09
4.4902e-07
6.61319e-09
4.49164e-07
6.69996e-09
4.49303e-07
6.79853e-09
4.4944e-07
6.91016e-09
4.49564e-07
7.02128e-09
4.49673e-07
7.13669e-09
4.49767e-07
7.22446e-09
4.49856e-07
7.33129e-09
4.4994e-07
7.43739e-09
4.50021e-07
7.57195e-09
4.50099e-07
7.71795e-09
4.5017e-07
7.88692e-09
4.50231e-07
8.08886e-09
4.50286e-07
8.28211e-09
4.50333e-07
8.51973e-09
4.5038e-07
8.73516e-09
4.50419e-07
8.97144e-09
4.50455e-07
9.21733e-09
4.5049e-07
9.52927e-09
4.50513e-07
9.8941e-09
1.03226e-08
4.82211e-07
3.29067e-09
-4.8201e-07
4.82441e-07
3.56951e-09
4.82696e-07
3.85859e-09
4.82975e-07
4.14688e-09
4.83273e-07
4.43356e-09
4.83586e-07
4.71728e-09
4.83909e-07
4.99174e-09
4.84235e-07
5.25823e-09
4.84554e-07
5.50048e-09
4.84862e-07
5.72582e-09
4.85148e-07
5.92262e-09
4.85407e-07
6.09478e-09
4.85632e-07
6.23407e-09
4.85827e-07
6.34611e-09
4.85998e-07
6.44247e-09
4.86157e-07
6.54044e-09
4.86309e-07
6.64686e-09
4.86457e-07
6.76175e-09
4.86599e-07
6.87947e-09
4.86725e-07
7.01055e-09
4.86837e-07
7.11314e-09
4.86939e-07
7.22892e-09
4.87034e-07
7.34268e-09
4.87123e-07
7.48235e-09
4.87209e-07
7.63189e-09
4.87289e-07
7.80725e-09
4.87359e-07
8.01845e-09
4.87423e-07
8.21856e-09
4.87479e-07
8.46337e-09
4.87533e-07
8.68106e-09
4.87581e-07
8.92407e-09
4.87623e-07
9.17495e-09
4.87663e-07
9.48898e-09
4.87691e-07
9.86673e-09
1.03035e-08
5.22214e-07
3.09337e-09
-5.22016e-07
5.22436e-07
3.34678e-09
5.22684e-07
3.6114e-09
5.22952e-07
3.8787e-09
5.23239e-07
4.14647e-09
5.23541e-07
4.41523e-09
5.23854e-07
4.67853e-09
5.24173e-07
4.93905e-09
5.2449e-07
5.18417e-09
5.24799e-07
5.41595e-09
5.25093e-07
5.62862e-09
5.25368e-07
5.81985e-09
5.25615e-07
5.98759e-09
5.25834e-07
6.12684e-09
5.26028e-07
6.24873e-09
5.26205e-07
6.36282e-09
5.26373e-07
6.47917e-09
5.26533e-07
6.60164e-09
5.26691e-07
6.72222e-09
5.26835e-07
6.86618e-09
5.26963e-07
6.98501e-09
5.27081e-07
7.1108e-09
5.27189e-07
7.235e-09
5.27289e-07
7.38253e-09
5.27384e-07
7.53701e-09
5.27472e-07
7.71836e-09
5.27554e-07
7.93721e-09
5.27627e-07
8.14551e-09
5.27693e-07
8.3971e-09
5.27756e-07
8.61803e-09
5.27812e-07
8.8679e-09
5.27863e-07
9.12442e-09
5.27909e-07
9.44297e-09
5.27942e-07
9.8336e-09
1.02779e-08
5.65525e-07
2.89988e-09
-5.65332e-07
5.65742e-07
3.13058e-09
5.6598e-07
3.37273e-09
5.66239e-07
3.61974e-09
5.66516e-07
3.86962e-09
5.66809e-07
4.12256e-09
5.67113e-07
4.37459e-09
5.67426e-07
4.62605e-09
5.67739e-07
4.87087e-09
5.6805e-07
5.10486e-09
5.68351e-07
5.32811e-09
5.68638e-07
5.53292e-09
5.68903e-07
5.7221e-09
5.69144e-07
5.8855e-09
5.69362e-07
6.03085e-09
5.6956e-07
6.16483e-09
5.69746e-07
6.2933e-09
5.69921e-07
6.42711e-09
5.70091e-07
6.5515e-09
5.70254e-07
6.70334e-09
5.704e-07
6.83966e-09
5.70534e-07
6.9759e-09
5.70658e-07
7.11174e-09
5.7077e-07
7.27064e-09
5.70875e-07
7.4313e-09
5.70974e-07
7.62012e-09
5.71066e-07
7.84499e-09
5.7115e-07
8.06153e-09
5.71227e-07
8.32026e-09
5.71301e-07
8.54371e-09
5.71367e-07
8.80193e-09
5.71427e-07
9.06477e-09
5.71479e-07
9.39021e-09
5.71519e-07
9.79375e-09
1.02449e-08
6.12413e-07
2.7102e-09
-6.12223e-07
6.12623e-07
2.91989e-09
6.12855e-07
3.14138e-09
6.13106e-07
3.36851e-09
6.13374e-07
3.60135e-09
6.13659e-07
3.8379e-09
6.13955e-07
4.07805e-09
6.14263e-07
4.31884e-09
6.14573e-07
4.56002e-09
6.14885e-07
4.79337e-09
6.15191e-07
5.02221e-09
6.15487e-07
5.23663e-09
6.15769e-07
5.44034e-09
6.1603e-07
5.62414e-09
6.16271e-07
5.78996e-09
6.16492e-07
5.94433e-09
6.16697e-07
6.08786e-09
6.16889e-07
6.23489e-09
6.17074e-07
6.36715e-09
6.17254e-07
6.52327e-09
6.17418e-07
6.67557e-09
6.17569e-07
6.8248e-09
6.1771e-07
6.97113e-09
6.17836e-07
7.14431e-09
6.17954e-07
7.3131e-09
6.18064e-07
7.51042e-09
6.18167e-07
7.74175e-09
6.18264e-07
7.96456e-09
6.18352e-07
8.23212e-09
6.18439e-07
8.4569e-09
6.18516e-07
8.72517e-09
6.18585e-07
8.99514e-09
6.18647e-07
9.329e-09
6.18694e-07
9.74584e-09
1.02032e-08
6.63165e-07
2.52362e-09
-6.62978e-07
6.63372e-07
2.71268e-09
6.63598e-07
2.91517e-09
6.63843e-07
3.12354e-09
6.64104e-07
3.33986e-09
6.64382e-07
3.56037e-09
6.64672e-07
3.78757e-09
6.64974e-07
4.01717e-09
6.65283e-07
4.25136e-09
6.65594e-07
4.48204e-09
6.65905e-07
4.71152e-09
6.66209e-07
4.93253e-09
6.66504e-07
5.14501e-09
6.66783e-07
5.34524e-09
6.67045e-07
5.52778e-09
6.67288e-07
5.70136e-09
6.67515e-07
5.86068e-09
6.67729e-07
6.02179e-09
6.67929e-07
6.16719e-09
6.68125e-07
6.32703e-09
6.68308e-07
6.49197e-09
6.68476e-07
6.65671e-09
6.68634e-07
6.81337e-09
6.68778e-07
7.00013e-09
6.6891e-07
7.18178e-09
6.69033e-07
7.38686e-09
6.69148e-07
7.62698e-09
6.69259e-07
7.8535e-09
6.6936e-07
8.13081e-09
6.69461e-07
8.35661e-09
6.6955e-07
8.63545e-09
6.6963e-07
8.91513e-09
6.69702e-07
9.25772e-09
6.69758e-07
9.68918e-09
1.015e-08
7.18094e-07
2.33739e-09
-7.17908e-07
7.18299e-07
2.50711e-09
7.18522e-07
2.69237e-09
7.18762e-07
2.88367e-09
7.19019e-07
3.08318e-09
7.19291e-07
3.28826e-09
7.19577e-07
3.50133e-09
7.19875e-07
3.71953e-09
7.20182e-07
3.94393e-09
7.20494e-07
4.17014e-09
7.20809e-07
4.39646e-09
7.2112e-07
4.62133e-09
7.21427e-07
4.83861e-09
7.21721e-07
5.05081e-09
7.22002e-07
5.24679e-09
7.22267e-07
5.43653e-09
7.22516e-07
5.61184e-09
7.22752e-07
5.78568e-09
7.2297e-07
5.94904e-09
7.23182e-07
6.11484e-09
7.23385e-07
6.28939e-09
7.23572e-07
6.47012e-09
7.23746e-07
6.63879e-09
7.23909e-07
6.83685e-09
7.24057e-07
7.03447e-09
7.24195e-07
7.24863e-09
7.24325e-07
7.49712e-09
7.24449e-07
7.729e-09
7.24567e-07
8.01312e-09
7.2468e-07
8.24403e-09
7.24785e-07
8.53035e-09
7.24874e-07
8.82544e-09
7.24959e-07
9.17339e-09
7.25027e-07
9.62106e-09
1.00848e-08
7.77544e-07
2.14751e-09
-7.77354e-07
7.77747e-07
2.30383e-09
7.77967e-07
2.47268e-09
7.78203e-07
2.64714e-09
7.78458e-07
2.82851e-09
7.78728e-07
3.01823e-09
7.79012e-07
3.21696e-09
7.79308e-07
3.42422e-09
7.79614e-07
3.63729e-09
7.79927e-07
3.85722e-09
7.80245e-07
4.07835e-09
7.80563e-07
4.3036e-09
7.80879e-07
4.523e-09
7.81188e-07
4.74186e-09
7.81486e-07
4.94883e-09
7.81771e-07
5.15076e-09
7.82042e-07
5.3417e-09
7.823e-07
5.52721e-09
7.8254e-07
5.70944e-09
7.82769e-07
5.88531e-09
7.8299e-07
6.06852e-09
7.83196e-07
6.26453e-09
7.83388e-07
6.44668e-09
7.83569e-07
6.65567e-09
7.83735e-07
6.86839e-09
7.83889e-07
7.0948e-09
7.84036e-07
7.34998e-09
7.84176e-07
7.58941e-09
7.84311e-07
7.8777e-09
7.84437e-07
8.11789e-09
7.84558e-07
8.40929e-09
7.84659e-07
8.72471e-09
7.84755e-07
9.07762e-09
7.84843e-07
9.53319e-09
1.00113e-08
8.41879e-07
1.97074e-09
-8.41702e-07
8.42064e-07
2.11816e-09
8.42277e-07
2.26012e-09
8.42514e-07
2.40954e-09
8.42774e-07
2.56926e-09
8.43051e-07
2.74041e-09
8.43345e-07
2.92333e-09
8.43651e-07
3.11862e-09
8.43964e-07
3.32415e-09
8.44282e-07
3.53945e-09
8.44602e-07
3.75847e-09
8.44923e-07
3.98211e-09
8.45242e-07
4.20392e-09
8.45559e-07
4.42466e-09
8.45868e-07
4.63995e-09
8.46171e-07
4.84766e-09
8.46461e-07
5.05228e-09
8.4674e-07
5.24756e-09
8.47003e-07
5.44651e-09
8.47255e-07
5.63383e-09
8.47494e-07
5.82914e-09
8.47721e-07
6.0379e-09
8.4793e-07
6.23732e-09
8.4813e-07
6.45564e-09
8.48313e-07
6.68523e-09
8.48486e-07
6.92172e-09
8.48649e-07
7.18745e-09
8.48807e-07
7.431e-09
8.48957e-07
7.72774e-09
8.49101e-07
7.97382e-09
8.49235e-07
8.2756e-09
8.49355e-07
8.60479e-09
8.49465e-07
8.96804e-09
8.49554e-07
9.44381e-09
9.89956e-09
3.2766e-06
1.2873e-09
-3.27592e-06
3.27735e-06
1.37028e-09
3.27813e-06
1.47542e-09
3.27895e-06
1.59089e-09
3.2798e-06
1.71851e-09
3.28068e-06
1.85698e-09
3.2816e-06
2.00759e-09
3.28255e-06
2.16826e-09
3.28353e-06
2.33984e-09
3.28456e-06
2.51846e-09
3.28561e-06
2.7051e-09
3.2867e-06
2.89422e-09
3.28781e-06
3.0919e-09
3.28894e-06
3.29204e-09
3.29008e-06
3.50576e-09
3.2912e-06
3.71974e-09
3.29231e-06
3.95072e-09
3.29337e-06
4.18e-09
3.29438e-06
4.4408e-09
3.29533e-06
4.68373e-09
3.29623e-06
4.9308e-09
3.29709e-06
5.17253e-09
3.2979e-06
5.42502e-09
3.29869e-06
5.6694e-09
3.29943e-06
5.9418e-09
3.30016e-06
6.19289e-09
3.30085e-06
6.49989e-09
3.30152e-06
6.75781e-09
3.30215e-06
7.1018e-09
3.30274e-06
7.38355e-09
3.30328e-06
7.73801e-09
3.30378e-06
8.10053e-09
3.30424e-06
8.50967e-09
3.30471e-06
8.97029e-09
9.40837e-09
3.54021e-06
1.34146e-10
-3.53906e-06
3.54143e-06
1.48652e-10
3.54265e-06
2.53193e-10
3.54384e-06
4.04893e-10
3.54497e-06
5.84306e-10
3.54605e-06
7.77277e-10
3.54709e-06
9.69658e-10
3.5481e-06
1.15808e-09
3.5491e-06
1.34041e-09
3.55007e-06
1.54524e-09
3.55106e-06
1.72265e-09
3.55207e-06
1.87744e-09
3.55315e-06
2.01157e-09
3.55427e-06
2.1749e-09
3.5554e-06
2.38066e-09
3.5565e-06
2.61097e-09
3.55758e-06
2.87157e-09
3.55862e-06
3.14281e-09
3.55963e-06
3.4342e-09
3.56059e-06
3.72057e-09
3.56151e-06
4.0161e-09
3.56238e-06
4.2967e-09
3.56322e-06
4.58384e-09
3.56404e-06
4.84962e-09
3.56485e-06
5.13804e-09
3.56563e-06
5.40577e-09
3.56639e-06
5.73849e-09
3.56712e-06
6.03543e-09
3.56779e-06
6.42437e-09
3.56842e-06
6.75763e-09
3.56901e-06
7.14801e-09
3.56959e-06
7.5247e-09
3.57016e-06
7.93653e-09
3.57074e-06
8.38863e-09
8.98376e-09
3.82961e-06
-1.10153e-09
-3.82838e-06
3.83063e-06
-8.66021e-10
3.83155e-06
-6.7497e-10
3.83241e-06
-4.54866e-10
3.83323e-06
-2.34414e-10
3.83405e-06
-4.39192e-11
3.83481e-06
2.16708e-10
3.83556e-06
4.01147e-10
3.83638e-06
5.23993e-10
3.83731e-06
6.13732e-10
3.83833e-06
7.02499e-10
3.83938e-06
8.28442e-10
3.8404e-06
9.94722e-10
3.84138e-06
1.19417e-09
3.84232e-06
1.43599e-09
3.84323e-06
1.70372e-09
3.84409e-06
2.00633e-09
3.84493e-06
2.31069e-09
3.84573e-06
2.6328e-09
3.84652e-06
2.93312e-09
3.84729e-06
3.2396e-09
3.84808e-06
3.51318e-09
3.84886e-06
3.79527e-09
3.84966e-06
4.05415e-09
3.85044e-06
4.35311e-09
3.85121e-06
4.63939e-09
3.85194e-06
5.00637e-09
3.85264e-06
5.33711e-09
3.8533e-06
5.77063e-09
3.85393e-06
6.12428e-09
3.85454e-06
6.53833e-09
3.85517e-06
6.89695e-09
3.8558e-06
7.30471e-09
3.85648e-06
7.71164e-09
8.14539e-09
4.15302e-06
-3.78924e-10
-4.15375e-06
4.1526e-06
-4.43419e-10
4.15228e-06
-3.58981e-10
4.15203e-06
-2.00301e-10
4.15179e-06
4.03925e-12
4.15161e-06
1.33122e-10
4.15157e-06
2.64308e-10
4.15158e-06
3.92151e-10
4.15159e-06
5.12391e-10
4.15155e-06
6.52492e-10
4.15149e-06
7.64561e-10
4.15145e-06
8.66055e-10
4.15149e-06
9.5173e-10
4.15162e-06
1.07074e-09
4.15182e-06
1.2288e-09
4.15211e-06
1.41162e-09
4.15249e-06
1.62841e-09
4.15295e-06
1.85822e-09
4.15346e-06
2.11578e-09
4.15402e-06
2.37079e-09
4.15462e-06
2.6453e-09
4.15522e-06
2.90729e-09
4.15584e-06
3.18409e-09
4.15645e-06
3.44011e-09
4.15708e-06
3.72175e-09
4.15774e-06
3.98174e-09
4.15843e-06
4.31409e-09
4.15916e-06
4.61037e-09
4.15991e-06
5.01725e-09
4.16068e-06
5.35211e-09
4.16146e-06
5.76539e-09
4.16224e-06
6.11446e-09
4.16303e-06
6.51631e-09
4.16383e-06
6.9093e-09
7.46958e-09
4.49114e-06
3.34673e-10
-4.49185e-06
4.49034e-06
3.54361e-10
4.4896e-06
3.81892e-10
4.48898e-06
4.15282e-10
4.48853e-06
4.54334e-10
4.48817e-06
4.99802e-10
4.48788e-06
5.50896e-10
4.48766e-06
6.08672e-10
4.4875e-06
6.72671e-10
4.48741e-06
7.43679e-10
4.48735e-06
8.22373e-10
4.48731e-06
9.08255e-10
4.48726e-06
1.0053e-09
4.48722e-06
1.11036e-09
4.48721e-06
1.23241e-09
4.48726e-06
1.36174e-09
4.48738e-06
1.51337e-09
4.48757e-06
1.66925e-09
4.48783e-06
1.85173e-09
4.48817e-06
2.03475e-09
4.48857e-06
2.24609e-09
4.48902e-06
2.45653e-09
4.48949e-06
2.70829e-09
4.49e-06
2.93472e-09
4.49053e-06
3.19314e-09
4.49109e-06
3.42322e-09
4.49168e-06
3.72053e-09
4.49232e-06
3.97425e-09
4.49299e-06
4.34214e-09
4.49371e-06
4.62882e-09
4.49447e-06
5.00507e-09
4.49526e-06
5.32948e-09