# vtk DataFile Version 2.0
top
ASCII
DATASET POLYDATA
POINTS 482 float
0 0.06 0 0 0.06 0.001 0.0005 0.06 0.001 0.0005 0.06
0 0.001 0.06 0.001 0.001 0.06 0 0.0015 0.06 0.001
0.0015 0.06 0 0.002 0.06 0.001 0.002 0.06 0 0.0025
0.06 0.001 0.0025 0.06 0 0.003 0.06 0.001 0.003 0.06
0 0.0035 0.06 0.001 0.0035 0.06 0 0.004 0.06 0.001
0.004 0.06 0 0.0045 0.06 0.001 0.0045 0.06 0 0.005
0.06 0.001 0.005 0.06 0 0.0055 0.06 0.001 0.0055 0.06
0 0.006 0.06 0.001 0.006 0.06 0 0.0065 0.06 0.001
0.0065 0.06 0 0.007 0.06 0.001 0.007 0.06 0 0.0075
0.06 0.001 0.0075 0.06 0 0.008 0.06 0.001 0.008 0.06
0 0.0085 0.06 0.001 0.0085 0.06 0 0.009 0.06 0.001
0.009 0.06 0 0.0095 0.06 0.001 0.0095 0.06 0 0.01
0.06 0.001 0.01 0.06 0 0.0105 0.06 0.001 0.0105 0.06
0 0.011 0.06 0.001 0.011 0.06 0 0.0115 0.06 0.001
0.0115 0.06 0 0.012 0.06 0.001 0.012 0.06 0 0.0125
0.06 0.001 0.0125 0.06 0 0.013 0.06 0.001 0.013 0.06
0 0.0135 0.06 0.001 0.0135 0.06 0 0.014 0.06 0.001
0.014 0.06 0 0.0145 0.06 0.001 0.0145 0.06 0 0.015
0.06 0.001 0.015 0.06 0 0.0155 0.06 0.001 0.0155 0.06
0 0.016 0.06 0.001 0.016 0.06 0 0.0165 0.06 0.001
0.0165 0.06 0 0.017 0.06 0.001 0.017 0.06 0 0.0175
0.06 0.001 0.0175 0.06 0 0.018 0.06 0.001 0.018 0.06
0 0.0185 0.06 0.001 0.0185 0.06 0 0.019 0.06 0.001
0.019 0.06 0 0.0195 0.06 0.001 0.0195 0.06 0 0.02
0.06 0.001 0.02 0.06 0 0.0205 0.06 0.001 0.0205 0.06
0 0.021 0.06 0.001 0.021 0.06 0 0.0215 0.06 0.001
0.0215 0.06 0 0.022 0.06 0.001 0.022 0.06 0 0.0225
0.06 0.001 0.0225 0.06 0 0.023 0.06 0.001 0.023 0.06
0 0.0235 0.06 0.001 0.0235 0.06 0 0.024 0.06 0.001
0.024 0.06 0 0.0245 0.06 0.001 0.0245 0.06 0 0.025
0.06 0.001 0.025 0.06 0 0.0255 0.06 0.001 0.0255 0.06
0 0.026 0.06 0.001 0.026 0.06 0 0.0265 0.06 0.001
0.0265 0.06 0 0.027 0.06 0.001 0.027 0.06 0 0.0275
0.06 0.001 0.0275 0.06 0 0.028 0.06 0.001 0.028 0.06
0 0.0285 0.06 0.001 0.0285 0.06 0 0.029 0.06 0.001
0.029 0.06 0 0.0295 0.06 0.001 0.0295 0.06 0 0.03
0.06 0.001 0.03 0.06 0 0.0305 0.06 0.001 0.0305 0.06
0 0.031 0.06 0.001 0.031 0.06 0 0.0315 0.06 0.001
0.0315 0.06 0 0.032 0.06 0.001 0.032 0.06 0 0.0325
0.06 0.001 0.0325 0.06 0 0.033 0.06 0.001 0.033 0.06
0 0.0335 0.06 0.001 0.0335 0.06 0 0.034 0.06 0.001
0.034 0.06 0 0.0345 0.06 0.001 0.0345 0.06 0 0.035
0.06 0.001 0.035 0.06 0 0.0355 0.06 0.001 0.0355 0.06
0 0.036 0.06 0.001 0.036 0.06 0 0.0365 0.06 0.001
0.0365 0.06 0 0.037 0.06 0.001 0.037 0.06 0 0.0375
0.06 0.001 0.0375 0.06 0 0.038 0.06 0.001 0.038 0.06
0 0.0385 0.06 0.001 0.0385 0.06 0 0.039 0.06 0.001
0.039 0.06 0 0.0395 0.06 0.001 0.0395 0.06 0 0.04
0.06 0.001 0.04 0.06 0 0.0405 0.06 0.001 0.0405 0.06
0 0.041 0.06 0.001 0.041 0.06 0 0.0415 0.06 0.001
0.0415 0.06 0 0.042 0.06 0.001 0.042 0.06 0 0.0425
0.06 0.001 0.0425 0.06 0 0.043 0.06 0.001 0.043 0.06
0 0.0435 0.06 0.001 0.0435 0.06 0 0.044 0.06 0.001
0.044 0.06 0 0.0445 0.06 0.001 0.0445 0.06 0 0.045
0.06 0.001 0.045 0.06 0 0.0455 0.06 0.001 0.0455 0.06
0 0.046 0.06 0.001 0.046 0.06 0 0.0465 0.06 0.001
0.0465 0.06 0 0.047 0.06 0.001 0.047 0.06 0 0.0475
0.06 0.001 0.0475 0.06 0 0.048 0.06 0.001 0.048 0.06
0 0.0485 0.06 0.001 0.0485 0.06 0 0.049 0.06 0.001
0.049 0.06 0 0.0495 0.06 0.001 0.0495 0.06 0 0.05
0.06 0.001 0.05 0.06 0 0.0505 0.06 0.001 0.0505 0.06
0 0.051 0.06 0.001 0.051 0.06 0 0.0515 0.06 0.001
0.0515 0.06 0 0.052 0.06 0.001 0.052 0.06 0 0.0525
0.06 0.001 0.0525 0.06 0 0.053 0.06 0.001 0.053 0.06
0 0.0535 0.06 0.001 0.0535 0.06 0 0.054 0.06 0.001
0.054 0.06 0 0.0545 0.06 0.001 0.0545 0.06 0 0.055
0.06 0.001 0.055 0.06 0 0.0555 0.06 0.001 0.0555 0.06
0 0.056 0.06 0.001 0.056 0.06 0 0.0565 0.06 0.001
0.0565 0.06 0 0.057 0.06 0.001 0.057 0.06 0 0.0575
0.06 0.001 0.0575 0.06 0 0.058 0.06 0.001 0.058 0.06
0 0.0585 0.06 0.001 0.0585 0.06 0 0.059 0.06 0.001
0.059 0.06 0 0.0595 0.06 0.001 0.0595 0.06 0 0.06
0.06 0.001 0.06 0.06 0 0.0605 0.06 0.001 0.0605 0.06
0 0.061 0.06 0.001 0.061 0.06 0 0.0615 0.06 0.001
0.0615 0.06 0 0.062 0.06 0.001 0.062 0.06 0 0.0625
0.06 0.001 0.0625 0.06 0 0.063 0.06 0.001 0.063 0.06
0 0.0635 0.06 0.001 0.0635 0.06 0 0.064 0.06 0.001
0.064 0.06 0 0.0645 0.06 0.001 0.0645 0.06 0 0.065
0.06 0.001 0.065 0.06 0 0.0655 0.06 0.001 0.0655 0.06
0 0.066 0.06 0.001 0.066 0.06 0 0.0665 0.06 0.001
0.0665 0.06 0 0.067 0.06 0.001 0.067 0.06 0 0.0675
0.06 0.001 0.0675 0.06 0 0.068 0.06 0.001 0.068 0.06
0 0.0685 0.06 0.001 0.0685 0.06 0 0.069 0.06 0.001
0.069 0.06 0 0.0695 0.06 0.001 0.0695 0.06 0 0.07
0.06 0.001 0.07 0.06 0 0.0705 0.06 0.001 0.0705 0.06
0 0.071 0.06 0.001 0.071 0.06 0 0.0715 0.06 0.001
0.0715 0.06 0 0.072 0.06 0.001 0.072 0.06 0 0.0725
0.06 0.001 0.0725 0.06 0 0.073 0.06 0.001 0.073 0.06
0 0.0735 0.06 0.001 0.0735 0.06 0 0.074 0.06 0.001
0.074 0.06 0 0.0745 0.06 0.001 0.0745 0.06 0 0.075
0.06 0.001 0.075 0.06 0 0.0755 0.06 0.001 0.0755 0.06
0 0.076 0.06 0.001 0.076 0.06 0 0.0765 0.06 0.001
0.0765 0.06 0 0.077 0.06 0.001 0.077 0.06 0 0.0775
0.06 0.001 0.0775 0.06 0 0.078 0.06 0.001 0.078 0.06
0 0.0785 0.06 0.001 0.0785 0.06 0 0.079 0.06 0.001
0.079 0.06 0 0.0795 0.06 0.001 0.0795 0.06 0 0.08
0.06 0.001 0.08 0.06 0 0.0805 0.06 0.001 0.0805 0.06
0 0.081 0.06 0.001 0.081 0.06 0 0.0815 0.06 0.001
0.0815 0.06 0 0.082 0.06 0.001 0.082 0.06 0 0.0825
0.06 0.001 0.0825 0.06 0 0.083 0.06 0.001 0.083 0.06
0 0.0835 0.06 0.001 0.0835 0.06 0 0.084 0.06 0.001
0.084 0.06 0 0.0845 0.06 0.001 0.0845 0.06 0 0.085
0.06 0.001 0.085 0.06 0 0.0855 0.06 0.001 0.0855 0.06
0 0.086 0.06 0.001 0.086 0.06 0 0.0865 0.06 0.001
0.0865 0.06 0 0.087 0.06 0.001 0.087 0.06 0 0.0875
0.06 0.001 0.0875 0.06 0 0.088 0.06 0.001 0.088 0.06
0 0.0885 0.06 0.001 0.0885 0.06 0 0.089 0.06 0.001
0.089 0.06 0 0.0895 0.06 0.001 0.0895 0.06 0 0.09
0.06 0.001 0.09 0.06 0 0.0905 0.06 0.001 0.0905 0.06
0 0.091 0.06 0.001 0.091 0.06 0 0.0915 0.06 0.001
0.0915 0.06 0 0.092 0.06 0.001 0.092 0.06 0 0.0925
0.06 0.001 0.0925 0.06 0 0.093 0.06 0.001 0.093 0.06
0 0.0935 0.06 0.001 0.0935 0.06 0 0.094 0.06 0.001
0.094 0.06 0 0.0945 0.06 0.001 0.0945 0.06 0 0.095
0.06 0.001 0.095 0.06 0 0.0955 0.06 0.001 0.0955 0.06
0 0.096 0.06 0.001 0.096 0.06 0 0.0965 0.06 0.001
0.0965 0.06 0 0.097 0.06 0.001 0.097 0.06 0 0.0975
0.06 0.001 0.0975 0.06 0 0.098 0.06 0.001 0.098 0.06
0 0.0985 0.06 0.001 0.0985 0.06 0 0.099 0.06 0.001
0.099 0.06 0 0.0995 0.06 0.001 0.0995 0.06 0 0.1
0.06 0.001 0.1 0.06 0 -0.02 0.06 0 -0.02 0.06
0.001 -0.0195 0.06 0.001 -0.0195 0.06 0 -0.019 0.06 0.001
-0.019 0.06 0 -0.0185 0.06 0.001 -0.0185 0.06 0 -0.018
0.06 0.001 -0.018 0.06 0 -0.0175 0.06 0.001 -0.0175 0.06
0 -0.017 0.06 0.001 -0.017 0.06 0 -0.0165 0.06 0.001
-0.0165 0.06 0 -0.016 0.06 0.001 -0.016 0.06 0 -0.0155
0.06 0.001 -0.0155 0.06 0 -0.015 0.06 0.001 -0.015 0.06
0 -0.0145 0.06 0.001 -0.0145 0.06 0 -0.014 0.06 0.001
-0.014 0.06 0 -0.0135 0.06 0.001 -0.0135 0.06 0 -0.013
0.06 0.001 -0.013 0.06 0 -0.0125 0.06 0.001 -0.0125 0.06
0 -0.012 0.06 0.001 -0.012 0.06 0 -0.0115 0.06 0.001
-0.0115 0.06 0 -0.011 0.06 0.001 -0.011 0.06 0 -0.0105
0.06 0.001 -0.0105 0.06 0 -0.01 0.06 0.001 -0.01 0.06
0 -0.0095 0.06 0.001 -0.0095 0.06 0 -0.009 0.06 0.001
-0.009 0.06 0 -0.0085 0.06 0.001 -0.0085 0.06 0 -0.008
0.06 0.001 -0.008 0.06 0 -0.0075 0.06 0.001 -0.0075 0.06
0 -0.007 0.06 0.001 -0.007 0.06 0 -0.0065 0.06 0.001
-0.0065 0.06 0 -0.006 0.06 0.001 -0.006 0.06 0 -0.0055
0.06 0.001 -0.0055 0.06 0 -0.005 0.06 0.001 -0.005 0.06
0 -0.0045 0.06 0.001 -0.0045 0.06 0 -0.004 0.06 0.001
-0.004 0.06 0 -0.0035 0.06 0.001 -0.0035 0.06 0 -0.003
0.06 0.001 -0.003 0.06 0 -0.0025 0.06 0.001 -0.0025 0.06
0 -0.002 0.06 0.001 -0.002 0.06 0 -0.0015 0.06 0.001
-0.0015 0.06 0 -0.001 0.06 0.001 -0.001 0.06 0 -0.0005
0.06 0.001 -0.0005 0.06 0 
POLYGONS 240 1200
4 0 1 2 3 4 3 2 4 5 4
5 4 6 7 4 7 6 8 9 4
9 8 10 11 4 11 10 12 13 4
13 12 14 15 4 15 14 16 17 4
17 16 18 19 4 19 18 20 21 4
21 20 22 23 4 23 22 24 25 4
25 24 26 27 4 27 26 28 29 4
29 28 30 31 4 31 30 32 33 4
33 32 34 35 4 35 34 36 37 4
37 36 38 39 4 39 38 40 41 4
41 40 42 43 4 43 42 44 45 4
45 44 46 47 4 47 46 48 49 4
49 48 50 51 4 51 50 52 53 4
53 52 54 55 4 55 54 56 57 4
57 56 58 59 4 59 58 60 61 4
61 60 62 63 4 63 62 64 65 4
65 64 66 67 4 67 66 68 69 4
69 68 70 71 4 71 70 72 73 4
73 72 74 75 4 75 74 76 77 4
77 76 78 79 4 79 78 80 81 4
81 80 82 83 4 83 82 84 85 4
85 84 86 87 4 87 86 88 89 4
89 88 90 91 4 91 90 92 93 4
93 92 94 95 4 95 94 96 97 4
97 96 98 99 4 99 98 100 101 4
101 100 102 103 4 103 102 104 105 4
105 104 106 107 4 107 106 108 109 4
109 108 110 111 4 111 110 112 113 4
113 112 114 115 4 115 114 116 117 4
117 116 118 119 4 119 118 120 121 4
121 120 122 123 4 123 122 124 125 4
125 124 126 127 4 127 126 128 129 4
129 128 130 131 4 131 130 132 133 4
133 132 134 135 4 135 134 136 137 4
137 136 138 139 4 139 138 140 141 4
141 140 142 143 4 143 142 144 145 4
145 144 146 147 4 147 146 148 149 4
149 148 150 151 4 151 150 152 153 4
153 152 154 155 4 155 154 156 157 4
157 156 158 159 4 159 158 160 161 4
161 160 162 163 4 163 162 164 165 4
165 164 166 167 4 167 166 168 169 4
169 168 170 171 4 171 170 172 173 4
173 172 174 175 4 175 174 176 177 4
177 176 178 179 4 179 178 180 181 4
181 180 182 183 4 183 182 184 185 4
185 184 186 187 4 187 186 188 189 4
189 188 190 191 4 191 190 192 193 4
193 192 194 195 4 195 194 196 197 4
197 196 198 199 4 199 198 200 201 4
201 200 202 203 4 203 202 204 205 4
205 204 206 207 4 207 206 208 209 4
209 208 210 211 4 211 210 212 213 4
213 212 214 215 4 215 214 216 217 4
217 216 218 219 4 219 218 220 221 4
221 220 222 223 4 223 222 224 225 4
225 224 226 227 4 227 226 228 229 4
229 228 230 231 4 231 230 232 233 4
233 232 234 235 4 235 234 236 237 4
237 236 238 239 4 239 238 240 241 4
241 240 242 243 4 243 242 244 245 4
245 244 246 247 4 247 246 248 249 4
249 248 250 251 4 251 250 252 253 4
253 252 254 255 4 255 254 256 257 4
257 256 258 259 4 259 258 260 261 4
261 260 262 263 4 263 262 264 265 4
265 264 266 267 4 267 266 268 269 4
269 268 270 271 4 271 270 272 273 4
273 272 274 275 4 275 274 276 277 4
277 276 278 279 4 279 278 280 281 4
281 280 282 283 4 283 282 284 285 4
285 284 286 287 4 287 286 288 289 4
289 288 290 291 4 291 290 292 293 4
293 292 294 295 4 295 294 296 297 4
297 296 298 299 4 299 298 300 301 4
301 300 302 303 4 303 302 304 305 4
305 304 306 307 4 307 306 308 309 4
309 308 310 311 4 311 310 312 313 4
313 312 314 315 4 315 314 316 317 4
317 316 318 319 4 319 318 320 321 4
321 320 322 323 4 323 322 324 325 4
325 324 326 327 4 327 326 328 329 4
329 328 330 331 4 331 330 332 333 4
333 332 334 335 4 335 334 336 337 4
337 336 338 339 4 339 338 340 341 4
341 340 342 343 4 343 342 344 345 4
345 344 346 347 4 347 346 348 349 4
349 348 350 351 4 351 350 352 353 4
353 352 354 355 4 355 354 356 357 4
357 356 358 359 4 359 358 360 361 4
361 360 362 363 4 363 362 364 365 4
365 364 366 367 4 367 366 368 369 4
369 368 370 371 4 371 370 372 373 4
373 372 374 375 4 375 374 376 377 4
377 376 378 379 4 379 378 380 381 4
381 380 382 383 4 383 382 384 385 4
385 384 386 387 4 387 386 388 389 4
389 388 390 391 4 391 390 392 393 4
393 392 394 395 4 395 394 396 397 4
397 396 398 399 4 399 398 400 401 4
402 403 404 405 4 405 404 406 407 4
407 406 408 409 4 409 408 410 411 4
411 410 412 413 4 413 412 414 415 4
415 414 416 417 4 417 416 418 419 4
419 418 420 421 4 421 420 422 423 4
423 422 424 425 4 425 424 426 427 4
427 426 428 429 4 429 428 430 431 4
431 430 432 433 4 433 432 434 435 4
435 434 436 437 4 437 436 438 439 4
439 438 440 441 4 441 440 442 443 4
443 442 444 445 4 445 444 446 447 4
447 446 448 449 4 449 448 450 451 4
451 450 452 453 4 453 452 454 455 4
455 454 456 457 4 457 456 458 459 4
459 458 460 461 4 461 460 462 463 4
463 462 464 465 4 465 464 466 467 4
467 466 468 469 4 469 468 470 471 4
471 470 472 473 4 473 472 474 475 4
475 474 476 477 4 477 476 478 479 4
479 478 480 481 4 481 480 1 0 
CELL_DATA 240
FIELD attributes 3
patchID 1 240 float
0 0 0 0 0 0 0 0 0 0 0
0 0 0 0 0 0 0 0 0 0
0 0 0 0 0 0 0 0 0 0
0 0 0 0 0 0 0 0 0 0
0 0 0 0 0 0 0 0 0 0
0 0 0 0 0 0 0 0 0 0
0 0 0 0 0 0 0 0 0 0
0 0 0 0 0 0 0 0 0 0
0 0 0 0 0 0 0 0 0 0
0 0 0 0 0 0 0 0 0 0
0 0 0 0 0 0 0 0 0 0
0 0 0 0 0 0 0 0 0 0
0 0 0 0 0 0 0 0 0 0
0 0 0 0 0 0 0 0 0 0
0 0 0 0 0 0 0 0 0 0
0 0 0 0 0 0 0 0 0 0
0 0 0 0 0 0 0 0 0 0
0 0 0 0 0 0 0 0 0 0
0 0 0 0 0 0 0 0 0 0
0 0 0 0 0 0 0 0 0 0
0 0 0 0 0 0 0 0 0 0
0 0 0 0 0 0 0 0 0 0
0 0 0 0 0 0 0 0 0 0
0 0 0 0 0 0 0 0 0 
p 1 240 float
0 0 0 0 0 0 0 0 0 0 0
0 0 0 0 0 0 0 0 0 0
0 0 0 0 0 0 0 0 0 0
0 0 0 0 0 0 0 0 0 0
0 0 0 0 0 0 0 0 0 0
0 0 0 0 0 0 0 0 0 0
0 0 0 0 0 0 0 0 0 0
0 0 0 0 0 0 0 0 0 0
0 0 0 0 0 0 0 0 0 0
0 0 0 0 0 0 0 0 0 0
0 0 0 0 0 0 0 0 0 0
0 0 0 0 0 0 0 0 0 0
0 0 0 0 0 0 0 0 0 0
0 0 0 0 0 0 0 0 0 0
0 0 0 0 0 0 0 0 0 0
0 0 0 0 0 0 0 0 0 0
0 0 0 0 0 0 0 0 0 0
0 0 0 0 0 0 0 0 0 0
0 0 0 0 0 0 0 0 0 0
0 0 0 0 0 0 0 0 0 0
0 0 0 0 0 0 0 0 0 0
0 0 0 0 0 0 0 0 0 0
0 0 0 0 0 0 0 0 0 0
0 0 0 0 0 0 0 0 0 
U 3 240 float
0.5 0 0 0.5 0 0 0.5 0 0 0.5 0
0 0.5 0 0 0.5 0 0 0.5 0 0
0.5 0 0 0.5 0 0 0.5 0 0 0.5
0 0 0.5 0 0 0.5 0 0 0.5 0
0 0.5 0 0 0.5 0 0 0.5 0 0
0.5 0 0 0.5 0 0 0.5 0 0 0.5
0 0 0.5 0 0 0.5 0 0 0.5 0
0 0.5 0 0 0.5 0 0 0.5 0 0
0.5 0 0 0.5 0 0 0.5 0 0 0.5
0 0 0.5 0 0 0.5 0 0 0.5 0
0 0.5 0 0 0.5 0 0 0.5 0 0
0.5 0 0 0.5 0 0 0.5 0 0 0.5
0 0 0.5 0 0 0.5 0 0 0.5 0
0 0.5 0 0 0.5 0 0 0.5 0 0
0.5 0 0 0.5 0 0 0.5 0 0 0.5
0 0 0.5 0 0 0.5 0 0 0.5 0
0 0.5 0 0 0.5 0 0 0.5 0 0
0.5 0 0 0.5 0 0 0.5 0 0 0.5
0 0 0.5 0 0 0.5 0 0 0.5 0
0 0.5 0 0 0.5 0 0 0.5 0 0
0.5 0 0 0.5 0 0 0.5 0 0 0.5
0 0 0.5 0 0 0.5 0 0 0.5 0
0 0.5 0 0 0.5 0 0 0.5 0 0
0.5 0 0 0.5 0 0 0.5 0 0 0.5
0 0 0.5 0 0 0.5 0 0 0.5 0
0 0.5 0 0 0.5 0 0 0.5 0 0
0.5 0 0 0.5 0 0 0.5 0 0 0.5
0 0 0.5 0 0 0.5 0 0 0.5 0
0 0.5 0 0 0.5 0 0 0.5 0 0
0.5 0 0 0.5 0 0 0.5 0 0 0.5
0 0 0.5 0 0 0.5 0 0 0.5 0
0 0.5 0 0 0.5 0 0 0.5 0 0
0.5 0 0 0.5 0 0 0.5 0 0 0.5
0 0 0.5 0 0 0.5 0 0 0.5 0
0 0.5 0 0 0.5 0 0 0.5 0 0
0.5 0 0 0.5 0 0 0.5 0 0 0.5
0 0 0.5 0 0 0.5 0 0 0.5 0
0 0.5 0 0 0.5 0 0 0.5 0 0
0.5 0 0 0.5 0 0 0.5 0 0 0.5
0 0 0.5 0 0 0.5 0 0 0.5 0
0 0.5 0 0 0.5 0 0 0.5 0 0
0.5 0 0 0.5 0 0 0.5 0 0 0.5
0 0 0.5 0 0 0.5 0 0 0.5 0
0 0.5 0 0 0.5 0 0 0.5 0 0
0.5 0 0 0.5 0 0 0.5 0 0 0.5
0 0 0.5 0 0 0.5 0 0 0.5 0
0 0.5 0 0 0.5 0 0 0.5 0 0
0.5 0 0 0.5 0 0 0.5 0 0 0.5
0 0 0.5 0 0 0.5 0 0 0.5 0
0 0.5 0 0 0.5 0 0 0.5 0 0
0.5 0 0 0.5 0 0 0.5 0 0 0.5
0 0 0.5 0 0 0.5 0 0 0.5 0
0 0.5 0 0 0.5 0 0 0.5 0 0
0.5 0 0 0.5 0 0 0.5 0 0 0.5
0 0 0.5 0 0 0.5 0 0 0.5 0
0 0.5 0 0 0.5 0 0 0.5 0 0
0.5 0 0 0.5 0 0 0.5 0 0 0.5
0 0 0.5 0 0 0.5 0 0 0.5 0
0 0.5 0 0 0.5 0 0 0.5 0 0
0.5 0 0 0.5 0 0 0.5 0 0 0.5
0 0 0.5 0 0 0.5 0 0 0.5 0
0 0.5 0 0 0.5 0 0 0.5 0 0
0.5 0 0 0.5 0 0 0.5 0 0 0.5
0 0 0.5 0 0 0.5 0 0 0.5 0
0 0.5 0 0 0.5 0 0 0.5 0 0
0.5 0 0 0.5 0 0 0.5 0 0 0.5
0 0 0.5 0 0 0.5 0 0 0.5 0
0 0.5 0 0 0.5 0 0 0.5 0 0
0.5 0 0 0.5 0 0 0.5 0 0 0.5
0 0 0.5 0 0 0.5 0 0 0.5 0
0 0.5 0 0 0.5 0 0 0.5 0 0
0.5 0 0 0.5 0 0 0.5 0 0 
POINT_DATA  482
FIELD attributes 2
p 1 482 float
0 0 0 0 0 0 0 0 0 0 0
0 0 0 0 0 0 0 0 0 0
0 0 0 0 0 0 0 0 0 0
0 0 0 0 0 0 0 0 0 0
0 0 0 0 0 0 0 0 0 0
0 0 0 0 0 0 0 0 0 0
0 0 0 0 0 0 0 0 0 0
0 0 0 0 0 0 0 0 0 0
0 0 0 0 0 0 0 0 0 0
0 0 0 0 0 0 0 0 0 0
0 0 0 0 0 0 0 0 0 0
0 0 0 0 0 0 0 0 0 0
0 0 0 0 0 0 0 0 0 0
0 0 0 0 0 0 0 0 0 0
0 0 0 0 0 0 0 0 0 0
0 0 0 0 0 0 0 0 0 0
0 0 0 0 0 0 0 0 0 0
0 0 0 0 0 0 0 0 0 0
0 0 0 0 0 0 0 0 0 0
0 0 0 0 0 0 0 0 0 0
0 0 0 0 0 0 0 0 0 0
0 0 0 0 0 0 0 0 0 0
0 0 0 0 0 0 0 0 0 0
0 0 0 0 0 0 0 0 0 0
0 0 0 0 0 0 0 0 0 0
0 0 0 0 0 0 0 0 0 0
0 0 0 0 0 0 0 0 0 0
0 0 0 0 0 0 0 0 0 0
0 0 0 0 0 0 0 0 0 0
0 0 0 0 0 0 0 0 0 0
0 0 0 0 0 0 0 0 0 0
0 0 0 0 0 0 0 0 0 0
0 0 0 0 0 0 0 0 0 0
0 0 0 0 0 0 0 0 0 0
0 0 0 0 0 0 0 0 0 0
0 0 0 0 0 0 0 0 0 0
0 0 0 0 0 0 0 0 0 0
0 0 0 0 0 0 0 0 0 0
0 0 0 0 0 0 0 0 0 0
0 0 0 0 0 0 0 0 0 0
0 0 0 0 0 0 0 0 0 0
0 0 0 0 0 0 0 0 0 0
0 0 0 0 0 0 0 0 0 0
0 0 0 0 0 0 0 0 0 0
0 0 0 0 0 0 0 0 0 0
0 0 0 0 0 0 0 0 0 0
0 0 0 0 0 0 0 0 0 0
0 0 0 0 0 0 0 0 0 0
0 
U 3 482 float
0.5 0 0 0.5 0 0 0.5 0 0 0.5 0
0 0.5 0 0 0.5 0 0 0.5 0 0
0.5 0 0 0.5 0 0 0.5 0 0 0.5
0 0 0.5 0 0 0.5 0 0 0.5 0
0 0.5 0 0 0.5 0 0 0.5 0 0
0.5 0 0 0.5 0 0 0.5 0 0 0.5
0 0 0.5 0 0 0.5 0 0 0.5 0
0 0.5 0 0 0.5 0 0 0.5 0 0
0.5 0 0 0.5 0 0 0.5 0 0 0.5
0 0 0.5 0 0 0.5 0 0 0.5 0
0 0.5 0 0 0.5 0 0 0.5 0 0
0.5 0 0 0.5 0 0 0.5 0 0 0.5
0 0 0.5 0 0 0.5 0 0 0.5 0
0 0.5 0 0 0.5 0 0 0.5 0 0
0.5 0 0 0.5 0 0 0.5 0 0 0.5
0 0 0.5 0 0 0.5 0 0 0.5 0
0 0.5 0 0 0.5 0 0 0.5 0 0
0.5 0 0 0.5 0 0 0.5 0 0 0.5
0 0 0.5 0 0 0.5 0 0 0.5 0
0 0.5 0 0 0.5 0 0 0.5 0 0
0.5 0 0 0.5 0 0 0.5 0 0 0.5
0 0 0.5 0 0 0.5 0 0 0.5 0
0 0.5 0 0 0.5 0 0 0.5 0 0
0.5 0 0 0.5 0 0 0.5 0 0 0.5
0 0 0.5 0 0 0.5 0 0 0.5 0
0 0.5 0 0 0.5 0 0 0.5 0 0
0.5 0 0 0.5 0 0 0.5 0 0 0.5
0 0 0.5 0 0 0.5 0 0 0.5 0
0 0.5 0 0 0.5 0 0 0.5 0 0
0.5 0 0 0.5 0 0 0.5 0 0 0.5
0 0 0.5 0 0 0.5 0 0 0.5 0
0 0.5 0 0 0.5 0 0 0.5 0 0
0.5 0 0 0.5 0 0 0.5 0 0 0.5
0 0 0.5 0 0 0.5 0 0 0.5 0
0 0.5 0 0 0.5 0 0 0.5 0 0
0.5 0 0 0.5 0 0 0.5 0 0 0.5
0 0 0.5 0 0 0.5 0 0 0.5 0
0 0.5 0 0 0.5 0 0 0.5 0 0
0.5 0 0 0.5 0 0 0.5 0 0 0.5
0 0 0.5 0 0 0.5 0 0 0.5 0
0 0.5 0 0 0.5 0 0 0.5 0 0
0.5 0 0 0.5 0 0 0.5 0 0 0.5
0 0 0.5 0 0 0.5 0 0 0.5 0
0 0.5 0 0 0.5 0 0 0.5 0 0
0.5 0 0 0.5 0 0 0.5 0 0 0.5
0 0 0.5 0 0 0.5 0 0 0.5 0
0 0.5 0 0 0.5 0 0 0.5 0 0
0.5 0 0 0.5 0 0 0.5 0 0 0.5
0 0 0.5 0 0 0.5 0 0 0.5 0
0 0.5 0 0 0.5 0 0 0.5 0 0
0.5 0 0 0.5 0 0 0.5 0 0 0.5
0 0 0.5 0 0 0.5 0 0 0.5 0
0 0.5 0 0 0.5 0 0 0.5 0 0
0.5 0 0 0.5 0 0 0.5 0 0 0.5
0 0 0.5 0 0 0.5 0 0 0.5 0
0 0.5 0 0 0.5 0 0 0.5 0 0
0.5 0 0 0.5 0 0 0.5 0 0 0.5
0 0 0.5 0 0 0.5 0 0 0.5 0
0 0.5 0 0 0.5 0 0 0.5 0 0
0.5 0 0 0.5 0 0 0.5 0 0 0.5
0 0 0.5 0 0 0.5 0 0 0.5 0
0 0.5 0 0 0.5 0 0 0.5 0 0
0.5 0 0 0.5 0 0 0.5 0 0 0.5
0 0 0.5 0 0 0.5 0 0 0.5 0
0 0.5 0 0 0.5 0 0 0.5 0 0
0.5 0 0 0.5 0 0 0.5 0 0 0.5
0 0 0.5 0 0 0.5 0 0 0.5 0
0 0.5 0 0 0.5 0 0 0.5 0 0
0.5 0 0 0.5 0 0 0.5 0 0 0.5
0 0 0.5 0 0 0.5 0 0 0.5 0
0 0.5 0 0 0.5 0 0 0.5 0 0
0.5 0 0 0.5 0 0 0.5 0 0 0.5
0 0 0.5 0 0 0.5 0 0 0.5 0
0 0.5 0 0 0.5 0 0 0.5 0 0
0.5 0 0 0.5 0 0 0.5 0 0 0.5
0 0 0.5 0 0 0.5 0 0 0.5 0
0 0.5 0 0 0.5 0 0 0.5 0 0
0.5 0 0 0.5 0 0 0.5 0 0 0.5
0 0 0.5 0 0 0.5 0 0 0.5 0
0 0.5 0 0 0.5 0 0 0.5 0 0
0.5 0 0 0.5 0 0 0.5 0 0 0.5
0 0 0.5 0 0 0.5 0 0 0.5 0
0 0.5 0 0 0.5 0 0 0.5 0 0
0.5 0 0 0.5 0 0 0.5 0 0 0.5
0 0 0.5 0 0 0.5 0 0 0.5 0
0 0.5 0 0 0.5 0 0 0.5 0 0
0.5 0 0 0.5 0 0 0.5 0 0 0.5
0 0 0.5 0 0 0.5 0 0 0.5 0
0 0.5 0 0 0.5 0 0 0.5 0 0
0.5 0 0 0.5 0 0 0.5 0 0 0.5
0 0 0.5 0 0 0.5 0 0 0.5 0
0 0.5 0 0 0.5 0 0 0.5 0 0
0.5 0 0 0.5 0 0 0.5 0 0 0.5
0 0 0.5 0 0 0.5 0 0 0.5 0
0 0.5 0 0 0.5 0 0 0.5 0 0
0.5 0 0 0.5 0 0 0.5 0 0 0.5
0 0 0.5 0 0 0.5 0 0 0.5 0
0 0.5 0 0 0.5 0 0 0.5 0 0
0.5 0 0 0.5 0 0 0.5 0 0 0.5
0 0 0.5 0 0 0.5 0 0 0.5 0
0 0.5 0 0 0.5 0 0 0.5 0 0
0.5 0 0 0.5 0 0 0.5 0 0 0.5
0 0 0.5 0 0 0.5 0 0 0.5 0
0 0.5 0 0 0.5 0 0 0.5 0 0
0.5 0 0 0.5 0 0 0.5 0 0 0.5
0 0 0.5 0 0 0.5 0 0 0.5 0
0 0.5 0 0 0.5 0 0 0.5 0 0
0.5 0 0 0.5 0 0 0.5 0 0 0.5
0 0 0.5 0 0 0.5 0 0 0.5 0
0 0.5 0 0 0.5 0 0 0.5 0 0
0.5 0 0 0.5 0 0 0.5 0 0 0.5
0 0 0.5 0 0 0.5 0 0 0.5 0
0 0.5 0 0 0.5 0 0 0.5 0 0
0.5 0 0 0.5 0 0 0.5 0 0 0.5
0 0 0.5 0 0 0.5 0 0 0.5 0
0 0.5 0 0 0.5 0 0 0.5 0 0
0.5 0 0 0.5 0 0 0.5 0 0 0.5
0 0 0.5 0 0 0.5 0 0 0.5 0
0 0.5 0 0 0.5 0 0 0.5 0 0
0.5 0 0 0.5 0 0 0.5 0 0 0.5
0 0 0.5 0 0 0.5 0 0 0.5 0
0 0.5 0 0 0.5 0 0 0.5 0 0
0.5 0 0 0.5 0 0 0.5 0 0 0.5
0 0 0.5 0 0 0.5 0 0 0.5 0
0 0.5 0 0 0.5 0 0 0.5 0 0
0.5 0 0 0.5 0 0 0.5 0 0 0.5
0 0 0.5 0 0 0.5 0 0 0.5 0
0 0.5 0 0 0.5 0 0 0.5 0 0
0.5 0 0 0.5 0 0 0.5 0 0 0.5
0 0 0.5 0 0 0.5 0 0 0.5 0
0 0.5 0 0 0.5 0 0 0.5 0 0
0.5 0 0 0.5 0 0 0.5 0 0 0.5
0 0 0.5 0 0 0.5 0 0 0.5 0
0 0.5 0 0 0.5 0 0 0.5 0 0
0.5 0 0 0.5 0 0 0.5 0 0 0.5
0 0 0.5 0 0 0.5 0 0 0.5 0
0 0.5 0 0 0.5 0 0 0.5 0 0
0.5 0 0 0.5 0 0 0.5 0 0 0.5
0 0 0.5 0 0 0.5 0 0 0.5 0
0 0.5 0 0 0.5 0 0 0.5 0 0
0.5 0 0 0.5 0 0 0.5 0 0 0.5
0 0 0.5 0 0 0.5 0 0 0.5 0
0 0.5 0 0 0.5 0 0 0.5 0 0
0.5 0 0 0.5 0 0 0.5 0 0 0.5
0 0 0.5 0 0 
