/*--------------------------------*- C++ -*----------------------------------*\
| =========                 |                                                 |
| \\      /  F ield         | OpenFOAM: The Open Source CFD Toolbox           |
|  \\    /   O peration     | Version:  5.x                                   |
|   \\  /    A nd           | Web:      www.OpenFOAM.org                      |
|    \\/     M anipulation  |                                                 |
\*---------------------------------------------------------------------------*/
FoamFile
{
    version     2.0;
    format      ascii;
    class       volScalarField;
    location    "0.5";
    object      p;
}
// * * * * * * * * * * * * * * * * * * * * * * * * * * * * * * * * * * * * * //

dimensions      [0 2 -2 0 0 0 0];

internalField   nonuniform List<scalar> 
2475
(
0.0380112
0.0332003
0.0266116
0.0206506
0.0148627
0.00874181
0.00283707
-0.00130513
-0.00272032
-0.00204568
-0.000623833
0.000658396
0.00148091
0.00187111
0.00197983
0.0019457
0.00186035
0.0017652
0.00167203
0.00158029
0.00148683
0.00137987
0.00127269
0.00116528
0.00105153
0.000929966
0.000809715
0.000682032
0.000555255
0.000434279
0.0003188
0.000215701
0.000106894
4.62477e-05
-5.05381e-05
0.0344578
0.0317572
0.0261595
0.0203931
0.0147304
0.00883821
0.00315826
-0.000919072
-0.0024343
-0.00186971
-0.000511584
0.000734488
0.00153377
0.00190988
0.00201007
0.00197054
0.00188134
0.00178327
0.00168765
0.001594
0.00149894
0.00139065
0.00128223
0.00117393
0.00105923
0.000936961
0.00081594
0.000687767
0.000560302
0.000439006
0.000322931
0.000219687
0.000110291
4.96632e-05
-4.76344e-05
0.0317304
0.0303974
0.0258005
0.0202707
0.0147065
0.00908826
0.00377209
-0.000175089
-0.00188248
-0.00157765
-0.000369736
0.000807191
0.0015811
0.00194882
0.00204522
0.00200236
0.00190952
0.00180762
0.00170825
0.0016112
0.00151334
0.0014028
0.00129262
0.001183
0.00106713
0.000943928
0.000822058
0.000693245
0.000565086
0.000443373
0.000326738
0.000223254
0.000113337
5.24733e-05
-4.52636e-05
0.0295591
0.0289814
0.0253136
0.0201635
0.0147539
0.00941186
0.00446071
0.000683564
-0.00118076
-0.00117148
-0.000169577
0.000918
0.00166153
0.00201737
0.00210489
0.00205316
0.00195207
0.00184309
0.00173784
0.00163567
0.00153372
0.00141992
0.00130726
0.00119561
0.00107812
0.000953534
0.00083044
0.000700535
0.000571383
0.000448927
0.000331532
0.000227527
0.000117016
5.5336e-05
-4.24793e-05
0.0276653
0.0275086
0.0246506
0.0200092
0.014843
0.00976571
0.00513382
0.00152869
-0.000444764
-0.000712267
6.48904e-05
0.00104821
0.00175965
0.00210634
0.00218533
0.00212247
0.00201009
0.00189166
0.00177892
0.00167015
0.00156266
0.00144444
0.00132823
0.0012135
0.00109359
0.000967034
0.000842217
0.000710774
0.000580187
0.000456595
0.00033809
0.000233215
0.000121961
5.86067e-05
-3.85655e-05
0.025957
0.0260545
0.0238575
0.0197964
0.0149565
0.010138
0.00577474
0.00233203
0.000293051
-0.00021609
0.000330149
0.00119241
0.00186582
0.00220591
0.00227911
0.00220489
0.00207925
0.00194969
0.00182844
0.00171249
0.00159882
0.0014758
0.00135537
0.00123685
0.00111377
0.000984811
0.000857725
0.00072448
0.000591963
0.000466897
0.000346779
0.000240706
0.00012851
6.25315e-05
-3.30857e-05
0.0244203
0.0246973
0.023014
0.0195234
0.0150692
0.0105177
0.00638692
0.00309095
0.00102164
0.000311529
0.000630173
0.00135417
0.00197903
0.00231249
0.00238322
0.0022985
0.00215794
0.00201519
0.00188398
0.00176018
0.00163986
0.00151192
0.00138694
0.00126439
0.00113762
0.00100608
0.000876268
0.000741271
0.000606465
0.00047983
0.000357571
0.000250089
0.000136714
6.73293e-05
-2.60622e-05
0.023086
0.0234998
0.0221972
0.019207
0.0151616
0.0108923
0.00697643
0.00381238
0.00173394
0.000862636
0.000966856
0.00153817
0.00210026
0.00242403
0.00249563
0.00240267
0.00224629
0.00208809
0.00194504
0.00181235
0.00168475
0.00155168
0.00142187
0.00129513
0.00116429
0.00103001
0.000897085
0.000760383
0.000623065
0.000494889
0.000370101
0.00026104
0.00014629
7.30129e-05
-1.80715e-05
0.0219513
0.0224869
0.0214488
0.018869
0.0152209
0.0112455
0.00754027
0.00450027
0.00242409
0.00142605
0.0013373
0.00174796
0.00223213
0.00253998
0.00261473
0.00251681
0.0023447
0.00216902
0.00201197
0.00186899
0.00173327
0.00159474
0.00145987
0.00132873
0.00119347
0.00105623
0.000919891
0.000781356
0.000641376
0.000511578
0.00038408
0.000273144
0.000156928
7.94038e-05
-9.83274e-06
0.0209451
0.0216142
0.0207788
0.0185238
0.0152379
0.011559
0.00806711
0.0051516
0.00308686
0.00199015
0.00173449
0.00198595
0.00237851
0.00266084
0.00273843
0.002639
0.00245274
0.00225846
0.00208539
0.00193041
0.00178551
0.00164104
0.00150088
0.00136508
0.00122515
0.00108464
0.00094467
0.000804019
0.000661295
0.000529614
0.000399393
0.000286142
0.000168463
8.63382e-05
-1.79618e-06
0.0199922
0.0208233
0.020175
0.0181842
0.0152139
0.0118217
0.00854577
0.00576109
0.00372003
0.00254774
0.00215141
0.00225295
0.00254316
0.00278759
0.00286479
0.00276703
0.0025697
0.00235703
0.00216624
0.00199729
0.00184175
0.00169062
0.0015449
0.0014042
0.00125938
0.00111528
0.000971506
0.000828365
0.000682853
0.000548909
0.000416024
0.000299951
0.000180813
9.37574e-05
5.8533e-06
0.019066
0.0200851
0.0196257
0.0178619
0.015162
0.0120337
0.00897027
0.0063242
0.00432346
0.00309505
0.00258079
0.0025464
0.00272886
0.00292305
0.00299398
0.0028999
0.00269508
0.00246518
0.00225543
0.00207045
0.00190248
0.00174363
0.00159202
0.00144619
0.00129633
0.00114829
0.00100055
0.000854484
0.000706137
0.000569494
0.000433997
0.000314608
0.000193933
0.000101683
1.30682e-05
0.0181729
0.019391
0.0191226
0.0175637
0.0150968
0.0122031
0.00934088
0.0068373
0.00489364
0.00362757
0.00301477
0.00286192
0.00293857
0.00307182
0.00312783
0.00303681
0.00282737
0.00258231
0.00235344
0.00215075
0.00196844
0.00180048
0.00164244
0.00149111
0.00133611
0.00118379
0.00103195
0.000882514
0.000731252
0.000591461
0.000453334
0.000330196
0.000207776
0.000110163
1.98491e-05
0.0173197
0.0187365
0.0186585
0.01729
0.0150271
0.012339
0.009661
0.00729623
0.00542221
0.00413957
0.00344786
0.00319493
0.00317341
0.00323737
0.00326789
0.00317661
0.00296462
0.00270719
0.00246042
0.00223904
0.00204043
0.00186156
0.00169626
0.00153898
0.00137875
0.00122189
0.00106584
0.000912583
0.000758275
0.000614911
0.000474047
0.00034681
0.000222301
0.00011923
2.62127e-05
0.0165073
0.0181194
0.0182281
0.0170368
0.0149555
0.0124482
0.00993396
0.0076982
0.0059014
0.00462529
0.00387573
0.00353848
0.00342973
0.00342112
0.00341594
0.00331927
0.00310586
0.00283864
0.00257597
0.00233571
0.00211901
0.00192723
0.00175363
0.00158985
0.00142428
0.00126265
0.00110229
0.000944817
0.000787274
0.000639957
0.000496142
0.000364534
0.00023748
0.000128895
3.219e-05
0.015737
0.0175397
0.017828
0.0168001
0.0148821
0.0125344
0.0101628
0.00804444
0.00632759
0.00507751
0.00429198
0.00388512
0.00370219
0.00362412
0.00357496
0.00346623
0.0032508
0.00297515
0.00269855
0.00244044
0.00220474
0.00199818
0.00181502
0.00164394
0.00147272
0.00130608
0.00114134
0.000979357
0.000818327
0.000666726
0.000519637
0.000383443
0.000253301
0.000139147
3.78228e-05
0.0150127
0.0169978
0.0174557
0.0165777
0.0148045
0.0125973
0.0103509
0.00833892
0.00670052
0.00548889
0.00468942
0.00422953
0.00398549
0.00384575
0.00374762
0.00361916
0.00339909
0.00311537
0.00282668
0.00255287
0.00229826
0.00207517
0.0018808
0.00170137
0.00152408
0.00135228
0.00118308
0.00101634
0.000851517
0.000695349
0.000544581
0.000403611
0.00026979
0.000149971
4.32326e-05
0.0143343
0.0164902
0.0171066
0.0163656
0.0147183
0.0126351
0.0105014
0.00858613
0.00702256
0.00585544
0.00506117
0.00456679
0.00427354
0.00408225
0.00393479
0.00377903
0.00355075
0.00325893
0.00295939
0.00267202
0.00239924
0.00215834
0.00195125
0.00176242
0.00157847
0.00140126
0.00122743
0.00105579
0.000886864
0.0007259
0.000571001
0.000425058
0.000286961
0.000161314
4.84392e-05
0.0136972
0.0160105
0.0167736
0.0161586
0.0146218
0.0126484
0.0106186
0.00879162
0.00729813
0.00617698
0.00540077
0.00489102
0.00456086
0.00432785
0.00413534
0.0039472
0.00370683
0.0034061
0.00309549
0.00279603
0.00250674
0.00224782
0.00202692
0.00182758
0.00163598
0.0014529
0.00127429
0.0010977
0.000924395
0.000758433
0.000598934
0.000447783
0.000304828
0.000173117
5.34353e-05
0.013096
0.0155535
0.0164523
0.0159546
0.0145181
0.0126416
0.0107056
0.00895839
0.00752947
0.00645425
0.0057038
0.00519573
0.00484207
0.00457631
0.00434674
0.0041251
0.00386836
0.00355698
0.00323401
0.00292355
0.00262023
0.00234376
0.00210794
0.00189696
0.00169674
0.00150734
0.00132374
0.00114215
0.000964158
0.000793004
0.000628458
0.000471845
0.000323478
0.000185392
5.85079e-05
0.0125267
0.0151169
0.0161414
0.0157534
0.0144087
0.0126152
0.0107599
0.00908497
0.00771684
0.00668879
0.00596881
0.00547431
0.0051114
0.00482219
0.00456443
0.00431146
0.00403448
0.00371089
0.0033745
0.00305328
0.00273805
0.00244501
0.00219381
0.0019706
0.00176097
0.00156457
0.00137554
0.00118881
0.00100598
0.000829532
0.000659567
0.000497165
0.000342873
0.000198044
6.34603e-05
0.0119961
0.0147053
0.0158429
0.0155541
0.0142912
0.0125683
0.0107824
0.00917472
0.0078651
0.00688455
0.0061968
0.00572194
0.00536313
0.00506109
0.00478258
0.00450287
0.00420445
0.00386811
0.00351765
0.00318446
0.00285849
0.00255039
0.00228418
0.00204857
0.00182864
0.00162439
0.00142957
0.00123766
0.00104981
0.000867893
0.000692175
0.000523673
0.000363013
0.000211037
6.82128e-05
0.011507
0.014319
0.0155546
0.0153527
0.0141629
0.0125035
0.01078
0.00923414
0.00797951
0.00704445
0.00638973
0.0059378
0.00559299
0.0052887
0.00499652
0.00469648
0.00437822
0.00402851
0.00366326
0.00331637
0.00298042
0.00265921
0.00237859
0.00213062
0.00189988
0.00168711
0.00148601
0.00128864
0.00109555
0.00090809
0.0007264
0.000551483
0.000383988
0.000224487
7.33269e-05
0.011047
0.0139494
0.0152713
0.0151473
0.0140249
0.0124245
0.0107559
0.00926388
0.00805905
0.00716699
0.00654675
0.00612055
0.00579586
0.00549914
0.00520093
0.00488737
0.00455267
0.00418949
0.00380946
0.00344817
0.00310293
0.00277013
0.00247544
0.00221548
0.00197417
0.00175238
0.00154442
0.00134136
0.00114294
0.000949846
0.000761963
0.00058035
0.000405683
0.000238305
7.83653e-05
0.0106134
0.0135972
0.0149965
0.0149423
0.0138803
0.0123313
0.0107092
0.00926265
0.00810283
0.0072522
0.00666805
0.00627039
0.00596902
0.00568716
0.00539085
0.00507054
0.00472361
0.00434865
0.0039556
0.00357944
0.00322424
0.00288107
0.00257321
0.00230211
0.0020508
0.00181971
0.00160455
0.00139558
0.00119158
0.00099273
0.000798614
0.000610133
0.000427977
0.000252403
8.32706e-05
0.010213
0.0132681
0.014734
0.0147389
0.0137279
0.0122227
0.0106408
0.00923468
0.00811632
0.00730579
0.00675811
0.00639022
0.00611296
0.00585023
0.00556296
0.00524183
0.00488677
0.00450327
0.00410021
0.0037091
0.00334284
0.00299087
0.00267134
0.00238971
0.00212898
0.00188871
0.00166607
0.00145099
0.00124128
0.00103667
0.000836211
0.000640713
0.000450816
0.000266856
8.87319e-05
0.0098449
0.0129607
0.0144819
0.0145357
0.0135676
0.012101
0.0105556
0.00918594
0.008105
0.00733127
0.00681723
0.00647792
0.00622542
0.00598524
0.00571301
0.00539672
0.00503816
0.00464961
0.00423962
0.00383515
0.00345803
0.00309845
0.00276805
0.00247617
0.00220714
0.00195847
0.00172837
0.0015071
0.00129155
0.00108103
0.000874202
0.000671694
0.000473955
0.000281379
9.4188e-05
0.00950495
0.0126724
0.0142398
0.0143342
0.0134028
0.0119698
0.0104564
0.00911799
0.00806888
0.00732687
0.00684337
0.00653293
0.00630707
0.00609128
0.00583757
0.0055314
0.00517481
0.004784
0.00436969
0.00395507
0.00356797
0.00320132
0.00286147
0.00256049
0.00228438
0.00202802
0.00179068
0.00156317
0.00134176
0.0011253
0.000912256
0.000702654
0.000497118
0.000295662
9.87585e-05
0.00918917
0.0124009
0.0140072
0.0141357
0.0132345
0.011829
0.0103412
0.00902812
0.00800542
0.00729206
0.00683888
0.00655876
0.00635979
0.00616748
0.00593313
0.00564087
0.00529195
0.00490217
0.00448682
0.00406671
0.00367063
0.00329768
0.00295101
0.00264193
0.00235929
0.00209641
0.00185255
0.00161924
0.00139218
0.00116968
0.000950251
0.000733636
0.000520461
0.000310153
0.000102254
0.00888619
0.0121373
0.0137784
0.0139365
0.0130599
0.0116756
0.0102074
0.00891436
0.0079138
0.00722627
0.00680111
0.00654916
0.00637621
0.00620762
0.00599468
0.00571957
0.00538295
0.00499864
0.00458589
0.00416514
0.00376245
0.00338458
0.00303358
0.00271789
0.0024301
0.00216284
0.00191367
0.00167506
0.00144249
0.00121442
0.000988895
0.000765558
0.000544751
0.000326747
0.000112262
0.00819359
0.0115333
0.0132515
0.0134699
0.0126388
0.0112913
0.009857
0.00859904
0.00763674
0.00699313
0.00661808
0.00642189
0.00630841
0.00619957
0.00604369
0.00581569
0.0055131
0.0051494
0.00474884
0.00433396
0.00392593
0.00354154
0.00318534
0.00286021
0.00256452
0.00229054
0.00203267
0.00178542
0.00154353
0.00130441
0.00106635
0.000829094
0.000592694
0.000356904
0.000121139
0.00827744
0.0115162
0.0131245
0.0132339
0.0123063
0.010884
0.00940064
0.00811979
0.00715969
0.00654104
0.00620921
0.00606772
0.00601327
0.00596132
0.00585737
0.00567556
0.00541299
0.00508341
0.00471068
0.00431931
0.00393051
0.00356023
0.00321628
0.00290108
0.00261215
0.00234335
0.00208853
0.00184124
0.00159661
0.00135213
0.00110625
0.000858637
0.000610285
0.000362148
0.000115799
0.0067049
0.00992527
0.011575
0.0117783
0.0109774
0.00969261
0.00834056
0.00717448
0.00630616
0.0057543
0.00546724
0.00535426
0.00532032
0.00528957
0.00521496
0.0050771
0.00487509
0.00461858
0.0043245
0.00401359
0.00370383
0.0034041
0.00311835
0.00284985
0.00259611
0.00235154
0.00211294
0.00187688
0.00163995
0.00140084
0.00115876
0.000912856
0.000662543
0.000406546
0.000142775
0.0052968
0.00186727
2.17102e-05
-0.000366159
0.000256458
0.00136356
0.00253106
0.00349965
0.00415302
0.00446928
0.0044987
0.00433253
0.00406802
0.00378336
0.00352742
0.00332104
0.00316686
0.00305623
0.00297242
0.00289489
0.00280653
0.00269946
0.00256982
0.00241535
0.00224031
0.00205047
0.00184965
0.00164224
0.00143131
0.00121778
0.00100207
0.000783845
0.000562443
0.00033759
0.000109757
0.0040138
0.000552385
-0.00127092
-0.00158858
-0.00086986
0.000334036
0.00158491
0.00261785
0.00331496
0.00365659
0.00369839
0.00353733
0.00327592
0.00299782
0.00275768
0.0025819
0.00247439
0.00242218
0.00240338
0.00239465
0.00237628
0.00233461
0.00226232
0.00215847
0.00202683
0.00187287
0.00170294
0.00152282
0.00133649
0.00114622
0.000952724
0.000755192
0.000551945
0.00034083
0.00011957
0.0046925
0.00110087
-0.000872475
-0.00134954
-0.000782884
0.000290827
0.00143937
0.00239782
0.00304549
0.00335798
0.00338401
0.00321374
0.00294437
0.00265635
0.00240328
0.00221234
0.0020896
0.00202548
0.00200125
0.00199553
0.00198903
0.0019671
0.00192131
0.00184831
0.0017486
0.00162608
0.00148597
0.00133323
0.00117219
0.00100564
0.000834766
0.00065966
0.000479578
0.000293336
9.98831e-05
0.00423443
0.000629954
-0.00135518
-0.00184291
-0.00128555
-0.000219505
0.000923206
0.00187773
0.00252337
0.00283568
0.0028631
0.00269542
0.00242963
0.00214608
0.0018985
0.00171429
0.00159992
0.00154633
0.00153523
0.00154547
0.00155784
0.0015579
0.0015369
0.00149107
0.00142074
0.00132896
0.00122011
0.00109864
0.000968318
0.000831769
0.000690459
0.000544855
0.000394809
0.000239916
7.99861e-05
0.00411591
0.000513786
-0.00147228
-0.00196378
-0.00141221
-0.000353075
0.000782272
0.00172942
0.00236791
0.00267337
0.00269433
0.00252068
0.00224947
0.00196111
0.00170938
0.00152174
0.00140483
0.00134974
0.00133834
0.00134963
0.00136466
0.00136919
0.00135455
0.00131711
0.00125723
0.00117784
0.00108315
0.000977363
0.000863952
0.000745226
0.00062227
0.000495092
0.000362924
0.000224513
7.84847e-05
0.00387106
0.000267003
-0.00172126
-0.00221531
-0.00166665
-0.000610658
0.00052146
0.00146542
0.00210088
0.00240358
0.00242213
0.00224649
0.00197375
0.00168438
0.00143225
0.00124492
0.0011291
0.00107597
0.00106752
0.00108289
0.00110321
0.00111434
0.0011077
0.00107974
0.00103085
0.000963997
0.000883363
0.000793152
0.000696828
0.000596735
0.000494085
0.00038916
0.000281672
0.000171128
5.7224e-05
0.00363185
2.95166e-05
-0.001957
-0.00244933
-0.00189896
-0.00084123
0.000292732
0.00123873
0.00187648
0.00218175
0.00220313
0.00203056
0.00176112
0.0014753
0.00122697
0.00104372
0.000932295
0.000883942
0.00088071
0.000901797
0.000928406
0.000946468
0.000947507
0.000928056
0.000888568
0.000832088
0.000762846
0.000685047
0.000602136
0.000516383
0.000428857
0.000339598
0.000247941
0.000152849
5.32928e-05
0.00343003
-0.000170355
-0.00215526
-0.00264621
-0.00209452
-0.0010354
0.000100074
0.00104773
0.00168726
0.00199443
0.00201781
0.00184735
0.00158014
0.00129669
0.00105091
0.000870423
0.000762041
0.000717062
0.000717582
0.000742854
0.000774136
0.000797405
0.000804196
0.000791062
0.00075848
0.000709528
0.000648482
0.00057962
0.000506465
0.000431389
0.000355583
0.000279258
0.000201984
0.000123054
4.18805e-05
0.00325603
-0.000342992
-0.00232665
-0.00281644
-0.00226361
-0.00120329
-6.65171e-05
0.000882577
0.00152369
0.00183259
0.00185784
0.00168938
0.00142433
0.00114319
0.000899912
0.000722124
0.000616679
0.000574913
0.000578953
0.000608081
0.00064359
0.000671502
0.000683389
0.000675859
0.00064945
0.000607292
0.000553715
0.000493058
0.000428891
0.000363627
0.00029849
0.000233695
0.000168781
0.000102971
3.55647e-05
0.003115
-0.000483203
-0.00246593
-0.00295467
-0.00240068
-0.00133913
-0.000201024
0.000749488
0.00139213
0.00170266
0.00172966
0.00156308
0.00130003
0.00102105
0.000780067
0.000604761
0.000501994
0.00046312
0.000470294
0.000502824
0.000542029
0.000573954
0.000590203
0.000587415
0.000566153
0.000529573
0.000482029
0.000427878
0.000370708
0.000312943
0.00025582
0.000199562
0.000143718
8.75226e-05
3.02892e-05
0.00301445
-0.000583064
-0.00256506
-0.00305301
-0.00249817
-0.00143571
-0.000296623
0.000654954
0.00129875
0.00161051
0.00163883
0.00147365
0.0012121
0.000934708
0.000695431
0.000521946
0.000421132
0.000384361
0.000393803
0.000428782
0.000470632
0.000505414
0.00052475
0.000525292
0.000507623
0.000474916
0.000431543
0.000381881
0.000329537
0.000276959
0.000225402
0.000175115
0.000125671
7.63311e-05
2.64425e-05
0.00296066
-0.000636116
-0.00261751
-0.00310499
-0.00254978
-0.00148698
-0.000347536
0.000604443
0.0012487
0.00156101
0.00158997
0.0014255
0.00116475
0.000888233
0.000649901
0.000477428
0.000377693
0.000342072
0.00035274
0.000389028
0.000432281
0.000468577
0.000489546
0.000491853
0.000476094
0.000445456
0.00040432
0.000357074
0.000307336
0.000257565
0.000209026
0.000161978
0.000116002
7.03697e-05
2.44331e-05
0.0139541
0.0119755
0.011865
0.011468
0.0117182
0.0117825
0.0118427
0.0117462
0.0121275
0.012228
0.0125617
0.0131192
0.0139339
0.0151233
0.0166256
0.0185814
0.0211112
0.0244319
0.0284752
0.0329299
0.0139596
0.0119625
0.0118699
0.0114557
0.0117294
0.0117567
0.0118534
0.0116977
0.0121477
0.0121645
0.0125905
0.0130548
0.0139659
0.0150679
0.016655
0.0185151
0.0210719
0.0241072
0.0275687
0.0310224
0.0139608
0.0119467
0.0118745
0.0114429
0.0117377
0.0117284
0.0118631
0.0116568
0.0121636
0.0121163
0.0126095
0.013001
0.0139796
0.0150173
0.0166408
0.0184151
0.0208533
0.0234972
0.0264092
0.0291489
0.0139565
0.0119297
0.0118779
0.0114312
0.0117446
0.0117007
0.0118691
0.0116236
0.0121638
0.0120883
0.0125996
0.0129766
0.0139446
0.0149946
0.0165544
0.0182738
0.0204471
0.0227671
0.025175
0.0274538
0.0139488
0.0119123
0.0118811
0.0114223
0.0117501
0.0116747
0.0118684
0.0116003
0.0121471
0.0120818
0.0125582
0.0129863
0.0138642
0.0149443
0.0164038
0.0180235
0.0199318
0.0219347
0.0239438
0.0258819
0.0139387
0.011896
0.011884
0.0114179
0.0117504
0.0116552
0.0118567
0.011592
0.0121098
0.0120938
0.0124871
0.0129748
0.013764
0.0148311
0.0161723
0.0176418
0.0193105
0.0210526
0.0227561
0.0244044
0.0139265
0.0118828
0.0118843
0.011419
0.0117421
0.0116449
0.0118302
0.0116002
0.0120502
0.0121083
0.0124094
0.0129391
0.0136565
0.0146426
0.0158368
0.0171151
0.0185637
0.0201135
0.0216539
0.0230102
0.0139115
0.0118748
0.01188
0.0114264
0.0117232
0.0116439
0.0117878
0.0116132
0.0119861
0.012108
0.0123473
0.0128725
0.0135361
0.0144021
0.0154317
0.0165196
0.0177513
0.0190019
0.0202601
0.0216454
0.0138921
0.0118748
0.0118691
0.011441
0.0116915
0.0116511
0.011735
0.0116195
0.0119322
0.0120907
0.0122942
0.0127813
0.0133888
0.0141364
0.0149666
0.0157745
0.0166671
0.0176939
0.018899
0.0203794
0.013866
0.0118859
0.0118499
0.0114634
0.0116457
0.0116751
0.0116848
0.0116139
0.0118891
0.012062
0.0122315
0.0126663
0.0131632
0.013696
0.0143167
0.0149291
0.0155968
0.0164541
0.0176097
0.0192062
0.0138312
0.011911
0.011822
0.0114914
0.0115903
0.0116789
0.0116482
0.0115974
0.011847
0.0120168
0.0121289
0.0124361
0.0128208
0.0132096
0.0136441
0.0140726
0.014563
0.0152875
0.0164011
0.0180857
0.0137856
0.0119532
0.0117868
0.0115201
0.0115412
0.0116636
0.0116264
0.0115727
0.0117909
0.0119183
0.0119438
0.0121538
0.012448
0.0127061
0.0129597
0.0132123
0.0135475
0.0141575
0.0152354
0.0169956
0.0137273
0.0120141
0.0117489
0.0115402
0.0115077
0.0116279
0.0115982
0.0115302
0.0116826
0.0117684
0.0117389
0.011853
0.0120491
0.0121786
0.0122577
0.0123406
0.0125338
0.0130466
0.0141038
0.0159418
0.0136551
0.0120924
0.0117194
0.0115337
0.0114853
0.0115826
0.0115431
0.0114416
0.011541
0.0115978
0.0115217
0.0115341
0.0116154
0.011614
0.0115325
0.0114592
0.0115269
0.0119586
0.0130085
0.0149306
0.0135692
0.0121767
0.0117095
0.0115155
0.0114578
0.0115208
0.0114597
0.011332
0.0113824
0.0114082
0.0112831
0.0111878
0.0111423
0.0110136
0.0107902
0.0105776
0.0105348
0.0108979
0.0119487
0.0139604
0.0134695
0.012258
0.0117276
0.0115019
0.0114171
0.0114393
0.0113555
0.0112058
0.0112074
0.0111918
0.0110134
0.0108111
0.0106362
0.0103869
0.0100377
0.00970041
0.00955973
0.0098671
0.0109263
0.0130309
0.0133567
0.0123329
0.0117741
0.0114889
0.0113596
0.0113374
0.011231
0.0110605
0.0110094
0.0109427
0.0107097
0.0104079
0.0101062
0.00973857
0.00927574
0.00882987
0.0086074
0.00887512
0.00995147
0.0121498
0.0132339
0.0123923
0.0118458
0.0114832
0.0112883
0.011214
0.0110817
0.0108885
0.0107847
0.010664
0.0103757
0.00998049
0.00955565
0.0090714
0.00850659
0.00797428
0.00769101
0.00793549
0.00903624
0.0113241
0.0131101
0.012429
0.0119221
0.0114941
0.0112139
0.0110689
0.0109008
0.0106868
0.0105364
0.0103599
0.0100132
0.00952895
0.00898769
0.00839139
0.00774162
0.00714757
0.00682356
0.00705642
0.00818431
0.0105535
0.0129954
0.0124399
0.0119775
0.0115164
0.0111381
0.0109018
0.0106852
0.0104526
0.0102615
0.0100275
0.00962082
0.00905552
0.00841048
0.00771449
0.0069942
0.00635564
0.00600524
0.00623383
0.00738957
0.00983217
0.0128899
0.0124215
0.0119989
0.0115596
0.0111004
0.0107263
0.0104385
0.0101855
0.00995815
0.00966718
0.00920171
0.00856589
0.00783192
0.00704939
0.00626672
0.00559201
0.00522527
0.00545672
0.00664253
0.00915351
0.0127984
0.0124028
0.0119795
0.0115158
0.0110418
0.0105645
0.0102112
0.00992206
0.00964489
0.00928973
0.00876352
0.00806503
0.00725457
0.00640027
0.00556486
0.00486128
0.0044871
0.00472923
0.00594825
0.00852382
0.0127394
0.0124063
0.0119408
0.0113787
0.0108384
0.0103918
0.0100179
0.00967572
0.00932862
0.00890164
0.00831268
0.00755551
0.00668612
0.00577635
0.0049005
0.00417648
0.00380159
0.00405952
0.00531257
0.00794747
0.0126895
0.0123695
0.0118392
0.0112308
0.0106722
0.010216
0.00981771
0.00942376
0.00900416
0.00850388
0.00785324
0.00704407
0.00612815
0.00517592
0.00426993
0.00353232
0.00316008
0.00343535
0.00472117
0.00741
0.0126191
0.0123088
0.0117475
0.0110988
0.0105032
0.0100167
0.00958721
0.00914906
0.00866686
0.00809771
0.00738966
0.00653445
0.0055802
0.00459572
0.00366798
0.00292256
0.00255567
0.0028491
0.0041668
0.00690566
0.0125361
0.0122326
0.0116452
0.0109549
0.0103174
0.0097909
0.00932597
0.00885095
0.00831851
0.00769009
0.00693063
0.00603611
0.00505153
0.00404385
0.00310188
0.00235393
0.00199548
0.00230812
0.00365672
0.00644173
0.0124416
0.0121377
0.0115231
0.010794
0.010115
0.00954832
0.00904823
0.00853963
0.00796552
0.00728677
0.00648245
0.00555737
0.00455037
0.00352667
0.00257619
0.00182968
0.00148209
0.00181421
0.0031917
0.00601804
0.0123314
0.0120214
0.0113784
0.0106139
0.00989801
0.00929562
0.00876285
0.00822271
0.00761342
0.00689378
0.00605338
0.00510307
0.00407835
0.00304245
0.0020862
0.00134296
0.00100796
0.00136022
0.00276529
0.00562917
0.0122006
0.0118805
0.0112113
0.0104144
0.00966702
0.00903536
0.00847578
0.00790874
0.00727102
0.00652088
0.00565162
0.00467941
0.00363912
0.0025923
0.00162969
0.000886796
0.00056361
0.000937474
0.00237027
0.0052696
0.0120452
0.0117159
0.0110188
0.0101939
0.00942243
0.00876952
0.00819162
0.00760656
0.00694894
0.00617802
0.00528825
0.00429854
0.00324532
0.00218936
0.00122161
0.000478492
0.000159246
0.000544916
0.00200147
0.00493007
0.011607
0.0112578
0.0105076
0.0096287
0.00881845
0.00813823
0.00754115
0.0069402
0.00626417
0.00547366
0.00456165
0.00354964
0.00247896
0.00141024
0.000432404
-0.000321675
-0.000653543
-0.000276683
0.0011869
0.00415955
0.0105187
0.0101825
0.00947484
0.00865819
0.00792566
0.00733271
0.00682897
0.00633164
0.00577596
0.00512453
0.00436163
0.00349344
0.00254722
0.0015742
0.000658781
-6.50922e-05
-0.00039458
-3.81067e-05
0.00138825
0.00431357
0.00935957
0.00919403
0.00869831
0.00812482
0.00762975
0.00722476
0.00682884
0.00635263
0.00573677
0.00496341
0.00404338
0.00300698
0.00189863
0.000780961
-0.000300795
-0.00116797
-0.0016238
-0.00137767
-4.40806e-05
0.00280589
0.0056235
0.00574993
0.00617745
0.00666304
0.00705402
0.00733871
0.007599
0.00792706
0.00838061
0.0089806
0.00972063
0.0105745
0.011501
0.0124396
0.0133426
0.0140345
0.0143184
0.0139039
0.0124051
0.00938902
0.00460468
0.0049104
0.00556049
0.00630324
0.00694495
0.00742099
0.00777481
0.00809069
0.00844854
0.00890274
0.00947732
0.010169
0.010951
0.0117708
0.0125416
0.013127
0.0133206
0.0128261
0.0112542
0.00817205
0.00347483
0.0038588
0.00465729
0.00559263
0.00645298
0.00715854
0.0077421
0.0082851
0.00886365
0.0095218
0.0102718
0.0111012
0.0119772
0.0128457
0.0136227
0.014178
0.0143145
0.0137469
0.0120976
0.00894241
0.00288948
0.00332407
0.00419277
0.00521272
0.00616197
0.0069467
0.00758776
0.00815971
0.00873791
0.00937331
0.0100872
0.0108749
0.0117089
0.0125384
0.0132809
0.0138068
0.0139186
0.0133307
0.0116651
0.00849704
0.00240012
0.00285073
0.0037459
0.00479941
0.0057857
0.00660736
0.00728257
0.00788485
0.00848959
0.00914776
0.00988089
0.0106847
0.0115328
0.0123745
0.0131272
0.0136612
0.0137795
0.013197
0.0115362
0.00837336
0.00202042
0.00248144
0.00339309
0.00446696
0.00547548
0.00631906
0.00701414
0.00763316
0.00825109
0.00891892
0.00965836
0.0104654
0.0113137
0.0121532
0.0129022
0.0134318
0.0135457
0.0129593
0.0112954
0.00813035
0.00170738
0.00217292
0.00309178
0.00417462
0.00519284
0.00604568
0.00674852
0.0073735
0.00799572
0.00866653
0.00940803
0.0102166
0.0110661
0.0119067
0.0126566
0.0131873
0.0133021
0.0127166
0.0110537
0.00788974
0.00144371
0.00191154
0.00283417
0.0039217
0.00494503
0.00580303
0.00651082
0.00714021
0.00776619
0.00844014
0.00918431
0.00999518
0.0108469
0.0116897
0.012442
0.012975
0.0130921
0.0125087
0.0108478
0.00768581
0.00122616
0.00169544
0.00262044
0.00371091
0.00473743
0.00559869
0.00630972
0.00694231
0.00757141
0.00824834
0.00899528
0.00980867
0.0106626
0.0115073
0.0122611
0.0127954
0.0129136
0.0123313
0.0106715
0.00751057
0.0010556
0.00152594
0.00245273
0.00354537
0.00457425
0.0054379
0.00615126
0.00678609
0.0074173
0.00809617
0.00884486
0.00965982
0.0105151
0.011361
0.012116
0.0126511
0.0127702
0.0121886
0.0105294
0.00736892
0.000934725
0.00140574
0.00233368
0.00342774
0.00445815
0.00532334
0.00603821
0.00667448
0.00730705
0.00798719
0.00873706
0.0095531
0.0104094
0.0112562
0.0120119
0.0125478
0.0126675
0.0120865
0.0104278
0.00726783
0.000869421
0.00134067
0.00226895
0.00336349
0.00439452
0.00526046
0.00597612
0.00661318
0.00724651
0.00792736
0.00867788
0.00949452
0.0103513
0.0111987
0.0119548
0.0124912
0.0126113
0.0120308
0.0103726
0.00721326
)
;

boundaryField
{
    top
    {
        type            zeroGradient;
    }
    inlet
    {
        type            zeroGradient;
    }
    outlet
    {
        type            fixedValue;
        value           uniform 0;
    }
    plate
    {
        type            zeroGradient;
    }
    symmBound
    {
        type            zeroGradient;
    }
    frontAndBack
    {
        type            empty;
    }
}


// ************************************************************************* //
