/*--------------------------------*- C++ -*----------------------------------*\
| =========                 |                                                 |
| \\      /  F ield         | OpenFOAM: The Open Source CFD Toolbox           |
|  \\    /   O peration     | Version:  5.x                                   |
|   \\  /    A nd           | Web:      www.OpenFOAM.org                      |
|    \\/     M anipulation  |                                                 |
\*---------------------------------------------------------------------------*/
FoamFile
{
    version     2.0;
    format      ascii;
    class       volVectorField;
    location    "0.5";
    object      U;
}
// * * * * * * * * * * * * * * * * * * * * * * * * * * * * * * * * * * * * * //

dimensions      [0 1 -1 0 0 0 0];

internalField   nonuniform List<vector> 
2475
(
(0.911168 0.0103424 0)
(0.814582 0.0141937 0)
(0.714765 0.014008 0)
(0.6104 0.0128913 0)
(0.50402 0.0114809 0)
(0.401998 0.00915992 0)
(0.316725 0.00558409 0)
(0.259393 0.00184399 0)
(0.226323 -0.000122374 0)
(0.206073 -0.000511833 0)
(0.192298 -0.000397042 0)
(0.182138 -0.000216881 0)
(0.173478 -5.08782e-05 0)
(0.165557 6.41846e-05 0)
(0.157889 0.000123265 0)
(0.150744 0.000142031 0)
(0.14391 0.000137435 0)
(0.137778 0.000125266 0)
(0.131931 0.000110724 0)
(0.1268 9.79425e-05 0)
(0.12175 8.62866e-05 0)
(0.11738 7.79987e-05 0)
(0.112874 6.87716e-05 0)
(0.109111 6.22861e-05 0)
(0.104991 5.56159e-05 0)
(0.101749 5.09412e-05 0)
(0.0978877 4.50423e-05 0)
(0.0951438 4.19185e-05 0)
(0.0914155 3.70122e-05 0)
(0.0891831 3.46568e-05 0)
(0.0854444 3.04278e-05 0)
(0.0837955 2.91245e-05 0)
(0.0798138 2.57944e-05 0)
(0.0789109 2.47812e-05 0)
(0.074298 2.47463e-05 0)
(0.966863 0.0194355 0)
(0.959818 0.0273162 0)
(0.945743 0.0284421 0)
(0.921588 0.0278503 0)
(0.886182 0.0269406 0)
(0.840579 0.024916 0)
(0.788761 0.0207717 0)
(0.737534 0.0148061 0)
(0.690972 0.00942671 0)
(0.648479 0.00605803 0)
(0.609178 0.00413312 0)
(0.573936 0.00306549 0)
(0.542032 0.00245486 0)
(0.513653 0.00206511 0)
(0.487695 0.0017719 0)
(0.464679 0.00153528 0)
(0.443292 0.00132747 0)
(0.424376 0.00115402 0)
(0.406345 0.0010022 0)
(0.390553 0.000882031 0)
(0.374938 0.000776307 0)
(0.361478 0.00069596 0)
(0.347556 0.000615866 0)
(0.335966 0.000556578 0)
(0.323229 0.000495241 0)
(0.31327 0.000451992 0)
(0.301353 0.000400545 0)
(0.292946 0.000370354 0)
(0.281468 0.000326712 0)
(0.27465 0.000306222 0)
(0.26315 0.000267633 0)
(0.258129 0.000257464 0)
(0.245938 0.000222326 0)
(0.243202 0.000220554 0)
(0.229284 0.000198904 0)
(0.971536 0.0179345 0)
(0.972441 0.0260624 0)
(0.975106 0.0288282 0)
(0.976402 0.0294378 0)
(0.973914 0.0295874 0)
(0.966778 0.0288183 0)
(0.954078 0.0258706 0)
(0.936972 0.0208188 0)
(0.916567 0.0156476 0)
(0.894371 0.0121467 0)
(0.870006 0.0100393 0)
(0.845459 0.00869535 0)
(0.819981 0.00765979 0)
(0.795119 0.00676141 0)
(0.769443 0.00592787 0)
(0.744882 0.00518336 0)
(0.719548 0.00450844 0)
(0.695891 0.00393275 0)
(0.671438 0.00341718 0)
(0.649447 0.00299823 0)
(0.626472 0.00262898 0)
(0.606594 0.00234179 0)
(0.58517 0.00206832 0)
(0.56748 0.00186301 0)
(0.547279 0.00165329 0)
(0.531729 0.0015037 0)
(0.51241 0.00133204 0)
(0.499089 0.00122794 0)
(0.480219 0.00108314 0)
(0.469317 0.00101448 0)
(0.450222 0.000885724 0)
(0.442135 0.000852127 0)
(0.421838 0.000731259 0)
(0.417381 0.000728932 0)
(0.394392 0.000636608 0)
(0.976715 0.0166881 0)
(0.977079 0.0238384 0)
(0.980119 0.027353 0)
(0.984799 0.0284295 0)
(0.98875 0.0286802 0)
(0.992159 0.028155 0)
(0.993135 0.0258835 0)
(0.992079 0.0218405 0)
(0.987165 0.0173561 0)
(0.980466 0.0141202 0)
(0.970702 0.0122616 0)
(0.960852 0.0111659 0)
(0.948857 0.0103049 0)
(0.937448 0.00951423 0)
(0.923525 0.0087168 0)
(0.910377 0.00798322 0)
(0.89421 0.00727536 0)
(0.879208 0.00665389 0)
(0.860735 0.00603413 0)
(0.844275 0.00549336 0)
(0.824076 0.0049582 0)
(0.807048 0.00451816 0)
(0.785854 0.0040643 0)
(0.769127 0.00371923 0)
(0.747202 0.00334394 0)
(0.731219 0.00307305 0)
(0.708555 0.00274389 0)
(0.693954 0.00254227 0)
(0.67062 0.00225399 0)
(0.658218 0.00211934 0)
(0.633775 0.00185752 0)
(0.624308 0.00178999 0)
(0.597813 0.0015393 0)
(0.592467 0.00153422 0)
(0.562387 0.00132528 0)
(0.981422 0.0162872 0)
(0.981597 0.0223141 0)
(0.983641 0.026129 0)
(0.988315 0.0275217 0)
(0.992507 0.0276706 0)
(0.997573 0.0270125 0)
(1.00078 0.0249934 0)
(1.00401 0.0216029 0)
(1.00373 0.0176816 0)
(1.0031 0.0146389 0)
(0.999187 0.0128466 0)
(0.99662 0.0118786 0)
(0.99155 0.0111581 0)
(0.988672 0.0105074 0)
(0.982691 0.00980768 0)
(0.979062 0.00918418 0)
(0.971407 0.00856979 0)
(0.966381 0.00806923 0)
(0.956354 0.00753498 0)
(0.949565 0.0070817 0)
(0.936923 0.00657631 0)
(0.928595 0.00616677 0)
(0.913576 0.00567949 0)
(0.904351 0.0053295 0)
(0.887163 0.00490027 0)
(0.877375 0.0046182 0)
(0.857658 0.00420927 0)
(0.847578 0.00397568 0)
(0.825325 0.00357467 0)
(0.816101 0.00340912 0)
(0.791325 0.00302494 0)
(0.783875 0.002943 0)
(0.75582 0.00255806 0)
(0.751442 0.0025567 0)
(0.719093 0.00221807 0)
(0.985278 0.016203 0)
(0.985548 0.0211587 0)
(0.986708 0.0248878 0)
(0.991192 0.0265367 0)
(0.994846 0.0267015 0)
(1.00023 0.0259757 0)
(1.00321 0.024133 0)
(1.00738 0.0212316 0)
(1.00776 0.0177735 0)
(1.00909 0.0148843 0)
(1.00652 0.013047 0)
(1.00653 0.0120794 0)
(1.00333 0.0113952 0)
(1.00385 0.010813 0)
(1.00058 0.0101431 0)
(1.0014 0.00956659 0)
(0.997419 0.00898708 0)
(0.997957 0.00856998 0)
(0.992585 0.00810698 0)
(0.992371 0.00775838 0)
(0.985119 0.00731865 0)
(0.984026 0.00699712 0)
(0.974747 0.00653894 0)
(0.973022 0.00624996 0)
(0.961766 0.005833 0)
(0.959602 0.00562081 0)
(0.945778 0.00522552 0)
(0.942786 0.00505504 0)
(0.925736 0.00462218 0)
(0.922495 0.00448929 0)
(0.902476 0.0040504 0)
(0.899707 0.0040048 0)
(0.875961 0.0035473 0)
(0.874219 0.00357044 0)
(0.846334 0.00315519 0)
(0.988205 0.0164033 0)
(0.988629 0.0203837 0)
(0.989089 0.0236697 0)
(0.993383 0.0254231 0)
(0.996463 0.0256698 0)
(1.002 0.0249758 0)
(1.00458 0.0232905 0)
(1.00909 0.0207772 0)
(1.00939 0.017731 0)
(1.01153 0.0150286 0)
(1.00919 0.0131406 0)
(1.01012 0.0121273 0)
(1.00718 0.0114361 0)
(1.00874 0.0108959 0)
(1.00598 0.0102337 0)
(1.00823 0.00966911 0)
(1.00522 0.00907997 0)
(1.00774 0.00869447 0)
(1.00401 0.00825724 0)
(1.00648 0.00797028 0)
(1.0017 0.00756694 0)
(1.00401 0.00730844 0)
(0.998033 0.006873 0)
(1.00026 0.00663058 0)
(0.993117 0.00622507 0)
(0.995445 0.00607301 0)
(0.986745 0.00571464 0)
(0.988628 0.00563031 0)
(0.977494 0.00522379 0)
(0.978724 0.00513935 0)
(0.965468 0.00470339 0)
(0.966613 0.00471187 0)
(0.95063 0.00426714 0)
(0.951202 0.00431994 0)
(0.932333 0.00391769 0)
(0.990193 0.0168183 0)
(0.990668 0.0199114 0)
(0.990708 0.0226063 0)
(0.994706 0.0242939 0)
(0.997368 0.0246289 0)
(1.00282 0.0240255 0)
(1.00521 0.0225049 0)
(1.00976 0.020297 0)
(1.01015 0.017609 0)
(1.01258 0.015129 0)
(1.01057 0.0132264 0)
(1.01176 0.012154 0)
(1.00906 0.0114394 0)
(1.01072 0.0109304 0)
(1.00824 0.0102821 0)
(1.01057 0.00972033 0)
(1.00805 0.00910934 0)
(1.01072 0.00872374 0)
(1.00781 0.00828879 0)
(1.01061 0.00802508 0)
(1.00718 0.00763708 0)
(1.01007 0.0074056 0)
(1.00607 0.00698152 0)
(1.00905 0.00675337 0)
(1.00454 0.00634909 0)
(1.00781 0.00621683 0)
(1.00266 0.00588504 0)
(1.00583 0.00585059 0)
(0.999486 0.00549325 0)
(1.00198 0.00542999 0)
(0.994635 0.00501757 0)
(0.997027 0.00504967 0)
(0.988441 0.00466849 0)
(0.989742 0.00473003 0)
(0.979721 0.00439579 0)
(0.991611 0.0169383 0)
(0.991914 0.0193472 0)
(0.991849 0.0215039 0)
(0.995362 0.02303 0)
(0.997839 0.0234507 0)
(1.00288 0.0229845 0)
(1.00533 0.0216676 0)
(1.00959 0.0197367 0)
(1.01032 0.0173682 0)
(1.01264 0.0151339 0)
(1.01123 0.0132793 0)
(1.01225 0.0121584 0)
(1.01012 0.0114136 0)
(1.01137 0.0109228 0)
(1.00947 0.0103007 0)
(1.01126 0.0097468 0)
(1.00946 0.0091249 0)
(1.01149 0.00872696 0)
(1.00951 0.00829173 0)
(1.01162 0.00802975 0)
(1.00943 0.00765397 0)
(1.01161 0.00742814 0)
(1.0092 0.00701535 0)
(1.01142 0.00678401 0)
(1.00882 0.00638172 0)
(1.01123 0.00624356 0)
(1.00847 0.00593032 0)
(1.01084 0.00590472 0)
(1.00775 0.00559696 0)
(1.00959 0.00552963 0)
(1.00616 0.00513907 0)
(1.008 0.00515954 0)
(1.0043 0.00484854 0)
(1.00526 0.0048972 0)
(1.00102 0.00463326 0)
(0.992792 0.0166904 0)
(0.992728 0.0186686 0)
(0.992767 0.0204096 0)
(0.995675 0.0217284 0)
(0.998144 0.0222033 0)
(1.00256 0.0218852 0)
(1.00521 0.0207897 0)
(1.00896 0.019126 0)
(1.01015 0.0170451 0)
(1.01213 0.01505 0)
(1.01143 0.0132951 0)
(1.01209 0.0121412 0)
(1.01066 0.0113566 0)
(1.01134 0.0108692 0)
(1.01012 0.0102838 0)
(1.01122 0.00975071 0)
(1.0102 0.00913505 0)
(1.01145 0.00872095 0)
(1.01039 0.0082843 0)
(1.01165 0.00801124 0)
(1.01054 0.00764578 0)
(1.0118 0.00741752 0)
(1.01064 0.00701787 0)
(1.01188 0.0067821 0)
(1.01064 0.00638664 0)
(1.01193 0.00623676 0)
(1.01068 0.00593919 0)
(1.01193 0.00590161 0)
(1.01071 0.00563193 0)
(1.01164 0.0055538 0)
(1.01029 0.00517968 0)
(1.01126 0.00517415 0)
(1.00996 0.00491877 0)
(1.01043 0.00494626 0)
(1.00895 0.00473232 0)
(0.993886 0.0162626 0)
(0.993383 0.0179679 0)
(0.993553 0.0194074 0)
(0.995885 0.0205179 0)
(0.998385 0.0209934 0)
(1.00217 0.0208041 0)
(1.00498 0.0199195 0)
(1.00821 0.0185169 0)
(1.0098 0.0166977 0)
(1.01143 0.0149135 0)
(1.01132 0.0132822 0)
(1.01168 0.0121191 0)
(1.01085 0.011295 0)
(1.01107 0.0108006 0)
(1.01039 0.0102535 0)
(1.01094 0.0097479 0)
(1.01052 0.00914742 0)
(1.01119 0.00871692 0)
(1.01078 0.00827523 0)
(1.01143 0.00798545 0)
(1.01103 0.00762549 0)
(1.01167 0.00739438 0)
(1.01126 0.00700671 0)
(1.01186 0.00677009 0)
(1.01139 0.00638367 0)
(1.01198 0.00622386 0)
(1.01152 0.00593936 0)
(1.01206 0.00588455 0)
(1.01171 0.0056394 0)
(1.01212 0.00555186 0)
(1.01169 0.00519289 0)
(1.01211 0.00516177 0)
(1.01174 0.00494628 0)
(1.01193 0.00495265 0)
(1.01149 0.00477152 0)
(0.994905 0.0158036 0)
(0.994008 0.0172952 0)
(0.994217 0.0185 0)
(0.9961 0.0194297 0)
(0.998566 0.0198588 0)
(1.00185 0.0197628 0)
(1.00469 0.0190619 0)
(1.00752 0.0179042 0)
(1.00933 0.0163275 0)
(1.01076 0.0147291 0)
(1.01103 0.0132357 0)
(1.01125 0.0121019 0)
(1.01083 0.0112492 0)
(1.01079 0.0107346 0)
(1.01043 0.0102137 0)
(1.01066 0.00973416 0)
(1.01058 0.00915399 0)
(1.01094 0.00871351 0)
(1.01089 0.00826605 0)
(1.01123 0.00795931 0)
(1.01118 0.00759992 0)
(1.01152 0.00736644 0)
(1.01146 0.00698921 0)
(1.01175 0.00675402 0)
(1.01165 0.00637841 0)
(1.0119 0.00621091 0)
(1.01178 0.00593735 0)
(1.01202 0.00586533 0)
(1.012 0.00563586 0)
(1.01222 0.0055393 0)
(1.01212 0.00519831 0)
(1.0123 0.00514541 0)
(1.01223 0.00495915 0)
(1.01233 0.00494637 0)
(1.01221 0.00478928 0)
(0.995827 0.015318 0)
(0.994619 0.0166274 0)
(0.994765 0.0176457 0)
(0.996328 0.0184284 0)
(0.998683 0.018794 0)
(1.00161 0.0187549 0)
(1.00437 0.0182037 0)
(1.00693 0.0172601 0)
(1.0088 0.0159196 0)
(1.01014 0.0145042 0)
(1.01064 0.0131506 0)
(1.01084 0.0120755 0)
(1.01066 0.0112019 0)
(1.01055 0.0106544 0)
(1.01035 0.0101471 0)
(1.01044 0.0096945 0)
(1.01051 0.00914329 0)
(1.01075 0.00870498 0)
(1.01085 0.00825586 0)
(1.01108 0.00793312 0)
(1.01117 0.00757054 0)
(1.0114 0.00733214 0)
(1.01147 0.00696505 0)
(1.01165 0.00673129 0)
(1.01168 0.00636964 0)
(1.01182 0.00619577 0)
(1.01183 0.0059331 0)
(1.01196 0.00584474 0)
(1.01204 0.00562748 0)
(1.0122 0.00552007 0)
(1.01223 0.00520071 0)
(1.01232 0.00512916 0)
(1.01233 0.00496597 0)
(1.0124 0.00493628 0)
(1.01238 0.00479926 0)
(0.996652 0.0147881 0)
(0.995203 0.0159422 0)
(0.995216 0.0168071 0)
(0.996547 0.0174689 0)
(0.998746 0.0177798 0)
(1.00143 0.0177695 0)
(1.00405 0.0173376 0)
(1.00642 0.0165785 0)
(1.00826 0.0154684 0)
(1.00956 0.014242 0)
(1.01019 0.0130153 0)
(1.01043 0.0120134 0)
(1.0104 0.0111403 0)
(1.01032 0.0105614 0)
(1.01019 0.010061 0)
(1.01023 0.00963487 0)
(1.01036 0.00911605 0)
(1.01057 0.00868678 0)
(1.01074 0.00824078 0)
(1.01094 0.00790245 0)
(1.01109 0.00753639 0)
(1.01128 0.0072916 0)
(1.01141 0.00693728 0)
(1.01155 0.00670399 0)
(1.01163 0.00635893 0)
(1.01173 0.00617801 0)
(1.01179 0.00592637 0)
(1.0119 0.00582213 0)
(1.012 0.00561682 0)
(1.01215 0.00549729 0)
(1.01221 0.00520161 0)
(1.01227 0.00511359 0)
(1.01232 0.00496929 0)
(1.01239 0.00492524 0)
(1.0124 0.00480576 0)
(0.997398 0.0142305 0)
(0.99574 0.015243 0)
(0.995591 0.0159784 0)
(0.996737 0.0165374 0)
(0.998768 0.0168085 0)
(1.00126 0.016809 0)
(1.00373 0.0164725 0)
(1.00595 0.0158708 0)
(1.00772 0.0149671 0)
(1.009 0.0139287 0)
(1.00971 0.0128237 0)
(1.01001 0.0119041 0)
(1.01008 0.0110651 0)
(1.01006 0.0104638 0)
(1.00999 0.00996343 0)
(1.01002 0.00955791 0)
(1.01017 0.00907019 0)
(1.01038 0.00865204 0)
(1.01058 0.00821691 0)
(1.01078 0.00786708 0)
(1.01097 0.0074998 0)
(1.01116 0.00724642 0)
(1.0113 0.00690563 0)
(1.01143 0.00667044 0)
(1.01154 0.00634397 0)
(1.01163 0.00615662 0)
(1.01171 0.00591725 0)
(1.01181 0.00579765 0)
(1.01193 0.00560385 0)
(1.01207 0.00547187 0)
(1.01216 0.0052001 0)
(1.0122 0.00509822 0)
(1.01226 0.00496957 0)
(1.01233 0.0049139 0)
(1.01236 0.00480968 0)
(0.998076 0.0136622 0)
(0.996226 0.014539 0)
(0.995908 0.0151691 0)
(0.996895 0.0156375 0)
(0.998766 0.0158786 0)
(1.00109 0.0158889 0)
(1.00343 0.0156303 0)
(1.00552 0.0151613 0)
(1.00721 0.0144314 0)
(1.00845 0.0135733 0)
(1.0092 0.0126013 0)
(1.00957 0.0117623 0)
(1.00972 0.0109797 0)
(1.00976 0.0103659 0)
(1.00975 0.00985782 0)
(1.00978 0.00946303 0)
(1.00994 0.00900385 0)
(1.01016 0.00859838 0)
(1.01038 0.00818386 0)
(1.0106 0.00783014 0)
(1.01081 0.00746386 0)
(1.01101 0.00719918 0)
(1.01116 0.00687112 0)
(1.01129 0.00663279 0)
(1.01142 0.00632562 0)
(1.0115 0.00613236 0)
(1.0116 0.00590503 0)
(1.0117 0.0057712 0)
(1.01183 0.005588 0)
(1.01196 0.00544528 0)
(1.01207 0.00519593 0)
(1.01211 0.00508307 0)
(1.01218 0.0049665 0)
(1.01224 0.00490234 0)
(1.01229 0.00481087 0)
(0.998688 0.0130873 0)
(0.996658 0.0138373 0)
(0.996174 0.0143801 0)
(0.997018 0.0147691 0)
(0.998746 0.0149831 0)
(1.00092 0.0150113 0)
(1.00314 0.014816 0)
(1.00512 0.0144554 0)
(1.00674 0.0138708 0)
(1.00793 0.0131737 0)
(1.0087 0.0123456 0)
(1.00912 0.0115828 0)
(1.00933 0.0108669 0)
(1.00943 0.0102621 0)
(1.00948 0.00974632 0)
(1.00953 0.00935665 0)
(1.0097 0.00892736 0)
(1.00992 0.00853558 0)
(1.01016 0.00814419 0)
(1.01039 0.00779061 0)
(1.01062 0.00742614 0)
(1.01083 0.00714985 0)
(1.011 0.0068345 0)
(1.01113 0.00659402 0)
(1.01127 0.00630611 0)
(1.01135 0.00610836 0)
(1.01147 0.00589199 0)
(1.01157 0.00574597 0)
(1.01171 0.00557132 0)
(1.01184 0.00542023 0)
(1.01195 0.00519082 0)
(1.01199 0.00507037 0)
(1.01208 0.00496245 0)
(1.01213 0.0048925 0)
(1.0122 0.00481131 0)
(0.999236 0.0124764 0)
(0.997039 0.0131184 0)
(0.9964 0.0135909 0)
(0.997112 0.0139218 0)
(0.99872 0.0141141 0)
(1.00077 0.0141672 0)
(1.00288 0.0140266 0)
(1.00476 0.013751 0)
(1.0063 0.0132894 0)
(1.00744 0.0127237 0)
(1.00821 0.0120386 0)
(1.00866 0.0113567 0)
(1.00892 0.0107064 0)
(1.00907 0.0101319 0)
(1.00918 0.00961484 0)
(1.00925 0.00922623 0)
(1.00944 0.00882567 0)
(1.00967 0.00844478 0)
(1.00993 0.00807519 0)
(1.01016 0.0077294 0)
(1.01042 0.00737383 0)
(1.01063 0.00709093 0)
(1.01082 0.00678846 0)
(1.01095 0.00654501 0)
(1.0111 0.00627383 0)
(1.01119 0.00607326 0)
(1.01132 0.00586774 0)
(1.01141 0.00571299 0)
(1.01157 0.00554608 0)
(1.01169 0.00538963 0)
(1.01182 0.00517833 0)
(1.01185 0.00505301 0)
(1.01196 0.00495202 0)
(1.01201 0.00487833 0)
(1.01209 0.00480682 0)
(0.999739 0.0118788 0)
(0.997388 0.0124321 0)
(0.996605 0.0128474 0)
(0.997194 0.0131372 0)
(0.9987 0.0133098 0)
(1.00063 0.0133778 0)
(1.00264 0.0132822 0)
(1.00443 0.0130681 0)
(1.0059 0.0127093 0)
(1.00699 0.0122501 0)
(1.00774 0.0116955 0)
(1.0082 0.0111059 0)
(1.00851 0.0105163 0)
(1.00869 0.00998792 0)
(1.00885 0.00948545 0)
(1.00896 0.00909421 0)
(1.00916 0.00871755 0)
(1.0094 0.00834604 0)
(1.00968 0.00799663 0)
(1.00992 0.00766606 0)
(1.01019 0.00732265 0)
(1.01042 0.00703436 0)
(1.01062 0.00674169 0)
(1.01076 0.00649588 0)
(1.01093 0.00623924 0)
(1.01101 0.00603903 0)
(1.01116 0.0058428 0)
(1.01125 0.00568217 0)
(1.01142 0.00552007 0)
(1.01153 0.00536101 0)
(1.01167 0.00516446 0)
(1.01171 0.00503742 0)
(1.01182 0.0049404 0)
(1.01187 0.00486534 0)
(1.01197 0.00480079 0)
(1.00021 0.0112725 0)
(0.997716 0.0117531 0)
(0.996801 0.0121204 0)
(0.997273 0.0123775 0)
(0.998687 0.0125322 0)
(1.00052 0.012602 0)
(1.00243 0.0125475 0)
(1.00414 0.0123877 0)
(1.00555 0.0121184 0)
(1.00659 0.0117555 0)
(1.00732 0.0113101 0)
(1.00777 0.010819 0)
(1.00811 0.0102925 0)
(1.00832 0.00981529 0)
(1.00852 0.00934337 0)
(1.00867 0.00894853 0)
(1.00889 0.0085924 0)
(1.00914 0.0082341 0)
(1.00943 0.00790229 0)
(1.00968 0.00759082 0)
(1.00997 0.00726237 0)
(1.0102 0.006973 0)
(1.01042 0.00669146 0)
(1.01056 0.00644778 0)
(1.01075 0.00620347 0)
(1.01084 0.00600455 0)
(1.011 0.00581485 0)
(1.01109 0.00565166 0)
(1.01126 0.00549359 0)
(1.01137 0.00533521 0)
(1.01152 0.00515092 0)
(1.01156 0.00502425 0)
(1.01169 0.00492939 0)
(1.01173 0.0048545 0)
(1.01185 0.00479542 0)
(1.00066 0.0106566 0)
(0.998034 0.0110708 0)
(0.996997 0.0113929 0)
(0.997357 0.0116196 0)
(0.998685 0.0117595 0)
(1.00043 0.011829 0)
(1.00227 0.0118129 0)
(1.0039 0.0117052 0)
(1.00525 0.0115075 0)
(1.00624 0.0112277 0)
(1.00694 0.0108671 0)
(1.00737 0.010469 0)
(1.00772 0.0100138 0)
(1.00795 0.00958295 0)
(1.00819 0.00915346 0)
(1.00837 0.00876529 0)
(1.00861 0.00843022 0)
(1.00888 0.00809116 0)
(1.0092 0.00777341 0)
(1.00944 0.00748096 0)
(1.00974 0.0071725 0)
(1.00999 0.00688834 0)
(1.01023 0.00661955 0)
(1.01037 0.00637866 0)
(1.01057 0.00614411 0)
(1.01067 0.00594816 0)
(1.01084 0.00576689 0)
(1.01094 0.00560457 0)
(1.01112 0.00545167 0)
(1.01122 0.00529503 0)
(1.01138 0.0051227 0)
(1.01142 0.00499739 0)
(1.01157 0.00490652 0)
(1.01161 0.00483172 0)
(1.01174 0.00477981 0)
(1.00107 0.0100969 0)
(0.998334 0.0104477 0)
(0.997186 0.0107256 0)
(0.997446 0.0109266 0)
(0.998697 0.0110568 0)
(1.00038 0.0111308 0)
(1.00214 0.0111407 0)
(1.00371 0.0110755 0)
(1.005 0.0109292 0)
(1.00594 0.0107172 0)
(1.00661 0.0104277 0)
(1.00702 0.0101093 0)
(1.00737 0.00973072 0)
(1.00761 0.00934468 0)
(1.00787 0.00896288 0)
(1.00808 0.00859497 0)
(1.00835 0.00827632 0)
(1.00862 0.00795711 0)
(1.00896 0.00764858 0)
(1.00921 0.00737245 0)
(1.00953 0.00708579 0)
(1.00978 0.00681098 0)
(1.01004 0.00655436 0)
(1.01019 0.00631897 0)
(1.01041 0.00609297 0)
(1.01051 0.00590209 0)
(1.0107 0.00572657 0)
(1.01079 0.00556556 0)
(1.01098 0.00541552 0)
(1.01108 0.00526322 0)
(1.01125 0.00510051 0)
(1.0113 0.00497827 0)
(1.01146 0.00488869 0)
(1.01149 0.00481559 0)
(1.01164 0.00476731 0)
(1.00148 0.00952664 0)
(0.998635 0.0098293 0)
(0.997395 0.010073 0)
(0.997567 0.0102588 0)
(0.99875 0.0103843 0)
(1.00037 0.010464 0)
(1.00207 0.0104873 0)
(1.00357 0.0104549 0)
(1.00481 0.0103507 0)
(1.0057 0.0101953 0)
(1.00634 0.00997121 0)
(1.00673 0.00971583 0)
(1.00707 0.00941127 0)
(1.00731 0.00907333 0)
(1.00759 0.00873754 0)
(1.00782 0.00840018 0)
(1.00812 0.00809648 0)
(1.00839 0.00780035 0)
(1.00876 0.00750641 0)
(1.00902 0.00724883 0)
(1.00934 0.00698596 0)
(1.0096 0.00672269 0)
(1.00988 0.00647862 0)
(1.01004 0.00625259 0)
(1.01027 0.00603436 0)
(1.01038 0.00584809 0)
(1.01057 0.00567782 0)
(1.01067 0.00552165 0)
(1.01087 0.00537654 0)
(1.01096 0.00522995 0)
(1.01115 0.00507458 0)
(1.01119 0.00495609 0)
(1.01137 0.00486822 0)
(1.0114 0.00479785 0)
(1.01157 0.00475217 0)
(1.00186 0.00893374 0)
(0.998933 0.00919886 0)
(0.997611 0.00941267 0)
(0.997704 0.00958264 0)
(0.998823 0.00969953 0)
(1.00038 0.00977872 0)
(1.00204 0.00981105 0)
(1.00348 0.00980427 0)
(1.00467 0.0097404 0)
(1.00552 0.00963236 0)
(1.00613 0.00946961 0)
(1.00649 0.00926739 0)
(1.00681 0.00903066 0)
(1.00705 0.00874708 0)
(1.00733 0.00845776 0)
(1.00757 0.00815954 0)
(1.00789 0.00787667 0)
(1.00818 0.00760729 0)
(1.00856 0.00733214 0)
(1.00884 0.00708923 0)
(1.00917 0.00684921 0)
(1.00944 0.00659951 0)
(1.00973 0.00637112 0)
(1.00989 0.00615861 0)
(1.01015 0.00595142 0)
(1.01026 0.005772 0)
(1.01047 0.00560985 0)
(1.01056 0.00545823 0)
(1.01078 0.00531855 0)
(1.01086 0.00517754 0)
(1.01106 0.00503289 0)
(1.01111 0.00491887 0)
(1.0113 0.00483519 0)
(1.01133 0.004766 0)
(1.01151 0.0047255 0)
(1.00221 0.00838657 0)
(0.999195 0.00861421 0)
(0.9978 0.0087982 0)
(0.997822 0.00894888 0)
(0.998883 0.00905687 0)
(1.00039 0.00913566 0)
(1.002 0.00917995 0)
(1.0034 0.00919404 0)
(1.00455 0.00916622 0)
(1.00535 0.00909642 0)
(1.00593 0.00898453 0)
(1.00627 0.0088273 0)
(1.00656 0.00864389 0)
(1.00678 0.00841452 0)
(1.00708 0.00816848 0)
(1.00732 0.00791036 0)
(1.00766 0.00765289 0)
(1.00795 0.00741189 0)
(1.00836 0.00715682 0)
(1.00864 0.00692646 0)
(1.00899 0.00671071 0)
(1.00926 0.00648134 0)
(1.00958 0.00626847 0)
(1.00974 0.00607023 0)
(1.01001 0.00587286 0)
(1.01013 0.00570094 0)
(1.01035 0.00554547 0)
(1.01045 0.00540007 0)
(1.01067 0.0052666 0)
(1.01075 0.00513389 0)
(1.01097 0.00499666 0)
(1.01102 0.00488781 0)
(1.01122 0.00480648 0)
(1.01125 0.00474104 0)
(1.01145 0.00470225 0)
(1.0025 0.00785727 0)
(0.999417 0.00804946 0)
(0.997958 0.00820804 0)
(0.997922 0.00834165 0)
(0.998935 0.00844468 0)
(1.0004 0.00852437 0)
(1.00198 0.00857871 0)
(1.00333 0.00860621 0)
(1.00445 0.00860311 0)
(1.00521 0.00856105 0)
(1.00575 0.00848586 0)
(1.00606 0.00836834 0)
(1.00633 0.00822874 0)
(1.00653 0.00805123 0)
(1.00682 0.00784729 0)
(1.00707 0.00763013 0)
(1.00742 0.00740386 0)
(1.00772 0.00719322 0)
(1.00813 0.00696318 0)
(1.00844 0.00674829 0)
(1.0088 0.00655472 0)
(1.00907 0.00634572 0)
(1.0094 0.00614583 0)
(1.00958 0.00596363 0)
(1.00986 0.00577978 0)
(1.00998 0.00561802 0)
(1.01022 0.00547043 0)
(1.01032 0.00533349 0)
(1.01056 0.00520525 0)
(1.01063 0.00508039 0)
(1.01087 0.00495099 0)
(1.01091 0.00485013 0)
(1.01114 0.00477128 0)
(1.01116 0.00471004 0)
(1.01138 0.0046725 0)
(1.00275 0.00732185 0)
(0.999606 0.00748406 0)
(0.998095 0.00762243 0)
(0.998011 0.00774104 0)
(0.998983 0.00783894 0)
(1.00041 0.0079164 0)
(1.00195 0.00797525 0)
(1.00327 0.00801011 0)
(1.00435 0.00802363 0)
(1.00507 0.00800438 0)
(1.00559 0.00796054 0)
(1.00587 0.00788299 0)
(1.00612 0.00778308 0)
(1.00629 0.00765235 0)
(1.00658 0.00748975 0)
(1.00681 0.00731323 0)
(1.00718 0.0071196 0)
(1.00748 0.00693623 0)
(1.0079 0.00673685 0)
(1.00822 0.00654094 0)
(1.0086 0.00636789 0)
(1.00887 0.00618007 0)
(1.00922 0.00599738 0)
(1.0094 0.00583337 0)
(1.0097 0.00566553 0)
(1.00982 0.00551336 0)
(1.01008 0.00537554 0)
(1.01017 0.0052457 0)
(1.01043 0.00512668 0)
(1.0105 0.00501058 0)
(1.01075 0.00489164 0)
(1.01079 0.00479585 0)
(1.01104 0.00472351 0)
(1.01106 0.00466445 0)
(1.0113 0.00463297 0)
(1.00295 0.00680109 0)
(0.99976 0.00693741 0)
(0.998206 0.00705914 0)
(0.998081 0.00716238 0)
(0.999019 0.00725434 0)
(1.00041 0.00732677 0)
(1.00193 0.00738945 0)
(1.00321 0.00743073 0)
(1.00426 0.00746054 0)
(1.00495 0.00746347 0)
(1.00544 0.00744877 0)
(1.00569 0.00740429 0)
(1.00593 0.00733522 0)
(1.00607 0.00724196 0)
(1.00634 0.00711849 0)
(1.00656 0.00698088 0)
(1.00694 0.00682319 0)
(1.00724 0.00666437 0)
(1.00767 0.00650161 0)
(1.008 0.00632564 0)
(1.00839 0.00617343 0)
(1.00866 0.00600874 0)
(1.00903 0.00584574 0)
(1.00921 0.00569421 0)
(1.00952 0.00554402 0)
(1.00965 0.00540049 0)
(1.00992 0.00527629 0)
(1.01001 0.00515283 0)
(1.01028 0.00504495 0)
(1.01035 0.00493267 0)
(1.01061 0.004826 0)
(1.01066 0.00473338 0)
(1.01092 0.0046706 0)
(1.01094 0.0046098 0)
(1.0112 0.00458646 0)
(1.00311 0.0062661 0)
(0.999878 0.00638387 0)
(0.998287 0.0064917 0)
(0.998128 0.0065839 0)
(0.999038 0.00666939 0)
(1.0004 0.00674047 0)
(1.00189 0.00680595 0)
(1.00316 0.006858 0)
(1.00419 0.00690028 0)
(1.00485 0.00692692 0)
(1.00531 0.00693156 0)
(1.00553 0.00691778 0)
(1.00574 0.00687317 0)
(1.00586 0.00681807 0)
(1.00611 0.00673007 0)
(1.00632 0.00663425 0)
(1.00669 0.00651398 0)
(1.00699 0.00638594 0)
(1.00742 0.00625665 0)
(1.00776 0.0061079 0)
(1.00816 0.00597072 0)
(1.00843 0.0058361 0)
(1.00882 0.00568695 0)
(1.009 0.00555506 0)
(1.00932 0.00541881 0)
(1.00946 0.00529284 0)
(1.00974 0.00517325 0)
(1.00984 0.00506315 0)
(1.01011 0.0049567 0)
(1.01018 0.00485839 0)
(1.01046 0.00475177 0)
(1.01051 0.004672 0)
(1.01078 0.00460419 0)
(1.01081 0.00455422 0)
(1.01109 0.00451911 0)
(1.00324 0.00568618 0)
(0.999963 0.00579113 0)
(0.998341 0.00588751 0)
(0.998151 0.00597188 0)
(0.999041 0.00605072 0)
(1.00038 0.00612191 0)
(1.00186 0.00618792 0)
(1.0031 0.00624893 0)
(1.00411 0.00629941 0)
(1.00474 0.00634491 0)
(1.00518 0.00636874 0)
(1.00537 0.00638622 0)
(1.00556 0.00637453 0)
(1.00565 0.00635678 0)
(1.0059 0.0063083 0)
(1.00609 0.00624918 0)
(1.00645 0.00616942 0)
(1.00674 0.00607678 0)
(1.00717 0.00598269 0)
(1.0075 0.00587116 0)
(1.00793 0.00575915 0)
(1.00819 0.00565644 0)
(1.00859 0.00553301 0)
(1.00878 0.00542625 0)
(1.00911 0.0053121 0)
(1.00924 0.00520736 0)
(1.00954 0.00510338 0)
(1.00963 0.00501115 0)
(1.00993 0.00491724 0)
(1.00999 0.00483457 0)
(1.01029 0.00473752 0)
(1.01032 0.00467027 0)
(1.01063 0.0046082 0)
(1.01064 0.00456666 0)
(1.01095 0.00453188 0)
(1.00344 0.00434584 0)
(1.00008 0.00438723 0)
(0.998389 0.00443219 0)
(0.998135 0.0044762 0)
(0.998987 0.0045266 0)
(1.00029 0.00457858 0)
(1.00174 0.00463549 0)
(1.00294 0.00469271 0)
(1.00393 0.00474983 0)
(1.00451 0.00480396 0)
(1.00491 0.00485127 0)
(1.00504 0.00489083 0)
(1.00518 0.00491833 0)
(1.00522 0.00493326 0)
(1.0054 0.00493631 0)
(1.00555 0.00492227 0)
(1.00589 0.00490318 0)
(1.00615 0.00486693 0)
(1.00659 0.00483351 0)
(1.0069 0.00478299 0)
(1.00736 0.00473279 0)
(1.00761 0.0046764 0)
(1.00803 0.00461473 0)
(1.00822 0.00454848 0)
(1.00857 0.00448627 0)
(1.0087 0.00441927 0)
(1.00903 0.00436466 0)
(1.00911 0.00430423 0)
(1.00944 0.00425504 0)
(1.00949 0.00419649 0)
(1.00982 0.00414184 0)
(1.00986 0.00409427 0)
(1.0102 0.00406911 0)
(1.01021 0.00403665 0)
(1.01057 0.00403183 0)
(1.00223 0.00310042 0)
(0.998964 0.00316778 0)
(0.997381 0.00324392 0)
(0.997238 0.00332643 0)
(0.998187 0.0034128 0)
(0.999565 0.00350103 0)
(1.00107 0.00358865 0)
(1.0023 0.00367551 0)
(1.00328 0.00375925 0)
(1.00384 0.00384178 0)
(1.0042 0.00392052 0)
(1.00428 0.00399816 0)
(1.00437 0.00407227 0)
(1.00435 0.00414531 0)
(1.00449 0.00421569 0)
(1.00459 0.00428342 0)
(1.00489 0.00434651 0)
(1.00513 0.00440155 0)
(1.00555 0.00444806 0)
(1.00584 0.00448343 0)
(1.00627 0.00450571 0)
(1.00653 0.00451479 0)
(1.00693 0.00451017 0)
(1.00712 0.00449763 0)
(1.00747 0.00447486 0)
(1.0076 0.00445233 0)
(1.00792 0.00442908 0)
(1.00802 0.00440465 0)
(1.00834 0.00438094 0)
(1.00841 0.0043525 0)
(1.00875 0.00431283 0)
(1.0088 0.00428673 0)
(1.00915 0.0042665 0)
(1.00919 0.00424403 0)
(1.00955 0.00423164 0)
(1.00265 -0.0030294 0)
(0.999389 -0.00270879 0)
(0.997771 -0.00212438 0)
(0.997523 -0.00141807 0)
(0.998356 -0.000717294 0)
(0.999585 -0.000109383 0)
(1.00097 0.00036609 0)
(1.00207 0.00070754 0)
(1.00298 0.000936977 0)
(1.00346 0.00109098 0)
(1.0038 0.00120838 0)
(1.00383 0.00132449 0)
(1.00392 0.00146077 0)
(1.00386 0.00162825 0)
(1.004 0.00182521 0)
(1.00404 0.00204312 0)
(1.00431 0.00227072 0)
(1.00445 0.00249213 0)
(1.00482 0.00269775 0)
(1.00501 0.00287503 0)
(1.0054 0.0030224 0)
(1.00556 0.00313766 0)
(1.00594 0.00322311 0)
(1.00606 0.00328636 0)
(1.00641 0.00333249 0)
(1.00649 0.00337097 0)
(1.00684 0.00340661 0)
(1.00688 0.00343777 0)
(1.00725 0.0034686 0)
(1.00727 0.00348992 0)
(1.00766 0.00349869 0)
(1.00767 0.00351275 0)
(1.00808 0.00352648 0)
(1.00807 0.00352763 0)
(1.00851 0.00353072 0)
(1.00024 -0.00355541 0)
(1.00363 -0.00325754 0)
(1.0055 -0.00269601 0)
(1.00585 -0.00201268 0)
(1.00526 -0.00133326 0)
(1.00412 -0.000745183 0)
(1.00298 -0.000286132 0)
(1.00197 4.15699e-05 0)
(1.00136 0.000261315 0)
(1.00099 0.000408123 0)
(1.001 0.000521553 0)
(1.00111 0.000635088 0)
(1.00141 0.000770748 0)
(1.00163 0.000938582 0)
(1.00193 0.00113772 0)
(1.00206 0.00135913 0)
(1.00227 0.00159281 0)
(1.00229 0.00182248 0)
(1.00243 0.00204049 0)
(1.00241 0.00223238 0)
(1.00256 0.00239916 0)
(1.00257 0.00253579 0)
(1.00276 0.00264684 0)
(1.0028 0.00273649 0)
(1.00305 0.00281131 0)
(1.00311 0.00287811 0)
(1.00339 0.00294267 0)
(1.00345 0.00300059 0)
(1.00375 0.0030588 0)
(1.0038 0.00310399 0)
(1.00412 0.00313672 0)
(1.00416 0.00317034 0)
(1.00449 0.00320199 0)
(1.00451 0.00321559 0)
(1.00487 0.00322788 0)
(1.00049 0.00110866 0)
(1.00391 0.00113468 0)
(1.00575 0.00116804 0)
(1.00603 0.00120687 0)
(1.00534 0.00125044 0)
(1.0041 0.00129717 0)
(1.00289 0.00134697 0)
(1.00181 0.0013994 0)
(1.00115 0.00145426 0)
(1.00076 0.00151266 0)
(1.00076 0.00157366 0)
(1.00086 0.00163971 0)
(1.00117 0.00170896 0)
(1.00138 0.00178494 0)
(1.00167 0.00186509 0)
(1.00177 0.00195191 0)
(1.00194 0.0020418 0)
(1.0019 0.00213408 0)
(1.00198 0.00222676 0)
(1.00189 0.00231639 0)
(1.00198 0.00240176 0)
(1.00192 0.00247896 0)
(1.00207 0.00254765 0)
(1.00205 0.00261105 0)
(1.00226 0.00266462 0)
(1.00228 0.0027184 0)
(1.00254 0.00276888 0)
(1.00257 0.0028157 0)
(1.00286 0.0028597 0)
(1.00287 0.00289389 0)
(1.00319 0.00291286 0)
(1.00319 0.00293764 0)
(1.00353 0.00295729 0)
(1.00352 0.00296513 0)
(1.00389 0.00296935 0)
(0.998701 0.000765987 0)
(1.00226 0.000753796 0)
(1.00425 0.000748144 0)
(1.00469 0.000748011 0)
(1.00415 0.000756574 0)
(1.00304 0.000771303 0)
(1.00192 0.000793949 0)
(1.00092 0.000821309 0)
(1.00031 0.000854503 0)
(0.999954 0.000890776 0)
(0.999963 0.000930989 0)
(1.00008 0.000973663 0)
(1.00039 0.00102004 0)
(1.00062 0.00106961 0)
(1.00092 0.00112417 0)
(1.00104 0.00118266 0)
(1.00121 0.00124783 0)
(1.0012 0.00131599 0)
(1.00128 0.00139084 0)
(1.0012 0.00146507 0)
(1.00127 0.00154303 0)
(1.0012 0.00161675 0)
(1.00131 0.00168988 0)
(1.00128 0.00175851 0)
(1.00145 0.00182496 0)
(1.00145 0.00188922 0)
(1.00167 0.00195487 0)
(1.00169 0.0020139 0)
(1.00194 0.00207417 0)
(1.00196 0.0021213 0)
(1.00223 0.00215951 0)
(1.00224 0.00219685 0)
(1.00253 0.00223313 0)
(1.00253 0.00225197 0)
(1.00285 0.00226924 0)
(0.998581 0.00103413 0)
(1.00216 0.00105093 0)
(1.00415 0.00106933 0)
(1.00461 0.00108854 0)
(1.00407 0.0011096 0)
(1.00298 0.00113172 0)
(1.00186 0.00115569 0)
(1.00087 0.00118105 0)
(1.00025 0.00120808 0)
(0.999905 0.00123709 0)
(0.999904 0.00126761 0)
(1.00003 0.00130093 0)
(1.00033 0.00133593 0)