/*--------------------------------*- C++ -*----------------------------------*\
| =========                 |                                                 |
| \\      /  F ield         | OpenFOAM: The Open Source CFD Toolbox           |
|  \\    /   O peration     | Version:  1.4.1-dev                             |
|   \\  /    A nd           | Web:      http://www.openfoam.org               |
|    \\/     M anipulation  |                                                 |
\*---------------------------------------------------------------------------*/

FoamFile
{
    version 2.0;
    format ascii;

    root "/home/mjaworsk/OpenFOAM/mjaworsk-1.4.1-dev/run/FlatPlate-Blasius";
    case "icoHeatFoam-flatPlate2";
    instance "0.9";
    local "";

    class volScalarField;
    object p;
}

// * * * * * * * * * * * * * * * * * * * * * * * * * * * * * * * * * * * * * //

dimensions      [0 2 -2 0 0 0 0];

internalField   nonuniform List<scalar> 
2475
(
0.00436166
0.00181756
0.000190352
-0.000219116
-0.000179278
-0.00010432
-6.54521e-05
-4.5955e-05
-3.29152e-05
-2.26863e-05
-1.45139e-05
-7.97515e-06
-2.82432e-06
1.1793e-06
4.16734e-06
6.27095e-06
7.60192e-06
8.22092e-06
8.26708e-06
7.71712e-06
6.76452e-06
5.30075e-06
3.62975e-06
1.5759e-06
-4.70525e-07
-2.79563e-06
-5.03412e-06
-7.36914e-06
-9.59892e-06
-1.12407e-05
-1.30911e-05
-1.2583e-05
-1.40119e-05
-8.16684e-06
-1.09917e-05
0.0038041
0.00181427
0.000287397
-0.000158234
-0.000143471
-8.2483e-05
-5.18769e-05
-3.65623e-05
-2.57304e-05
-1.69487e-05
-9.84256e-06
-4.10878e-06
4.18331e-07
3.93048e-06
6.5203e-06
8.30139e-06
9.36255e-06
9.76033e-06
9.6157e-06
8.90936e-06
7.81682e-06
6.24001e-06
4.4625e-06
2.32601e-06
1.95869e-07
-2.18879e-06
-4.49531e-06
-6.87158e-06
-9.15965e-06
-1.08268e-05
-1.27305e-05
-1.22319e-05
-1.3713e-05
-7.86099e-06
-1.0726e-05
0.00329853
0.00182932
0.000434228
-7.52464e-05
-0.000101341
-5.46977e-05
-3.31663e-05
-2.41831e-05
-1.69533e-05
-1.02509e-05
-4.53695e-06
1.89886e-07
3.96394e-06
6.90089e-06
9.03612e-06
1.04552e-05
1.12184e-05
1.13739e-05
1.10233e-05
1.01485e-05
8.90732e-06
7.20991e-06
5.32064e-06
3.09652e-06
8.79626e-07
-1.56796e-06
-3.94451e-06
-6.36468e-06
-8.71267e-06
-1.04072e-05
-1.23656e-05
-1.18778e-05
-1.34129e-05
-7.55674e-06
-1.04694e-05
0.00290977
0.00184324
0.000606803
3.52684e-05
-4.66529e-05
-1.82824e-05
-6.86687e-06
-6.55486e-06
-4.94954e-06
-1.44339e-06
2.24609e-06
5.54009e-06
8.26344e-06
1.042e-05
1.19583e-05
1.29138e-05
1.33061e-05
1.31655e-05
1.25695e-05
1.14959e-05
1.00839e-05
8.2479e-06
6.23399e-06
3.91096e-06
1.59965e-06
-9.18328e-07
-3.36967e-06
-5.83928e-06
-8.25032e-06
-9.97674e-06
-1.19916e-05
-1.15194e-05
-1.31078e-05
-7.259e-06
-1.02173e-05
0.00259572
0.00182354
0.00076653
0.00016106
1.87818e-05
2.55953e-05
2.7775e-05
1.84041e-05
1.22465e-05
1.09821e-05
1.17184e-05
1.29534e-05
1.41519e-05
1.51667e-05
1.58358e-05
1.61202e-05
1.59839e-05
1.54246e-05
1.44902e-05
1.31443e-05
1.15059e-05
9.48598e-06
7.31317e-06
4.86213e-06
2.43448e-06
-1.73379e-07
-2.714e-06
-5.24676e-06
-7.73088e-06
-9.49966e-06
-1.15777e-05
-1.11307e-05
-1.27743e-05
-6.9538e-06
-9.94752e-06
0.00233202
0.00176482
0.000893318
0.000289136
9.01974e-05
7.17276e-05
6.66178e-05
4.93183e-05
3.47436e-05
2.74776e-05
2.43843e-05
2.2955e-05
2.21411e-05
2.1612e-05
2.10882e-05
2.04415e-05
1.95676e-05
1.8419e-05
1.701e-05
1.528e-05
1.33277e-05
1.10513e-05
8.66366e-06
6.03628e-06
3.45555e-06
7.24861e-07
-1.92935e-06
-4.54821e-06
-7.12214e-06
-8.95055e-06
-1.11033e-05
-1.06972e-05
-1.23992e-05
-6.6405e-06
-9.64625e-06
0.0021107
0.00168108
0.000983141
0.000412126
0.000166631
0.000118169
0.000105725
8.32294e-05
6.11199e-05
4.73481e-05
3.98645e-05
3.54079e-05
3.22716e-05
2.98977e-05
2.79027e-05
2.60832e-05
2.42643e-05
2.23487e-05
2.03145e-05
1.80716e-05
1.56992e-05
1.30749e-05
1.03988e-05
7.52995e-06
4.74455e-06
1.84425e-06
-9.59042e-07
-3.69732e-06
-6.38592e-06
-8.29956e-06
-1.05443e-05
-1.02029e-05
-1.19679e-05
-6.32163e-06
-9.29599e-06
0.00192535
0.00158801
0.00103852
0.000523804
0.00024752
0.000165845
0.000143483
0.000117798
8.98958e-05
6.97086e-05
5.74507e-05
4.97457e-05
4.4161e-05
3.98076e-05
3.61798e-05
3.30274e-05
3.01087e-05
2.72855e-05
2.44954e-05
2.16232e-05
1.87266e-05
1.56632e-05
1.2619e-05
9.43744e-06
6.38585e-06
3.26073e-06
2.62493e-07
-2.63648e-06
-5.4739e-06
-7.50594e-06
-9.86787e-06
-9.62422e-06
-1.14592e-05
-5.99564e-06
-8.87055e-06
0.0017687
0.00149568
0.00106465
0.000618353
0.000330059
0.000216081
0.000179905
0.000151524
0.000119857
9.39414e-05
7.66712e-05
6.54718e-05
5.73506e-05
5.09731e-05
4.5641e-05
4.10736e-05
3.69633e-05
3.31482e-05
2.95133e-05
2.59321e-05
2.24293e-05
1.88558e-05
1.53722e-05
1.18167e-05
8.43689e-06
5.03499e-06
1.79015e-06
-1.31095e-06
-4.33914e-06
-6.52516e-06
-9.03767e-06
-8.93144e-06
-1.08473e-05
-5.65518e-06
-8.33991e-06
0.00163421
0.00140893
0.00106846
0.000692229
0.000409718
0.000269312
0.000215997
0.000183711
0.000149941
0.000119535
9.73204e-05
8.23557e-05
7.15526e-05
6.31088e-05
5.60331e-05
5.00005e-05
4.46377e-05
3.97791e-05
3.52424e-05
3.09062e-05
2.67415e-05
2.26152e-05
1.86377e-05
1.46682e-05
1.09062e-05
7.19021e-06
3.64774e-06
3.12536e-07
-2.95243e-06
-5.32232e-06
-8.02483e-06
-8.09666e-06
-1.01081e-05
-5.28791e-06
-7.68179e-06
0.001517
0.00132936
0.00105709
0.000745156
0.000481922
0.000324607
0.000253045
0.000214504
0.000179319
0.000145905
0.000119256
0.000100357
8.66667e-05
7.60707e-05
6.72136e-05
5.96707e-05
5.30005e-05
4.70495e-05
4.15626e-05
3.64363e-05
3.15682e-05
2.68622e-05
2.23505e-05
1.79449e-05
1.37582e-05
9.70789e-06
5.82263e-06
2.23535e-06
-1.31147e-06
-3.88427e-06
-6.81722e-06
-7.10316e-06
-9.22677e-06
-4.87946e-06
-6.89577e-06
0.00141364
0.00125683
0.00103642
0.000779503
0.000543352
0.000379731
0.000291788
0.00024466
0.000207569
0.00017239
0.000142226
0.000119479
0.000102706
8.98193e-05
7.91265e-05
7.00276e-05
6.19986e-05
5.48984e-05
4.84105e-05
4.24526e-05
3.68412e-05
3.15283e-05
2.64476e-05
2.15881e-05
1.69424e-05
1.25458e-05
8.28072e-06
4.43206e-06
5.64445e-07
-2.22263e-06
-5.42061e-06
-5.95197e-06
-8.20211e-06
-4.41783e-06
-6.01115e-06
0.0013217
0.00119057
0.00101048
0.000798927
0.000592461
0.000431842
0.000331954
0.000275056
0.000234756
0.000198416
0.000165814
0.000139644
0.000119713
0.000104375
9.17638e-05
8.10583e-05
7.16254e-05
6.33164e-05
5.5774e-05
4.89327e-05
4.25358e-05
3.65792e-05
3.08957e-05
2.55576e-05
2.04231e-05
1.56641e-05
1.09903e-05
6.86814e-06
2.65088e-06
-3.64808e-07
-3.85036e-06
-4.66029e-06
-7.04474e-06
-3.89708e-06
-5.07976e-06
0.00123942
0.00112986
0.00098185
0.000807165
0.000629444
0.000478439
0.000372283
0.000306171
0.000261307
0.00022366
0.000189526
0.000160634
0.000137688
0.000119777
0.000105142
9.27678e-05
8.18901e-05
7.23177e-05
6.3668e-05
5.58858e-05
4.8658e-05
4.20126e-05
3.56911e-05
2.98399e-05
2.41893e-05
1.90411e-05
1.39364e-05
9.51712e-06
4.93256e-06
1.66108e-06
-2.1202e-06
-3.25162e-06
-5.77101e-06
-3.31705e-06
-4.15678e-06
0.00116543
0.00107417
0.000952127
0.000807392
0.000655653
0.00051792
0.000410985
0.000337824
0.000287704
0.000248118
0.000212935
0.000182102
0.000156526
0.000136046
0.000119286
0.000105167
9.2801e-05
8.19192e-05
7.21139e-05
6.33346e-05
5.5228e-05
4.7844e-05
4.08476e-05
3.44415e-05
2.82478e-05
2.26741e-05
1.71205e-05
1.23675e-05
7.40691e-06
3.83699e-06
-2.36716e-07
-1.74423e-06
-4.39677e-06
-2.67905e-06
-3.28329e-06
0.00109871
0.00102317
0.000922404
0.000802082
0.000672929
0.000549739
0.000446349
0.00036921
0.000314159
0.000271999
0.0002358
0.000203667
0.000176006
0.000153132
0.000134204
0.000118264
0.00010436
9.21297e-05
8.11273e-05
7.13009e-05
6.22681e-05
5.4095e-05
4.63849e-05
3.93788e-05
3.26144e-05
2.65723e-05
2.05535e-05
1.54207e-05
1.00799e-05
6.15748e-06
1.79912e-06
-1.45143e-07
-2.9352e-06
-1.98147e-06
-2.48107e-06
0.00103854
0.000976706
0.000893551
0.000793149
0.000683157
0.000574201
0.000477137
0.000399178
0.000340463
0.000295512
0.000258075
0.000225017
0.000195832
0.0001709
0.000149867
0.000132059
0.000116562
0.000102947
9.07133e-05
7.97983e-05
6.97967e-05
6.07853e-05
5.2323e-05
4.46698e-05
3.73069e-05
3.07499e-05
2.42501e-05
1.86858e-05
1.29606e-05
8.62715e-06
3.98804e-06
1.54923e-06
-1.3972e-06
-1.21887e-06
-1.7567e-06
0.000984486
0.000934883
0.000866379
0.000782146
0.000688062
0.000592106
0.000502726
0.000426591
0.000366032
0.000318678
0.000279827
0.000245966
0.000215709
0.000189135
0.000166182
0.000146522
0.000129394
0.000114359
0.000100866
8.88293e-05
7.78242e-05
6.79292e-05
5.86786e-05
5.03306e-05
4.23425e-05
3.52215e-05
2.82244e-05
2.21755e-05
1.60573e-05
1.12566e-05
6.32997e-06
3.3491e-06
2.08048e-07
-3.84327e-07
-1.10691e-06
0.000936389
0.000898001
0.000841721
0.000770422
0.000689182
0.000604486
0.000523055
0.000450579
0.00039009
0.000341254
0.000301092
0.000266443
0.0002354
0.000207588
0.000182994
0.000161583
0.000142823
0.000126341
0.000111568
9.83842e-05
8.6351e-05
7.55329e-05
6.54633e-05
5.63735e-05
4.7735e-05
4.00013e-05
3.24875e-05
2.59034e-05
1.93758e-05
1.40588e-05
8.82339e-06
5.26682e-06
1.87344e-06
5.27331e-07
-5.22041e-07
0.00089421
0.000866474
0.000820407
0.000759181
0.000687902
0.000612459
0.000538484
0.000470668
0.000411892
0.000362793
0.000321778
0.000286428
0.000254761
0.000226032
0.000200108
0.000177123
0.000156789
0.000138855
0.000122793
0.000108442
9.53665e-05
8.35938e-05
7.26816e-05
6.28073e-05
5.34931e-05
4.5103e-05
3.7047e-05
2.98827e-05
2.29192e-05
1.70463e-05
1.14656e-05
7.31363e-06
3.5949e-06
1.51708e-06
1.14517e-08
0.000857736
0.000840523
0.00080306
0.000749394
0.000685407
0.000617117
0.000549622
0.000486769
0.000430882
0.000382766
0.000341642
0.00030586
0.000273707
0.000244288
0.000217324
0.000192989
0.000171197
0.000151846
0.000134498
0.000118974
0.00010485
9.21009e-05
8.03283e-05
6.96367e-05
5.96198e-05
5.05371e-05
4.19086e-05
3.41248e-05
2.66888e-05
2.02303e-05
1.42541e-05
9.49752e-06
5.37284e-06
2.58127e-06
5.08172e-07
0.000826306
0.000819834
0.000789809
0.000741623
0.00068257
0.000619403
0.000557158
0.000499061
0.000446738
0.000400665
0.00036031
0.000324569
0.000292145
0.000262219
0.000234456
0.000209003
0.000185918
0.000165227
0.000146625
0.000129934
0.000114766
0.000101033
8.83879e-05
7.68591e-05
6.61134e-05
5.63085e-05
4.70745e-05
3.86382e-05
3.06833e-05
2.36183e-05
1.71881e-05
1.18219e-05
7.21262e-06
3.71408e-06
9.81972e-07
0.000798917
0.000803507
0.000780187
0.00073594
0.000679911
0.000620064
0.000561776
0.000507895
0.000459374
0.000416097
0.000377359
0.000342274
0.000309917
0.000279689
0.00025133
0.000224981
0.000200789
0.000178878
0.000159084
0.000141256
0.00012506
0.000110354
9.68324e-05
8.44588e-05
7.29651e-05
6.24152e-05
5.25398e-05
4.3427e-05
3.48986e-05
2.721e-05
2.02664e-05
1.42835e-05
9.12051e-06
4.90934e-06
1.44546e-06
0.000774592
0.000790359
0.00077331
0.000732015
0.000677644
0.00061968
0.000564144
0.000513767
0.000468938
0.000428873
0.000392433
0.000358648
0.000326805
0.000296549
0.0002678
0.000240755
0.000215642
0.000192657
0.000171763
0.000152853
0.000135662
0.00012001
0.000105623
9.24089e-05
8.01565e-05
6.88505e-05
5.82944e-05
4.84876e-05
3.93332e-05
3.0999e-05
2.34878e-05
1.68745e-05
1.10994e-05
6.15888e-06
1.9075e-06
0.000752429
0.000779142
0.000768078
0.000729217
0.000675693
0.0006186
0.000564821
0.000517195
0.000475719
0.000438978
0.000405287
0.000373375
0.000342546
0.000312617
0.000283717
0.000256175
0.000230321
0.000206417
0.000184534
0.00016462
0.000146484
0.000129931
0.000114707
0.000100674
8.76585e-05
7.55983e-05
6.43268e-05
5.38054e-05
4.39844e-05
3.49794e-05
2.68508e-05
1.95886e-05
1.31522e-05
7.4561e-06
2.37243e-06
0.00073155
0.000768707
0.000763407
0.000726782
0.000673728
0.000616898
0.000564135
0.000518572
0.000479994
0.000446469
0.000415753
0.000386158
0.000356831
0.00032764
0.00029889
0.000271072
0.000244658
0.000219993
0.000197246
0.000176425
0.000157413
0.000140023
0.000124011
0.000109199
9.54299e-05
8.26225e-05
7.06165e-05
5.9354e-05
4.88336e-05
3.91397e-05
3.03494e-05
2.24159e-05
1.52791e-05
8.79784e-06
2.84677e-06
0.000711488
0.000758428
0.000758639
0.000724166
0.000671434
0.000614528
0.000562257
0.000518167
0.000481997
0.000451438
0.000423738
0.000396752
0.000369351
0.000341327
0.00031308
0.000285253
0.000258477
0.000233214
0.000209733
0.000188118
0.000168314
0.000150168
0.000133441
0.000117913
0.00010342
8.98736e-05
7.71268e-05
6.51026e-05
5.38476e-05
4.34536e-05
3.39712e-05
2.53384e-05
1.74684e-05
1.01718e-05
3.33087e-06
0.000692431
0.000748416
0.000753787
0.000721333
0.000668802
0.000611569
0.000559374
0.000516237
0.000481977
0.000454037
0.000429243
0.000405005
0.000379851
0.000353396
0.000326028
0.000298497
0.000271585
0.000245899
0.000221824
0.000199533
0.000179043
0.000160234
0.000142886
0.000126728
0.000111567
9.73032e-05
8.38137e-05
7.10212e-05
5.90025e-05
4.78902e-05
3.77044e-05
2.83463e-05
1.97111e-05
1.15661e-05
3.80613e-06
0.000674644
0.000739111
0.000749316
0.000718691
0.000666171
0.000608329
0.000555801
0.000513116
0.000480251
0.000454513
0.000432392
0.000410893
0.000388176
0.000363607
0.000337474
0.000310557
0.000283761
0.000257842
0.000233324
0.000210487
0.000189431
0.000170073
0.000152208
0.000135531
0.000119788
0.000104849
9.06251e-05
7.70694e-05
6.42804e-05
5.243e-05
4.15339e-05
3.1444e-05
2.20132e-05
1.29916e-05
4.28937e-06
0.00065707
0.000730193
0.000745284
0.000716418
0.00066373
0.000605
0.000551764
0.000509077
0.00047712
0.000453143
0.000433382
0.000414484
0.000394253
0.000371769
0.000347149
0.000321137
0.00029471
0.000268761
0.000243966
0.000220732
0.000199249
0.000179479
0.00016122
0.000144139
0.000127919
0.000112375
9.74497e-05
8.31525e-05
6.9612e-05
5.70274e-05
4.54124e-05
3.45985e-05
2.43617e-05
1.44482e-05
4.8429e-06
0.000612186
0.000706817
0.000734234
0.00070997
0.000657056
0.00059615
0.000540915
0.000497674
0.000467184
0.000446639
0.000431771
0.0004185
0.000403875
0.000386332
0.00036554
0.000342058
0.000316941
0.000291347
0.000266298
0.000242513
0.000220396
0.000200009
0.00018114
0.000163372
0.000146265
0.000129502
0.000113071
9.71467e-05
8.19462e-05
6.77163e-05
5.44472e-05
4.19473e-05
2.98466e-05
1.784e-05
6.0701e-06
0.000559974
0.000661914
0.000694197
0.000672681
0.000621206
0.000561363
0.000507589
0.000466701
0.000439659
0.000423563
0.000413814
0.000405892
0.00039643
0.00038355
0.000366745
0.000346526
0.000324014
0.000300514
0.000277231
0.000255024
0.000234333
0.000215146
0.000197124
0.00017974
0.000162521
0.000145208
0.000127878
0.000110874
9.44999e-05
7.89589e-05
6.41646e-05
4.98479e-05
3.56995e-05
2.14086e-05
7.12272e-06
0.000500505
0.000599488
0.000631118
0.000611116
0.000562791
0.000507118
0.000458051
0.000422091
0.000399941
0.000388456
0.000382857
0.000378536
0.000372145
0.000361931
0.000347622
0.000329996
0.000310371
0.000290089
0.000270232
0.000251418
0.000233785
0.000217076
0.000200856
0.000184663
0.000168153
0.00015126
0.000134213
0.000117409
0.000101097
8.53179e-05
6.99192e-05
5.46258e-05
3.92804e-05
2.37044e-05
7.96187e-06
0.000425548
0.000509219
0.000535113
0.000517619
0.000477269
0.000432096
0.000393679
0.00036691
0.000351618
0.000344545
0.000341417
0.000338454
0.000333154
0.000324405
0.000312284
0.000297655
0.000281756
0.000265741
0.000250346
0.000235751
0.000221725
0.000207849
0.000193747
0.000179198
0.000164126
0.00014863
0.000132969
0.000117415
0.000102078
8.68699e-05
7.16467e-05
5.62325e-05
4.05794e-05
2.46271e-05
8.33907e-06
0.00033313
0.0003543
0.000356318
0.000345654
0.000329914
0.000314894
0.000303521
0.000296142
0.000291524
0.000287941
0.000283973
0.00027883
0.000272334
0.000264669
0.000256113
0.000246871
0.000237133
0.000227114
0.000216991
0.000206759
0.000196281
0.000185406
0.00017402
0.000162046
0.000149533
0.000136653
0.000123549
0.000110238
9.67016e-05
8.28834e-05
6.87432e-05
5.42121e-05
3.92762e-05
2.39217e-05
8.08167e-06
0.000236359
0.000172823
0.000150139
0.000157423
0.000179667
0.000203967
0.000222343
0.000231796
0.000233001
0.000228575
0.000221515
0.000214152
0.000207769
0.00020267
0.000198537
0.000194792
0.000190838
0.000186169
0.000180509
0.000173867
0.000166431
0.000158358
0.000149715
0.000140551
0.000130957
0.000120959
0.000110501
9.95025e-05
8.79534e-05
7.58607e-05
6.3253e-05
5.013e-05
3.64908e-05
2.23156e-05
7.55228e-06
0.000184464
0.000107624
8.05055e-05
9.02693e-05
0.000118856
0.000150495
0.000175175
0.000188833
0.000191949
0.000187656
0.000179852
0.000171794
0.000165444
0.000161406
0.000159271
0.000158078
0.000156787
0.000154605
0.000151167
0.000146501
0.000140865
0.000134545
0.000127772
0.000120659
0.000113201
0.000105286
9.67948e-05
8.76593e-05
7.78852e-05
6.74966e-05
5.65307e-05
4.49993e-05
3.28947e-05
2.01861e-05
6.84486e-06
0.000171992
9.30564e-05
6.3932e-05
7.19245e-05
9.90674e-05
0.000129612
0.000153506
0.000166602
0.000169281
0.000164599
0.000156418
0.000148019
0.000141424
0.000137296
0.000135243
0.000134292
0.00013339
0.000131744
0.000128978
0.000125099
0.000120366
0.000115101
0.000109547
0.000103764
9.76704e-05
9.11181e-05
8.40081e-05
7.62984e-05
6.79952e-05
5.91111e-05
4.96629e-05
3.96491e-05
2.90577e-05
1.78659e-05
6.05969e-06
0.000155965
8.01396e-05
5.19497e-05
5.91663e-05
8.45691e-05
0.000113114
0.000135246
0.000147088
0.000149095
0.000144238
0.000136214
0.000128116
0.000121817
0.000117896
0.000115951
0.000115058
0.00011424
0.00011278
0.000110358
0.000107005
0.000102971
9.85307e-05
9.38619e-05
8.89913e-05
8.38469e-05
7.83189e-05
7.23245e-05
6.58082e-05
5.87576e-05
5.11746e-05
4.30719e-05
3.44447e-05
2.52836e-05
1.55694e-05
5.28445e-06
0.000140405
7.05365e-05
4.47319e-05
5.15056e-05
7.48342e-05
0.000100805
0.000120664
0.000130969
0.000132287
0.000127462
0.000119923
0.000112474
0.000106754
0.000103208
0.000101413
0.000100508
9.96286e-05
9.8169e-05
9.58876e-05
9.28392e-05
8.92438e-05
8.53255e-05
8.12252e-05
7.69662e-05
7.24944e-05
6.77164e-05
6.25507e-05
5.69412e-05
5.08718e-05
4.43398e-05
3.73508e-05
2.9896e-05
2.19655e-05
1.35375e-05
4.59722e-06
0.00012566
6.30061e-05
4.01391e-05
4.64955e-05
6.75018e-05
9.05975e-05
0.000107974
0.000116673
0.000117371
0.000112735
0.000105875
9.92594e-05
9.4262e-05
9.1184e-05
8.95803e-05
8.86712e-05
8.77191e-05
8.62387e-05
8.40615e-05
8.12574e-05
7.80186e-05
7.45285e-05
7.08976e-05
6.71373e-05
6.31961e-05
5.89928e-05
5.44621e-05
4.95605e-05
4.42731e-05
3.8592e-05
3.25152e-05
2.60317e-05
1.91307e-05
1.17945e-05
4.00742e-06
0.000112496
5.73018e-05
3.74006e-05
4.32491e-05
6.1831e-05
8.20144e-05
9.69638e-05
0.000104196
0.000104443
0.000100145
9.40533e-05
8.8291e-05
8.39879e-05
8.13341e-05
7.98962e-05
7.89875e-05
7.79896e-05
7.65169e-05
7.44546e-05
7.18796e-05
6.89567e-05
6.58328e-05
6.25895e-05
5.92286e-05
5.57049e-05
5.19532e-05
4.7923e-05
4.35798e-05
3.89106e-05
3.39062e-05
2.85626e-05
2.28677e-05
1.68091e-05
1.0367e-05
3.52367e-06
0.000101142
5.25817e-05
3.52649e-05
4.06102e-05
5.70278e-05
7.4674e-05
8.75708e-05
9.36273e-05
9.35917e-05
8.96725e-05
8.42939e-05
7.92831e-05
7.5573e-05
7.32781e-05
7.19903e-05
7.11088e-05
7.0113e-05
6.8693e-05
6.67692e-05
6.44168e-05
6.17759e-05
5.89647e-05
5.60451e-05
5.30142e-05
4.98333e-05
4.64492e-05
4.28212e-05
3.89212e-05
3.47381e-05
3.02627e-05
2.54896e-05
2.04059e-05
1.49991e-05
9.25064e-06
3.14478e-06
9.25063e-05
4.90887e-05
3.3737e-05
3.86513e-05
5.33764e-05
6.90791e-05
8.04419e-05
8.56601e-05
8.54712e-05
8.18884e-05
7.70784e-05
7.26446e-05
6.93796e-05
6.73517e-05
6.61805e-05
6.53332e-05
6.43608e-05
6.30045e-05
6.12058e-05
5.9035e-05
5.66133e-05
5.40395e-05
5.1363e-05
4.85787e-05
4.56526e-05
4.25392e-05
3.92044e-05
3.56239e-05
3.17879e-05
2.76875e-05
2.33169e-05
1.86641e-05
1.37173e-05
8.45955e-06
2.87537e-06
8.76331e-05
4.75014e-05
3.33936e-05
3.80209e-05
5.16613e-05
6.61303e-05
7.65294e-05
8.12297e-05
8.09536e-05
7.75839e-05
7.31228e-05
6.90348e-05
6.60296e-05
6.41517e-05
6.30415e-05
6.22088e-05
6.1247e-05
5.99263e-05
5.81987e-05
5.61306e-05
5.3832e-05
5.13902e-05
4.88482e-05
4.61995e-05
4.3413e-05
4.04475e-05
3.72721e-05
3.38648e-05
3.02162e-05
2.63178e-05
2.21635e-05
1.77416e-05
1.30406e-05
8.04375e-06
2.7357e-06
0.000517966
0.000826247
0.000715042
0.00083638
0.000758093
0.000888425
0.00084872
0.000984837
0.000976864
0.00112815
0.00115001
0.00132762
0.00138053
0.00159955
0.00169433
0.001983
0.00216326
0.00261019
0.00300949
0.00383634
0.000518316
0.000825745
0.000715686
0.000835854
0.000758815
0.000887613
0.000849442
0.00098351
0.000977534
0.00112584
0.00115053
0.00132344
0.00138059
0.00159186
0.00169436
0.00196778
0.00216173
0.00256743
0.00295817
0.00351666
0.000518931
0.000824713
0.00071704
0.000834685
0.000760302
0.000885825
0.00085104
0.000980698
0.000979221
0.00112112
0.00115238
0.001315
0.00138306
0.00157579
0.00169687
0.00193653
0.00215569
0.00248587
0.0028451
0.00315319
0.000519729
0.000823775
0.000718707
0.000833411
0.000762051
0.000883754
0.000852933
0.000977327
0.000981236
0.00111529
0.00115459
0.00130441
0.00138533
0.00155618
0.00169629
0.00190072
0.00213262
0.00239063
0.0026893
0.00284924
0.000520928
0.000823052
0.000720675
0.000832091
0.000764027
0.000881407
0.00085505
0.000973322
0.000983425
0.00110818
0.00115674
0.00129171
0.00138613
0.00153452
0.00168901
0.00186293
0.00208882
0.00228922
0.00251678
0.00260309
0.000522759
0.00082241
0.000722992
0.000830547
0.000766254
0.000878517
0.000857387
0.000968344
0.000985704
0.00109953
0.00115836
0.00127727
0.00138394
0.00151263
0.00167262
0.00182337
0.00202614
0.0021838
0.00234383
0.00239023
0.000525332
0.000821652
0.00072565
0.000828576
0.0007687
0.000874851
0.000859894
0.000962232
0.000987899
0.00108951
0.00115862
0.00126253
0.00137704
0.00149133
0.00164614
0.0017805
0.00194995
0.00207473
0.00217838
0.00219766
0.000528626
0.000820572
0.000728644
0.000826017
0.00077136
0.000870282
0.000862521
0.000955043
0.00098965
0.00107883
0.00115645
0.00124841
0.00136438
0.00146983
0.00161073
0.00173203
0.00186626
0.00196277
0.00202394
0.00202255
0.000532541
0.000818996
0.000732021
0.000822768
0.000774281
0.000864784
0.000865166
0.000947026
0.000990359
0.0010683
0.00115095
0.00123492
0.00134604
0.00144598
0.00156873
0.00167658
0.00177927
0.00185005
0.00188155
0.00186504
0.000536964
0.000816794
0.000735883
0.000818789
0.000777505
0.000858429
0.00086759
0.000938592
0.0009893
0.00105827
0.00114166
0.00122102
0.00132311
0.00141778
0.00152205
0.00161436
0.00169114
0.00173927
0.00175088
0.00172463
0.000541837
0.000813853
0.000740341
0.00081409
0.000780992
0.000851389
0.000869374
0.00093024
0.00098587
0.00104866
0.00112885
0.0012052
0.00129668
0.00138423
0.00147149
0.00154701
0.00160301
0.00163256
0.00163108
0.00159967
0.000547186
0.000810043
0.000745457
0.000808734
0.000784568
0.000843937
0.000869964
0.0009223
0.00097973
0.00103872
0.00111319
0.00118626
0.00126713
0.00134526
0.00141735
0.00147649
0.00151575
0.00153116
0.00152124
0.00148801
0.000553106
0.000805188
0.000751197
0.000802877
0.000787912
0.000836447
0.000868743
0.000914862
0.000971011
0.00102745
0.0010952
0.00116357
0.00123431
0.00130152
0.00135991
0.00140436
0.00143022
0.00143547
0.00142047
0.00138766
0.000559743
0.000799094
0.000757388
0.000796805
0.000790587
0.000829334
0.000865352
0.000907515
0.000960203
0.00101406
0.00107492
0.00113693
0.00119795
0.00125382
0.00129971
0.00133168
0.00134711
0.00134546
0.00132793
0.00129704
0.000567255
0.000791591
0.000763686
0.000790949
0.000792153
0.000822869
0.000859691
0.000899455
0.000947702
0.000998086
0.00105208
0.00110647
0.0011579
0.0012028
0.00123749
0.00125922
0.0012669
0.00126093
0.00124282
0.00121489
0.000575785
0.000782604
0.000769559
0.000785831
0.000792261
0.000817244
0.000852142
0.00088995
0.000933508
0.000979277
0.00102632
0.00107238
0.00111428
0.00114898
0.00117391
0.00118756
0.00118981
0.00118157
0.00116438
0.00114019
0.000585418
0.000772242
0.000774292
0.000781913
0.000790635
0.000811737
0.000843337
0.000878629
0.000917382
0.000957565
0.000997374
0.00103481
0.00106738
0.00109281
0.00110952
0.00111703
0.00111581
0.00110696
0.00109189
0.00107211
0.000596121
0.000760915
0.000777083
0.000779385
0.000787532
0.000805897
0.000833517
0.000865273
0.000898991
0.000932887
0.0009651
0.000993894
0.00101755
0.00103468
0.00104463
0.00104765
0.00104457
0.0010365
0.00102462
0.00101
0.0006078
0.000749059
0.000777171
0.000777952
0.000784064
0.000799409
0.000822601
0.000849797
0.000878013
0.000905148
0.000929524
0.000949828
0.000965095
0.000974857
0.000979273
0.000979109
0.000975432
0.000969334
0.000961735
0.000953277
0.000620365
0.000737799
0.000773825
0.000776732
0.000780558
0.000792291
0.000810564
0.00083227
0.000854308
0.000874329
0.000890807
0.000902909
0.000910378
0.000913545
0.000913267
0.000910791
0.000907451
0.000904373
0.000902276
0.000901393
0.000633482
0.000727687
0.000766816
0.000774251
0.000777032
0.000784755
0.000797535
0.000812901
0.00082803
0.000840606
0.000849247
0.000853519
0.000853745
0.000850891
0.000846437
0.000842152
0.000839755
0.000840565
0.000845242
0.000853675
0.00064652
0.000719462
0.000757511
0.000769388
0.000772531
0.000776658
0.000783498
0.00079189
0.000799518
0.000804382
0.000805299
0.000802124
0.000795598
0.000787174
0.000778912
0.000773138
0.000772078
0.000777429
0.000789975
0.000809376
0.000658931
0.000713643
0.000747212
0.000761496
0.000765556
0.000767016
0.000768171
0.00076926
0.000769152
0.000766228
0.000759588
0.000749321
0.00073648
0.000722935
0.000711268
0.000704354
0.000704978
0.000715325
0.000736453
0.000767922
0.00067035
0.000710189
0.000737166
0.000750717
0.000755134
0.000754423
0.000750589
0.000744799
0.000737099
0.000726635
0.000712752
0.000695796
0.00067709
0.000658977
0.000644439
0.000636845
0.000639521
0.000655161
0.000685161
0.000729082
0.000680562
0.000708514
0.00072795
0.000738234
0.000740962
0.000737743
0.000729641
0.000717891
0.000703343
0.000685837
0.000665219
0.000642126
0.000618274
0.000596299
0.000579546
0.000571808
0.00057688
0.000597915
0.000636652
0.000692723
0.00068944
0.000707914
0.000719664
0.000724792
0.000723699
0.000716846
0.000704764
0.000688186
0.000667779
0.000644109
0.000617495
0.000589064
0.000560867
0.000535818
0.00051755
0.000510183
0.000517879
0.000544177
0.000591147
0.000658537
0.000696859
0.000707723
0.000711791
0.000710381
0.000703983
0.000692632
0.000676405
0.00065557
0.000630451
0.000601637
0.000569977
0.000537061
0.000505314
0.000477944
0.00045882
0.000452278
0.000462736
0.000494047
0.00054859
0.000626282
0.000702759
0.000707311
0.000703769
0.000694967
0.000682267
0.000665847
0.000645404
0.000620686
0.000591621
0.000558604
0.000522827
0.00048621
0.00045155
0.0004224
0.000402902
0.000397583
0.000411025
0.000447271
0.00050893
0.000596074
0.00070718
0.000706324
0.00069512
0.000678302
0.000658718
0.000636983
0.000612454
0.000584232
0.000551776
0.000515352
0.000476302
0.000436662
0.000399527
0.000368781
0.00034892
0.000344827
0.000361358
0.000402707
0.000471508
0.000567739
0.000710124
0.00070468
0.000685596
0.000660224
0.00063346
0.000606466
0.000578127
0.000546809
0.000511544
0.000472446
0.00043075
0.000388719
0.00034961
0.000317458
0.000297003
0.000293535
0.00031247
0.000358337
0.000433938
0.000539365
0.000712444
0.000697861
0.000660878
0.000616022
0.000572943
0.000533968
0.000496972
0.000458881
0.000417749
0.000373339
0.000326944
0.000281068
0.000238972
0.000204711
0.000183161
0.000180006
0.00020148
0.000253857
0.000342168
0.000468309
0.000670092
0.000651024
0.000608898
0.000556581
0.000503641
0.000454071
0.000407511
0.000361945
0.000315788
0.000268745
0.0002218
0.000177013
0.000137339
0.000106598
8.94969e-05
9.16147e-05
0.000119149
0.000178255
0.000273817
0.000407628
0.000601295
0.000586054
0.000552491
0.000507941
0.000458421
0.000407877
0.000357694
0.00030791
0.00025832
0.00020916
0.000161409
0.000116968
7.86414e-05
4.98125e-05
3.48367e-05
3.89491e-05
6.79342e-05
0.000127452
0.000221855
0.00035248
0.000510018
0.000501151
0.000481545
0.000454635
0.000422348
0.000385412
0.000344337
0.000300008
0.00025385
0.000207002
0.000160786
0.000117025
7.82372e-05
4.80013e-05
3.0591e-05
3.08758e-05
5.4007e-05
0.000104718
0.00018622
0.000298797
0.000401342
0.000396414
0.000387715
0.000376328
0.000362774
0.000347262
0.000329814
0.00031025
0.000288278
0.00026463
0.000240795
0.000218676
0.000200343
0.000187855
0.000183056
0.000187323
0.000201323
0.000224815
0.000256588
0.000294576
0.000295617
0.00029056
0.000283995
0.000277607
0.00027342
0.000273569
0.000279923
0.000293774
0.000315621
0.000345003
0.000380331
0.000418724
0.000456382
0.000488831
0.000511204
0.000518611
0.000506613
0.000471824
0.000412646
0.000330008
0.000213255
0.0002123
0.000213904
0.000218796
0.000228315
0.000243876
0.000266469
0.000296273
0.000332421
0.000373213
0.00041617
0.00045831
0.000496087
0.000525498
0.000542216
0.000541754
0.00051979
0.000472729
0.000398553
0.000297849
0.00015989
0.000161743
0.000167509
0.000177241
0.000191812
0.000212318
0.000239513
0.000273427
0.000313318
0.000357474
0.000403369
0.000447852
0.000487311
0.000517772
0.000534976
0.00053452
0.000512156
0.00046435
0.000389131
0.000287116
0.000123123
0.000125856
0.000132713
0.000143557
0.000159064
0.000180187
0.000207647
0.000241603
0.00028136
0.000325301
0.000371004
0.000415394
0.000454899
0.000485573
0.000503213
0.000503522
0.000482422
0.000436606
0.000364341
0.00026642
9.72085e-05
9.99759e-05
0.000106486
0.000116605
0.00013096
0.000150468
0.00017588
0.000207428
0.000244616
0.000286106
0.000329708
0.000372503
0.000411005
0.000441324
0.000459329
0.000460858
0.000442061
0.000399937
0.000333075
0.000242473
7.82982e-05
8.07458e-05
8.63661e-05
9.50849e-05
0.00010751
0.000124534
0.000146945
0.000175106
0.000208714
0.000246668
0.000287048
0.000327176
0.000363745
0.000393
0.000410947
0.000413613
0.000397416
0.000359692
0.000299357
0.000217598
6.43161e-05
6.63728e-05
7.10503e-05
7.83303e-05
8.87879e-05
0.000103266
0.000122551
0.000147095
0.000176776
0.000210743
0.000247345
0.000284166
0.000318138
0.000345723
0.00036314
0.00036666
0.000352999
0.000319824
0.000266343
0.000193859
5.41924e-05
5.59086e-05
5.97983e-05
6.58777e-05
7.46776e-05
8.69754e-05
0.000103527
0.000124825
0.000150874
0.00018103
0.000213903
0.000247351
0.000278569
0.000304263
0.00032089
0.000324974
0.000313501
0.000284413
0.000237135
0.000173014
4.74937e-05
4.89537e-05
5.22671e-05
5.7471e-05
6.50573e-05
7.57448e-05
9.02504e-05
0.000109074
0.000132298
0.000159419
0.000189238
0.000219838
0.000248647