/*--------------------------------*- C++ -*----------------------------------*\
| =========                 |                                                 |
| \\      /  F ield         | OpenFOAM: The Open Source CFD Toolbox           |
|  \\    /   O peration     | Version:  1.4.1-dev                             |
|   \\  /    A nd           | Web:      http://www.openfoam.org               |
|    \\/     M anipulation  |                                                 |
\*---------------------------------------------------------------------------*/

FoamFile
{
    version 2.0;
    format ascii;

    root "/home/mjaworsk/OpenFOAM/mjaworsk-1.4.1-dev/run/FlatPlate-Blasius";
    case "icoHeatFoam-flatPlate2";
    instance "0.9";
    local "";

    class volVectorField;
    object U;
}

// * * * * * * * * * * * * * * * * * * * * * * * * * * * * * * * * * * * * * //

dimensions      [0 1 -1 0 0 0 0];

internalField   nonuniform List<vector> 
2475
(
(0.13256 0.00807163 0)
(0.0798352 0.00529963 0)
(0.0537484 0.00187902 0)
(0.0398733 0.000635699 0)
(0.0322411 0.000269483 0)
(0.0279714 0.000143797 0)
(0.0251827 0.000104707 0)
(0.0230493 8.6474e-05 0)
(0.0212977 7.09471e-05 0)
(0.0198282 5.78442e-05 0)
(0.0185699 4.76704e-05 0)
(0.01748 3.97926e-05 0)
(0.0165165 3.35717e-05 0)
(0.0156628 2.85987e-05 0)
(0.0148897 2.45402e-05 0)
(0.0141955 2.12376e-05 0)
(0.0135536 1.84561e-05 0)
(0.0129739 1.61792e-05 0)
(0.0124265 1.41926e-05 0)
(0.011933 1.25816e-05 0)
(0.0114552 1.1111e-05 0)
(0.0110297 9.95198e-06 0)
(0.0106036 8.82268e-06 0)
(0.0102345 7.97768e-06 0)
(0.0098464 7.07811e-06 0)
(0.00952706 6.46863e-06 0)
(0.00916442 5.73896e-06 0)
(0.00889184 5.31625e-06 0)
(0.00854096 4.70936e-06 0)
(0.008317 4.42714e-06 0)
(0.0079609 3.91735e-06 0)
(0.00779456 3.73375e-06 0)
(0.00740738 3.34469e-06 0)
(0.00731943 3.17068e-06 0)
(0.00685557 3.30041e-06 0)
(0.183147 0.016815 0)
(0.161966 0.0150227 0)
(0.139871 0.0082726 0)
(0.117935 0.00415269 0)
(0.0998055 0.00226932 0)
(0.0870023 0.00134922 0)
(0.0780419 0.000894633 0)
(0.0712715 0.000662745 0)
(0.0657994 0.000520679 0)
(0.0612331 0.000419045 0)
(0.0573277 0.000342887 0)
(0.0539478 0.000284834 0)
(0.0509612 0.000239499 0)
(0.0483168 0.00020356 0)
(0.0459224 0.000174351 0)
(0.043774 0.000150647 0)
(0.0417878 0.000130757 0)
(0.0399955 0.000114462 0)
(0.038303 0.000100333 0)
(0.0367788 8.8808e-05 0)
(0.0353026 7.84007e-05 0)
(0.0339894 7.00885e-05 0)
(0.0326742 6.21377e-05 0)
(0.0315364 5.60699e-05 0)
(0.0303394 4.97828e-05 0)
(0.0293558 4.54067e-05 0)
(0.0282379 4.02989e-05 0)
(0.0273992 3.72672e-05 0)
(0.026319 3.29485e-05 0)
(0.025631 3.10174e-05 0)
(0.0245371 2.72116e-05 0)
(0.0240266 2.62487e-05 0)
(0.0228418 2.28555e-05 0)
(0.0225696 2.26165e-05 0)
(0.0211657 2.13293e-05 0)
(0.190443 0.0169591 0)
(0.190042 0.0186543 0)
(0.183894 0.0130956 0)
(0.171455 0.00861599 0)
(0.15628 0.00598981 0)
(0.14211 0.00420021 0)
(0.13013 0.00296488 0)
(0.12012 0.00218593 0)
(0.111622 0.00169279 0)
(0.104335 0.00135343 0)
(0.0979857 0.00110424 0)
(0.0924209 0.000915652 0)
(0.087454 0.000769009 0)
(0.0830269 0.000653186 0)
(0.0789933 0.000559209 0)
(0.0753614 0.00048302 0)
(0.0719888 0.000419151 0)
(0.0689404 0.000366795 0)
(0.0660514 0.000321484 0)
(0.0634492 0.000284432 0)
(0.0609207 0.000251098 0)
(0.0586736 0.000224331 0)
(0.0564155 0.000198906 0)
(0.0544658 0.000179348 0)
(0.052407 0.000159294 0)
(0.0507201 0.00014518 0)
(0.0487949 0.000128869 0)
(0.0473563 0.000119083 0)
(0.0454955 0.000105196 0)
(0.0443161 9.90641e-05 0)
(0.0424334 8.66061e-05 0)
(0.0415587 8.39023e-05 0)
(0.0395251 7.22323e-05 0)
(0.0390549 7.25831e-05 0)
(0.0366668 6.56057e-05 0)
(0.190981 0.0143413 0)
(0.195818 0.0179773 0)
(0.198583 0.0145063 0)
(0.195718 0.0108407 0)
(0.188446 0.00860423 0)
(0.179438 0.00688977 0)
(0.170164 0.00540967 0)
(0.161137 0.00425909 0)
(0.152514 0.00341773 0)
(0.144465 0.00279093 0)
(0.136998 0.00230811 0)
(0.130166 0.00193092 0)
(0.123859 0.00163145 0)
(0.118107 0.00139198 0)
(0.112758 0.00119585 0)
(0.107881 0.00103582 0)
(0.103286 0.000900876 0)
(0.0991053 0.00078979 0)
(0.0950995 0.000693299 0)
(0.0914807 0.000614123 0)
(0.0879315 0.000542757 0)
(0.0847776 0.000485248 0)
(0.0815799 0.000430622 0)
(0.078826 0.000388443 0)
(0.0758912 0.000345273 0)
(0.0734983 0.000314744 0)
(0.0707403 0.000279517 0)
(0.0686941 0.000258281 0)
(0.06602 0.000228136 0)
(0.0643408 0.000214881 0)
(0.0616319 0.000187608 0)
(0.0603854 0.000182028 0)
(0.0574644 0.000155997 0)
(0.0567881 0.000157531 0)
(0.0533848 0.000139415 0)
(0.192116 0.0121937 0)
(0.196153 0.0161271 0)
(0.201136 0.0142505 0)
(0.202852 0.0112948 0)
(0.201055 0.00951755 0)
(0.197324 0.00825743 0)
(0.192597 0.00703509 0)
(0.187226 0.00593017 0)
(0.181307 0.00502287 0)
(0.175105 0.00428375 0)
(0.168736 0.00366623 0)
(0.162447 0.00314848 0)
(0.156232 0.00271271 0)
(0.15029 0.00234927 0)
(0.144506 0.00204141 0)
(0.139081 0.00178429 0)
(0.133805 0.00156296 0)
(0.128926 0.0013783 0)
(0.124136 0.00121566 0)
(0.119776 0.00108115 0)
(0.115411 0.000958672 0)
(0.111527 0.000859515 0)
(0.107513 0.000764598 0)
(0.104069 0.000691123 0)
(0.100329 0.000615447 0)
(0.097304 0.000561864 0)
(0.0937488 0.000499633 0)
(0.091143 0.000462124 0)
(0.0876675 0.000408481 0)
(0.0855193 0.000385005 0)
(0.0819818 0.000336133 0)
(0.0803822 0.000326374 0)
(0.0765658 0.000279323 0)
(0.0756887 0.000282385 0)
(0.0712689 0.000246853 0)
(0.193362 0.010847 0)
(0.196143 0.0143966 0)
(0.20066 0.0136211 0)
(0.203627 0.0111785 0)
(0.204134 0.00957086 0)
(0.203236 0.00861345 0)
(0.201609 0.00770913 0)
(0.199448 0.00680856 0)
(0.196607 0.00601494 0)
(0.19323 0.00534036 0)
(0.189278 0.00474677 0)
(0.18501 0.00421801 0)
(0.180354 0.00374254 0)
(0.175607 0.00332326 0)
(0.170621 0.00294834 0)
(0.165738 0.00262233 0)
(0.1607 0.00232996 0)
(0.155921 0.00207953 0)
(0.151 0.00185216 0)
(0.146465 0.00166116 0)
(0.141737 0.00148312 0)
(0.137522 0.00133784 0)
(0.133004 0.00119602 0)
(0.129153 0.00108601 0)
(0.124819 0.000970664 0)
(0.121362 0.000889205 0)
(0.117151 0.000792877 0)
(0.114129 0.000735202 0)
(0.109945 0.000651113 0)
(0.107428 0.000614733 0)
(0.103123 0.000537404 0)
(0.101236 0.000522252 0)
(0.096574 0.000447374 0)
(0.0955267 0.000452127 0)
(0.0901453 0.000392487 0)
(0.194183 0.00995154 0)
(0.19626 0.0128883 0)
(0.199866 0.0128815 0)
(0.202878 0.0109603 0)
(0.204102 0.009398 0)
(0.204247 0.00853714 0)
(0.203931 0.00783739 0)
(0.203446 0.00711184 0)
(0.202527 0.00643795 0)
(0.201275 0.00586313 0)
(0.199472 0.00535649 0)
(0.197369 0.00489782 0)
(0.194718 0.00446781 0)
(0.191863 0.00407423 0)
(0.188491 0.00370369 0)
(0.185059 0.00336936 0)
(0.181153 0.00305353 0)
(0.17736 0.00277465 0)
(0.173111 0.00250912 0)
(0.169163 0.00228152 0)
(0.16473 0.00206025 0)
(0.160797 0.00187795 0)
(0.156283 0.00169314 0)
(0.152501 0.00154979 0)
(0.147957 0.00139401 0)
(0.144433 0.00128499 0)
(0.139851 0.0011513 0)
(0.136686 0.00107267 0)
(0.132005 0.000953449 0)
(0.129318 0.000903217 0)
(0.12441 0.000791906 0)
(0.122371 0.000770919 0)
(0.117003 0.000662371 0)
(0.115856 0.000669071 0)
(0.10966 0.000579228 0)
(0.194639 0.00927795 0)
(0.196318 0.0115678 0)
(0.199133 0.0120239 0)
(0.201887 0.0106639 0)
(0.203331 0.00919469 0)
(0.203845 0.00833502 0)
(0.203915 0.00774165 0)
(0.204031 0.00714071 0)
(0.203902 0.00654757 0)
(0.203717 0.00603651 0)
(0.203119 0.00559541 0)
(0.202449 0.00520745 0)
(0.201281 0.00484113 0)
(0.200061 0.00450572 0)
(0.198256 0.0041799 0)
(0.19646 0.00388311 0)
(0.19401 0.00358938 0)
(0.191685 0.00332657 0)
(0.188644 0.0030619 0)
(0.185899 0.00283281 0)
(0.182361 0.00259632 0)
(0.17934 0.00240123 0)
(0.175404 0.00219095 0)
(0.172266 0.00202948 0)
(0.168012 0.00184274 0)
(0.164913 0.0017151 0)
(0.16038 0.00154804 0)
(0.157471 0.0014535 0)
(0.152637 0.00129955 0)
(0.150089 0.00123816 0)
(0.144866 0.00109093 0)
(0.142892 0.00106551 0)
(0.137083 0.000920298 0)
(0.135957 0.000929693 0)
(0.129222 0.00080605 0)
(0.194897 0.00870733 0)
(0.196304 0.0104504 0)
(0.198488 0.0111062 0)
(0.200902 0.0102668 0)
(0.202397 0.00898519 0)
(0.203122 0.00811518 0)
(0.203299 0.00756682 0)
(0.20359 0.00706022 0)
(0.203674 0.00653056 0)
(0.203895 0.00605517 0)
(0.203758 0.00564397 0)
(0.203772 0.00529683 0)
(0.203339 0.00497259 0)
(0.203098 0.00468447 0)
(0.202284 0.00440093 0)
(0.201706 0.00414958 0)
(0.200413 0.00389254 0)
(0.199436 0.0036679 0)
(0.197594 0.00342885 0)
(0.196204 0.00322657 0)
(0.193785 0.00300186 0)
(0.19202 0.00282156 0)
(0.189034 0.00260957 0)
(0.186982 0.00245293 0)
(0.183459 0.00225328 0)
(0.181249 0.0021242 0)
(0.177212 0.0019361 0)
(0.174996 0.00183768 0)
(0.170439 0.00165666 0)
(0.168398 0.0015919 0)
(0.163264 0.00141284 0)
(0.161631 0.00138728 0)
(0.155775 0.00120761 0)
(0.15483 0.00122125 0)
(0.147985 0.00106533 0)
(0.195095 0.00818762 0)
(0.196292 0.00952836 0)
(0.197982 0.0102105 0)
(0.200039 0.00978237 0)
(0.201471 0.00875719 0)
(0.202353 0.00791 0)
(0.202587 0.00736974 0)
(0.202946 0.00693197 0)
(0.203044 0.00646428 0)
(0.203409 0.00602097 0)
(0.203383 0.00562217 0)
(0.203665 0.0052936 0)
(0.203474 0.00498827 0)
(0.203681 0.00472718 0)
(0.203293 0.00446702 0)
(0.203387 0.00424718 0)
(0.202723 0.0040166 0)
(0.202639 0.00382673 0)
(0.201606 0.00361419 0)
(0.201284 0.00344609 0)
(0.199789 0.00324353 0)
(0.199192 0.00309307 0)
(0.197162 0.00289532 0)
(0.196292 0.00276194 0)
(0.193678 0.00256684 0)
(0.192582 0.00245434 0)
(0.189349 0.00226128 0)
(0.188119 0.00217443 0)
(0.184227 0.00197999 0)
(0.182996 0.00192353 0)
(0.178386 0.00172354 0)
(0.177348 0.00170472 0)
(0.171926 0.00149977 0)
(0.171319 0.0015198 0)
(0.164913 0.00134051 0)
(0.195327 0.00770551 0)
(0.196352 0.00876491 0)
(0.197658 0.00939023 0)
(0.199384 0.0092431 0)
(0.20067 0.00849229 0)
(0.201652 0.0077188 0)
(0.201931 0.00717514 0)
(0.202344 0.00677927 0)
(0.202406 0.0063699 0)
(0.202832 0.00596646 0)
(0.202802 0.00557917 0)
(0.203193 0.00526099 0)
(0.203033 0.00496239 0)
(0.203417 0.00471612 0)
(0.203138 0.00446511 0)
(0.203526 0.00426267 0)
(0.203092 0.00404364 0)
(0.20346 0.00387572 0)
(0.20281 0.00367823 0)
(0.203119 0.00353644 0)
(0.202171 0.00335086 0)
(0.202373 0.00322908 0)
(0.201037 0.00304754 0)
(0.201096 0.00294256 0)
(0.19928 0.00275998 0)
(0.19918 0.00267338 0)
(0.196804 0.00248726 0)
(0.19656 0.00242293 0)
(0.193542 0.00222921 0)
(0.193202 0.00219134 0)
(0.18946 0.00198545 0)
(0.189121 0.00198001 0)
(0.184586 0.00176518 0)
(0.184392 0.00179287 0)
(0.178982 0.00160651 0)
(0.195633 0.00726245 0)
(0.196513 0.00812063 0)
(0.197523 0.00866594 0)
(0.198965 0.00868684 0)
(0.200065 0.00818241 0)
(0.201085 0.0075273 0)
(0.201401 0.00699254 0)
(0.201868 0.00661718 0)
(0.201891 0.00625467 0)
(0.202344 0.00589742 0)
(0.202286 0.00552829 0)
(0.202727 0.00522078 0)
(0.202547 0.00492481 0)
(0.202996 0.00468856 0)
(0.202715 0.00444081 0)
(0.203207 0.00424866 0)
(0.202822 0.00403244 0)
(0.203361 0.00387651 0)
(0.202843 0.00368373 0)
(0.203422 0.00355751 0)
(0.202724 0.00337943 0)
(0.20332 0.00327702 0)
(0.20238 0.00310542 0)
(0.202961 0.00302274 0)
(0.201702 0.00285125 0)
(0.202233 0.00278818 0)
(0.200575 0.00261286 0)
(0.201028 0.00257182 0)
(0.198881 0.00238789 0)
(0.199232 0.00237128 0)
(0.196502 0.00217342 0)
(0.196745 0.0021831 0)
(0.193374 0.00197573 0)
(0.193533 0.00200939 0)
(0.189502 0.00183533 0)
(0.196005 0.00686032 0)
(0.196762 0.00756613 0)
(0.197546 0.00803486 0)
(0.198754 0.00814484 0)
(0.199668 0.00783409 0)
(0.200669 0.00731992 0)
(0.201015 0.00681963 0)
(0.201527 0.00645641 0)
(0.201535 0.00612575 0)
(0.20199 0.00581408 0)
(0.201916 0.0054708 0)
(0.202371 0.00517808 0)
(0.202182 0.00488509 0)
(0.20264 0.00465693 0)
(0.202356 0.0044113 0)
(0.202857 0.00422678 0)
(0.202488 0.00401094 0)
(0.203049 0.00386193 0)
(0.202586 0.00366937 0)
(0.203212 0.00355123 0)
(0.202637 0.00337483 0)
(0.203326 0.00328258 0)
(0.20261 0.00311503 0)
(0.203346 0.00304483 0)
(0.202448 0.0028801 0)
(0.203206 0.00283128 0)
(0.202078 0.00266547 0)
(0.202821 0.00263971 0)
(0.201403 0.00246858 0)
(0.202079 0.00246693 0)
(0.200298 0.00228577 0)
(0.200837 0.00230533 0)
(0.198649 0.00211889 0)
(0.198987 0.002153 0)
(0.196399 0.00200642 0)
(0.196413 0.00649698 0)
(0.19706 0.00708202 0)
(0.197676 0.00748366 0)
(0.198689 0.00763545 0)
(0.199445 0.00746237 0)
(0.20038 0.0070869 0)
(0.200751 0.00664668 0)
(0.201291 0.00630042 0)
(0.201318 0.00599003 0)
(0.201754 0.00571704 0)
(0.20169 0.00540453 0)
(0.202125 0.00513166 0)
(0.201962 0.00484505 0)
(0.20239 0.00462403 0)
(0.202139 0.00438137 0)
(0.202592 0.00420308 0)
(0.202271 0.00398862 0)
(0.202769 0.00384399 0)
(0.202379 0.00365167 0)
(0.202931 0.00353724 0)
(0.202468 0.00336148 0)
(0.203077 0.00327307 0)
(0.202535 0.00310769 0)
(0.203194 0.00304174 0)
(0.202563 0.00288163 0)
(0.203255 0.00283735 0)
(0.202519 0.00267935 0)
(0.203219 0.00265827 0)
(0.202356 0.0024997 0)
(0.203018 0.00250234 0)
(0.201991 0.00234082 0)
(0.202534 0.00236091 0)
(0.201316 0.00220142 0)
(0.201651 0.00222886 0)
(0.200254 0.00211525 0)
(0.196825 0.00616825 0)
(0.197369 0.00665501 0)
(0.197866 0.0069981 0)
(0.198708 0.00716506 0)
(0.199344 0.00708341 0)
(0.200183 0.00682729 0)
(0.200575 0.00646322 0)
(0.201115 0.0061458 0)
(0.201195 0.00585188 0)
(0.201594 0.00560808 0)
(0.20157 0.00532715 0)
(0.201956 0.00507783 0)
(0.201854 0.00480293 0)
(0.202222 0.00458903 0)
(0.202042 0.00435122 0)
(0.202414 0.00417784 0)
(0.202179 0.00396703 0)
(0.202573 0.00382519 0)
(0.202289 0.00363511 0)
(0.202712 0.00352176 0)
(0.202385 0.00334819 0)
(0.202839 0.00325977 0)
(0.202472 0.00309764 0)
(0.202953 0.0030307 0)
(0.20255 0.00287569 0)
(0.203047 0.00282933 0)
(0.20261 0.00267893 0)
(0.203109 0.00265458 0)
(0.202638 0.00250772 0)
(0.20311 0.00250562 0)
(0.202598 0.0023629 0)
(0.202983 0.00237533 0)
(0.202416 0.00224204 0)
(0.202647 0.00225766 0)
(0.202028 0.00217328 0)
(0.197221 0.00587065 0)
(0.197666 0.00627562 0)
(0.198081 0.00656698 0)
(0.198771 0.00673336 0)
(0.19932 0.00670992 0)
(0.200047 0.00654688 0)
(0.200456 0.00626267 0)
(0.20097 0.00598598 0)
(0.201118 0.00571207 0)
(0.201473 0.00548975 0)
(0.201509 0.00523788 0)
(0.201833 0.00501312 0)
(0.201808 0.00475539 0)
(0.202103 0.00454976 0)
(0.202016 0.00431919 0)
(0.202297 0.00414974 0)
(0.202165 0.00394481 0)
(0.202447 0.0038048 0)
(0.202283 0.00361928 0)
(0.202572 0.0035055 0)
(0.202383 0.00333622 0)
(0.202681 0.00324566 0)
(0.202474 0.0030886 0)
(0.202776 0.00301801 0)
(0.202559 0.00286943 0)
(0.202858 0.00281783 0)
(0.202639 0.00267554 0)
(0.202928 0.00264412 0)
(0.202711 0.00250827 0)
(0.202979 0.00249683 0)
(0.202768 0.00237054 0)
(0.202981 0.00237131 0)
(0.202769 0.00225999 0)
(0.202889 0.00226249 0)
(0.20267 0.00219937 0)
(0.197593 0.00560232 0)
(0.197945 0.00593745 0)
(0.1983 0.00618228 0)
(0.198859 0.00633794 0)
(0.199344 0.00634992 0)
(0.19996 0.00625456 0)
(0.200376 0.00604414 0)
(0.200846 0.00581554 0)
(0.20106 0.00556862 0)
(0.201374 0.00536445 0)
(0.201472 0.00513777 0)
(0.201736 0.00493611 0)
(0.201784 0.00469932 0)
(0.202015 0.00450401 0)
(0.202013 0.00428325 0)
(0.202218 0.00411749 0)
(0.202179 0.00392006 0)
(0.202371 0.00378157 0)
(0.202309 0.00360241 0)
(0.202494 0.0034877 0)
(0.202417 0.00332427 0)
(0.202596 0.00323079 0)
(0.202512 0.00308007 0)
(0.202682 0.00300498 0)
(0.202597 0.00286369 0)
(0.202756 0.00280608 0)
(0.202673 0.00267219 0)
(0.20282 0.00263286 0)
(0.202744 0.00250744 0)
(0.202875 0.00248561 0)
(0.202811 0.00237339 0)
(0.202911 0.00236205 0)
(0.202854 0.00226817 0)
(0.202904 0.00225917 0)
(0.202841 0.00221004 0)
(0.197935 0.00536194 0)
(0.198205 0.00563601 0)
(0.198512 0.00583787 0)
(0.198963 0.00597613 0)
(0.199397 0.00600744 0)
(0.199915 0.00595886 0)
(0.200324 0.00581072 0)
(0.200748 0.00563167 0)
(0.201009 0.00541826 0)
(0.201292 0.00523304 0)
(0.20144 0.00502851 0)
(0.20166 0.00484723 0)
(0.201762 0.00463275 0)
(0.201949 0.00444995 0)
(0.20201 0.00424144 0)
(0.202165 0.00408007 0)
(0.202194 0.00389125 0)
(0.202328 0.00375449 0)
(0.202337 0.00358284 0)
(0.202458 0.00346742 0)
(0.202454 0.00331081 0)
(0.202563 0.00321449 0)
(0.202554 0.00307075 0)
(0.202651 0.00299127 0)
(0.20264 0.00285759 0)
(0.202725 0.00279418 0)
(0.202713 0.00266878 0)
(0.202788 0.00262187 0)
(0.202778 0.00250644 0)
(0.202842 0.00247478 0)
(0.202838 0.00237484 0)
(0.202884 0.00235266 0)
(0.202881 0.00227267 0)
(0.202901 0.00225487 0)
(0.202883 0.00221503 0)
(0.198247 0.0051482 0)
(0.198447 0.00536802 0)
(0.19871 0.00552936 0)
(0.199079 0.0056459 0)
(0.199467 0.00568479 0)
(0.199907 0.00566682 0)
(0.200297 0.0055678 0)
(0.200678 0.0054348 0)
(0.200962 0.00525853 0)
(0.201227 0.00509503 0)
(0.201407 0.00491151 0)
(0.201603 0.00474796 0)
(0.201736 0.00455523 0)
(0.201899 0.00438635 0)
(0.201999 0.00419221 0)
(0.202131 0.00403654 0)
(0.2022 0.00385732 0)
(0.202307 0.00372277 0)
(0.202356 0.00355946 0)
(0.202447 0.00344382 0)
(0.202483 0.00329474 0)
(0.202561 0.00319603 0)
(0.202589 0.00305965 0)
(0.202655 0.00297619 0)
(0.202679 0.00285027 0)
(0.202735 0.0027815 0)
(0.202754 0.00266459 0)
(0.202802 0.00261066 0)
(0.202818 0.00250491 0)
(0.202857 0.00246443 0)
(0.202873 0.00237543 0)
(0.202901 0.00234414 0)
(0.202913 0.00227541 0)
(0.202923 0.00225145 0)
(0.202916 0.00221819 0)
(0.198529 0.00495756 0)
(0.198669 0.00512949 0)
(0.19889 0.00525296 0)
(0.1992 0.00534551 0)
(0.199548 0.00538376 0)
(0.199931 0.00538404 0)
(0.200293 0.00532178 0)
(0.200639 0.00522814 0)
(0.200925 0.00508909 0)
(0.201179 0.00494985 0)
(0.201375 0.00478776 0)
(0.201561 0.00464019 0)
(0.20171 0.00446774 0)
(0.201864 0.00431303 0)
(0.201983 0.00413475 0)
(0.202108 0.00398619 0)
(0.202199 0.00381768 0)
(0.202299 0.00368594 0)
(0.202369 0.00353167 0)
(0.20245 0.00341636 0)
(0.202506 0.00327541 0)
(0.202574 0.00317485 0)
(0.20262 0.00304619 0)
(0.202677 0.00295922 0)
(0.202715 0.00284116 0)
(0.202763 0.00276755 0)
(0.202794 0.002659 0)
(0.202835 0.00259877 0)
(0.202862 0.00250224 0)
(0.202894 0.00245418 0)
(0.202918 0.00237482 0)
(0.20294 0.00233634 0)
(0.202957 0.00227665 0)
(0.202966 0.00224876 0)
(0.202963 0.00222042 0)
(0.198781 0.00478015 0)
(0.198867 0.00491162 0)
(0.19905 0.00500164 0)
(0.199319 0.00507047 0)
(0.199634 0.00510324 0)
(0.199977 0.00511292 0)
(0.20031 0.00507707 0)
(0.200626 0.00501505 0)
(0.200902 0.00491052 0)
(0.201145 0.00479664 0)
(0.201347 0.00465711 0)
(0.201529 0.00452504 0)
(0.201686 0.0043715 0)
(0.201837 0.00423044 0)
(0.201967 0.00406875 0)
(0.202092 0.00392847 0)
(0.202196 0.00377183 0)
(0.202297 0.00364365 0)
(0.202379 0.00349905 0)
(0.20246 0.0033847 0)
(0.202527 0.00325234 0)
(0.202593 0.00315063 0)
(0.202649 0.00302985 0)
(0.202704 0.00294014 0)
(0.202751 0.00282974 0)
(0.202798 0.00275215 0)
(0.202836 0.00265153 0)
(0.202876 0.00258601 0)
(0.202909 0.00249791 0)
(0.202939 0.00244384 0)
(0.202968 0.00237259 0)
(0.202989 0.00232901 0)
(0.20301 0.00227628 0)
(0.203019 0.00224629 0)
(0.203022 0.00222166 0)
(0.199007 0.00460296 0)
(0.199039 0.0047027 0)
(0.199187 0.00476581 0)
(0.199428 0.00481381 0)
(0.199721 0.00483932 0)
(0.200036 0.00485274 0)
(0.200344 0.0048352 0)
(0.200634 0.00479746 0)
(0.200893 0.00472305 0)
(0.201124 0.00463401 0)
(0.201324 0.00451794 0)
(0.201504 0.00440184 0)
(0.201663 0.00426654 0)
(0.201815 0.00413854 0)
(0.201951 0.00399355 0)
(0.202079 0.00386257 0)
(0.202192 0.00371877 0)
(0.202296 0.00359527 0)
(0.202387 0.00346084 0)
(0.202471 0.00334845 0)
(0.202545 0.00322487 0)
(0.202614 0.00312312 0)
(0.202676 0.00301006 0)
(0.202733 0.00291881 0)
(0.202786 0.00281557 0)
(0.202834 0.00273517 0)
(0.202878 0.0026418 0)
(0.202918 0.00257236 0)
(0.202957 0.00249155 0)
(0.202987 0.00243337 0)
(0.203021 0.00236856 0)
(0.203042 0.00232195 0)
(0.203067 0.00227437 0)
(0.203076 0.00224363 0)
(0.203086 0.00222175 0)
(0.19921 0.00441914 0)
(0.199187 0.00449575 0)
(0.199303 0.00453946 0)
(0.199524 0.00457127 0)
(0.199803 0.00458985 0)
(0.200101 0.00460368 0)
(0.20039 0.00459819 0)
(0.200658 0.00457817 0)
(0.200899 0.00452859 0)
(0.201115 0.00446222 0)
(0.201307 0.00436936 0)
(0.201482 0.00426991 0)
(0.201642 0.00415257 0)
(0.201794 0.0040374 0)
(0.201934 0.00390858 0)
(0.202065 0.00378767 0)
(0.202185 0.00365713 0)
(0.202294 0.00353976 0)
(0.202392 0.00341572 0)
(0.20248 0.0033067 0)
(0.202561 0.00319183 0)
(0.202632 0.00309153 0)
(0.202701 0.00298584 0)
(0.20276 0.00289448 0)
(0.202819 0.00279786 0)
(0.202868 0.00271602 0)
(0.202918 0.00262902 0)
(0.202959 0.0025574 0)
(0.203003 0.00248248 0)
(0.203034 0.00242228 0)
(0.203073 0.00236244 0)
(0.203093 0.00231464 0)
(0.203124 0.0022709 0)
(0.203133 0.00224045 0)
(0.203151 0.00222062 0)
(0.199393 0.00422871 0)
(0.199314 0.00428954 0)
(0.1994 0.0043209 0)
(0.199606 0.00434181 0)
(0.199878 0.00435507 0)
(0.200166 0.00436782 0)
(0.200442 0.00436975 0)
(0.200692 0.00436196 0)
(0.200914 0.00433166 0)
(0.201113 0.00428481 0)
(0.201295 0.0042135 0)
(0.201462 0.00413099 0)
(0.201621 0.00403121 0)
(0.201771 0.00392899 0)
(0.201915 0.00381542 0)
(0.202048 0.00370511 0)
(0.202174 0.00358759 0)
(0.202287 0.00347766 0)
(0.202392 0.00336397 0)
(0.202484 0.00325972 0)
(0.202572 0.00315335 0)
(0.202646 0.00305599 0)
(0.202721 0.00295728 0)
(0.202782 0.00286726 0)
(0.202846 0.00277658 0)
(0.202897 0.00269487 0)
(0.202953 0.00261307 0)
(0.202994 0.00254112 0)
(0.203045 0.00247076 0)
(0.203076 0.00241011 0)
(0.20312 0.00235412 0)
(0.20314 0.00230645 0)
(0.203178 0.00226567 0)
(0.203186 0.00223623 0)
(0.203213 0.00221809 0)
(0.199558 0.00402819 0)
(0.199425 0.00407914 0)
(0.199482 0.00410404 0)
(0.199676 0.00411916 0)
(0.199944 0.0041295 0)
(0.200227 0.00414132 0)
(0.200495 0.00414788 0)
(0.200731 0.00414854 0)
(0.200937 0.00413281 0)
(0.201118 0.00410229 0)
(0.201287 0.00405019 0)
(0.201444 0.00398447 0)
(0.201599 0.00390184 0)
(0.201747 0.00381305 0)
(0.201892 0.00371399 0)
(0.202027 0.00361469 0)
(0.202158 0.00350977 0)
(0.202273 0.00340837 0)
(0.202386 0.00330497 0)
(0.20248 0.00320688 0)
(0.202575 0.00310887 0)
(0.202651 0.00301598 0)
(0.202732 0.00292393 0)
(0.202795 0.00283676 0)
(0.202866 0.00275137 0)
(0.202917 0.00267144 0)
(0.20298 0.00259396 0)
(0.203022 0.00252313 0)
(0.203079 0.00245671 0)
(0.20311 0.00239671 0)
(0.203161 0.00234388 0)
(0.203181 0.0022972 0)
(0.203224 0.00225877 0)
(0.203233 0.00223065 0)
(0.203269 0.00221393 0)
(0.199709 0.0038187 0)
(0.199524 0.00386357 0)
(0.199554 0.0038857 0)
(0.199736 0.00389865 0)
(0.200003 0.00390815 0)
(0.200284 0.00391982 0)
(0.200548 0.00392955 0)
(0.200772 0.00393623 0)
(0.200965 0.00393142 0)
(0.201129 0.00391436 0)
(0.201283 0.00387891 0)
(0.201428 0.00382924 0)
(0.201577 0.00376321 0)
(0.201719 0.00368831 0)
(0.201865 0.00360337 0)
(0.202 0.0035155 0)
(0.202135 0.00342278 0)
(0.202253 0.00333081 0)
(0.202371 0.00323763 0)
(0.202468 0.00314702 0)
(0.202569 0.00305731 0)
(0.202648 0.00297033 0)
(0.202735 0.00288488 0)
(0.202799 0.00280194 0)
(0.202876 0.00272155 0)
(0.202928 0.00264462 0)
(0.202997 0.00257131 0)
(0.20304 0.00250249 0)
(0.203103 0.00243991 0)
(0.203135 0.00238156 0)
(0.203192 0.00233147 0)
(0.203212 0.00228652 0)
(0.203262 0.00225022 0)
(0.203271 0.00222373 0)
(0.203316 0.00220818 0)
(0.199849 0.00360947 0)
(0.199615 0.00364947 0)
(0.199618 0.00366992 0)
(0.199789 0.00368207 0)
(0.200054 0.00369152 0)
(0.200336 0.00370339 0)
(0.200597 0.00371526 0)
(0.200813 0.00372621 0)
(0.200995 0.00372949 0)
(0.201144 0.00372325 0)
(0.201284 0.00370183 0)
(0.201415 0.00366689 0)
(0.201554 0.00361643 0)
(0.20169 0.00355553 0)
(0.201835 0.00348431 0)
(0.201968 0.00340818 0)
(0.202106 0.00332717 0)
(0.202226 0.00324518 0)
(0.202349 0.00316198 0)
(0.202448 0.00307976 0)
(0.202555 0.00299838 0)
(0.202635 0.00291826 0)
(0.202728 0.0028396 0)
(0.202793 0.0027618 0)
(0.202876 0.00268647 0)
(0.202929 0.00261321 0)
(0.203004 0.00254419 0)
(0.203047 0.00247815 0)
(0.203117 0.00241916 0)
(0.203149 0.00236343 0)
(0.203212 0.002316 0)
(0.203232 0.00227313 0)
(0.20329 0.00223913 0)
(0.203298 0.00221441 0)
(0.203352 0.00220047 0)
(0.199974 0.00340948 0)
(0.199695 0.00344438 0)
(0.199673 0.00346246 0)
(0.199834 0.00347332 0)
(0.200099 0.00348212 0)
(0.200381 0.00349367 0)
(0.200643 0.00350651 0)
(0.200854 0.00352019 0)
(0.201026 0.00352911 0)
(0.201161 0.0035313 0)
(0.201287 0.00352128 0)
(0.201403 0.00349934 0)
(0.201533 0.00346306 0)
(0.201659 0.00341586 0)
(0.201801 0.00335797 0)
(0.201931 0.00329383 0)
(0.202072 0.00322434 0)
(0.202191 0.00315268 0)
(0.202319 0.00307959 0)
(0.20242 0.00300628 0)
(0.202532 0.00293363 0)
(0.202613 0.00286095 0)
(0.202711 0.00278956 0)
(0.202776 0.00271762 0)
(0.202865 0.00264766 0)
(0.202918 0.00257858 0)
(0.203 0.00251386 0)
(0.203043 0.00245124 0)
(0.20312 0.00239558 0)
(0.203152 0.00234264 0)
(0.203221 0.00229814 0)
(0.203241 0.00225703 0)
(0.203306 0.00222535 0)
(0.203314 0.00220211 0)
(0.203377 0.00218982 0)
(0.200084 0.00321995 0)
(0.199763 0.00325045 0)
(0.199717 0.00326572 0)
(0.199869 0.00327459 0)
(0.200134 0.00328187 0)
(0.200419 0.00329235 0)
(0.200683 0.00330502 0)
(0.200891 0.00332 0)
(0.201057 0.00333244 0)
(0.20118 0.00334069 0)
(0.201294 0.00333943 0)
(0.201395 0.00332832 0)
(0.201513 0.0033044 0)
(0.201629 0.00326991 0)
(0.201765 0.00322477 0)
(0.201891 0.00317253 0)
(0.202032 0.00311457 0)
(0.202151 0.00305347 0)
(0.202283 0.00299071 0)
(0.202385 0.00292685 0)
(0.202501 0.00286326 0)
(0.202582 0.00279881 0)
(0.202684 0.0027349 0)
(0.20275 0.00266997 0)
(0.202843 0.00260569 0)
(0.202897 0.0025419 0)
(0.202984 0.00248151 0)
(0.203028 0.00242331 0)
(0.203111 0.00237095 0)
(0.203143 0.00232129 0)
(0.203219 0.00227943 0)
(0.203239 0.00224096 0)
(0.20331 0.00221058 0)
(0.203319 0.0021895 0)
(0.20339 0.00217751 0)
(0.200184 0.00302208 0)
(0.19982 0.00305115 0)
(0.19975 0.00306547 0)
(0.199893 0.00307369 0)
(0.200159 0.00308036 0)
(0.200448 0.00309039 0)
(0.200716 0.00310295 0)
(0.200923 0.00311875 0)
(0.201086 0.0031334 0)
(0.201198 0.00314579 0)
(0.201302 0.00315078 0)
(0.201388 0.00314803 0)
(0.201495 0.00313418 0)
(0.201599 0.00311088 0)
(0.201729 0.00307746 0)
(0.201849 0.0030369 0)
(0.201989 0.00299038 0)
(0.202107 0.0029403 0)
(0.202241 0.00288814 0)
(0.202343 0.00283445 0)
(0.202462 0.00278031 0)
(0.202544 0.00272499 0)
(0.202649 0.00266913 0)
(0.202714 0.00261217 0)
(0.202811 0.0025547 0)
(0.202865 0.00249744 0)
(0.202958 0.00244247 0)
(0.203003 0.00238975 0)
(0.203092 0.00234167 0)
(0.203124 0.00229617 0)
(0.203205 0.00225747 0)
(0.203224 0.00222243 0)
(0.203302 0.00219424 0)
(0.203311 0.0021753 0)
(0.20339 0.00216443 0)
(0.200413 0.0025406 0)
(0.199941 0.00256831 0)
(0.199812 0.00258744 0)
(0.19993 0.00260345 0)
(0.200199 0.00261838 0)
(0.200497 0.00263563 0)
(0.200776 0.00265409 0)
(0.200984 0.00267466 0)
(0.20114 0.00269416 0)
(0.201234 0.00271214 0)
(0.201314 0.00272521 0)
(0.201371 0.00273302 0)
(0.201451 0.00273372 0)
(0.201527 0.00272754 0)
(0.20164 0.00271492 0)
(0.201744 0.00269611 0)
(0.20188 0.00267358 0)
(0.201992 0.00264643 0)
(0.20213 0.00261821 0)
(0.20223 0.00258609 0)
(0.202355 0.00255387 0)
(0.202434 0.0025177 0)
(0.202546 0.00248132 0)
(0.202608 0.00244156 0)
(0.202713 0.00240182 0)
(0.202766 0.00236039 0)
(0.202871 0.00232071 0)
(0.202915 0.00228118 0)
(0.203018 0.00224544 0)
(0.203048 0.00220949 0)
(0.203144 0.00218036 0)
(0.203161 0.00215168 0)
(0.203254 0.00213173 0)
(0.203262 0.00211629 0)
(0.203359 0.00211015 0)
(0.200435 0.00187013 0)
(0.199927 0.00189831 0)
(0.199774 0.00192623 0)
(0.199878 0.00195526 0)
(0.200142 0.00198399 0)
(0.200433 0.00201365 0)
(0.200707 0.00204248 0)
(0.200901 0.0020713 0)
(0.201042 0.00209826 0)
(0.201111 0.0021237 0)
(0.201167 0.00214638 0)
(0.201194 0.00216624 0)
(0.201251 0.00218343 0)
(0.201301 0.0021971 0)
(0.201396 0.00220907 0)
(0.20148 0.00221695 0)
(0.201606 0.00222414 0)
(0.201703 0.00222624 0)
(0.201835 0.00222806 0)
(0.201922 0.00222374 0)
(0.202044 0.00221902 0)
(0.202112 0.00220819 0)
(0.202222 0.00219688 0)
(0.202276 0.00218129 0)
(0.202386 0.00216517 0)
(0.202434 0.00214726 0)
(0.202549 0.00212884 0)
(0.202591 0.00210961 0)
(0.202705 0.00209121 0)
(0.202733 0.00207069 0)
(0.202842 0.00205525 0)
(0.202859 0.00203741 0)
(0.202969 0.00202853 0)
(0.202978 0.00201959 0)
(0.203097 0.0020189 0)
(0.200354 0.0013224 0)
(0.19986 0.00135675 0)
(0.199713 0.00139541 0)
(0.19981 0.00143722 0)
(0.20006 0.00147846 0)
(0.200331 0.00151897 0)
(0.200583 0.00155636 0)
(0.200752 0.00159174 0)
(0.200871 0.00162407 0)
(0.200915 0.00165489 0)
(0.200952 0.00168421 0)
(0.200959 0.00171285 0)
(0.201002 0.00174152 0)
(0.201036 0.00176929 0)
(0.201122 0.00179774 0)
(0.20119 0.00182375 0)
(0.201305 0.00185016 0)
(0.201383 0.00187182 0)
(0.201502 0.00189292 0)
(0.201568 0.00190747 0)
(0.201679 0.001921 0)
(0.201729 0.00192859 0)
(0.201836 0.0019354 0)
(0.201878 0.00193878 0)
(0.201991 0.00194082 0)
(0.202032 0.00194136 0)
(0.202152 0.00193945 0)
(0.202186 0.00193591 0)
(0.202307 0.00193094 0)
(0.20233 0.00192276 0)
(0.20245 0.001918 0)
(0.202464 0.00190949 0)
(0.202591 0.00190799 0)
(0.202597 0.0019047 0)
(0.202734 0.00190632 0)
(0.200274 0.000762444 0)
(0.199858 0.000810081 0)
(0.199742 0.000871712 0)
(0.19983 0.000938896 0)
(0.200044 0.00100288 0)
(0.200264 0.00106037 0)
(0.200467 0.00110883 0)
(0.20059 0.00115034 0)
(0.200677 0.00118643 0)
(0.2007 0.00122081 0)
(0.200728 0.00125564 0)
(0.200727 0.00129249 0)
(0.200768 0.00133228 0)
(0.200794 0.00137314 0)
(0.200873 0.00141565 0)
(0.200925 0.00145555 0)
(0.201026 0.00149521 0)
(0.201081 0.00152941 0)
(0.201182 0.00156287 0)
(0.201224 0.00159005 0)
(0.201321 0.00161702 0)
(0.201355 0.00163892 0)
(0.201456 0.00166077 0)
(0.201488 0.00167936 0)
(0.201599 0.00169663 0)
(0.20163 0.00171166 0)
(0.20175 0.00172332 0)
(0.201775 0.00173219 0)
(0.201898 0.00173875 0)
(0.201915 0.00174147 0)
(0.202044 0.00174639 0)
(0.202054 0.00174648 0)
(0.202193 0.00175138 0)
(0.202197 0.00175275 0)
(0.202348 0.00175668 0)
(0.200264 0.000216941 0)
(0.20016 0.000283164 0)
(0.200164 0.000371661 0)
(0.200218 0.000465606 0)
(0.20031 0.000550767 0)
(0.200381 0.000622449 0)
(0.20045 0.000679442 0)
(0.200478 0.000726609 0)
(0.200514 0.00076814 0)
(0.200521 0.000809653 0)
(0.200557 0.000853752 0)
(0.20057 0.000901827 0)
(0.200621 0.000953693 0)
(0.200644 0.0010069 0)
(0.200708 0.00106112 0)
(0.200736 0.00111217 0)
(0.200809 0.00116202 0)
(0.200837 0.00120611 0)
(0.200915 0.00124949 0)