/*--------------------------------*- C++ -*----------------------------------*\
| =========                 |                                                 |
| \\      /  F ield         | OpenFOAM: The Open Source CFD Toolbox           |
|  \\    /   O peration     | Version:  1.4.1-dev                             |
|   \\  /    A nd           | Web:      http://www.openfoam.org               |
|    \\/     M anipulation  |                                                 |
\*---------------------------------------------------------------------------*/

FoamFile
{
    version 2.0;
    format ascii;

    root "/home/mjaworsk/OpenFOAM/mjaworsk-1.4.1-dev/run/FlatPlate-Blasius";
    case "icoHeatFoam-flatPlate2";
    instance "0.8";
    local "";

    class volScalarField;
    object p;
}

// * * * * * * * * * * * * * * * * * * * * * * * * * * * * * * * * * * * * * //

dimensions      [0 2 -2 0 0 0 0];

internalField   nonuniform List<scalar> 
2475
(
0.00436584
0.00182071
0.000192691
-0.000217419
-0.000178118
-0.000103682
-6.53588e-05
-4.6444e-05
-3.40008e-05
-2.43789e-05
-1.67857e-05
-1.07842e-05
-6.07808e-06
-2.42251e-06
3.45762e-07
2.31454e-06
3.58825e-06
4.14465e-06
4.12885e-06
3.47067e-06
2.45468e-06
9.58119e-07
-6.28083e-07
-2.59641e-06
-4.51144e-06
-6.75664e-06
-8.85354e-06
-1.09965e-05
-1.29312e-05
-1.41838e-05
-1.56314e-05
-1.46745e-05
-1.55125e-05
-9.03221e-06
-1.13768e-05
0.00380806
0.0018174
0.000289734
-0.000156537
-0.000142309
-8.18406e-05
-5.17791e-05
-3.70468e-05
-2.6812e-05
-1.86384e-05
-1.21129e-05
-6.9182e-06
-2.83725e-06
3.25792e-07
2.69574e-06
4.34251e-06
5.34769e-06
5.68422e-06
5.47893e-06
4.66499e-06
3.50914e-06
1.89917e-06
2.06068e-07
-1.8451e-06
-3.84408e-06
-6.14894e-06
-8.31426e-06
-1.04986e-05
-1.24918e-05
-1.37696e-05
-1.52706e-05
-1.43233e-05
-1.52142e-05
-8.72614e-06
-1.11116e-05
0.00330236
0.00183244
0.000436584
-7.35399e-05
-0.000100177
-5.40562e-05
-3.30677e-05
-2.46657e-05
-1.80322e-05
-1.19384e-05
-6.80633e-06
-2.62053e-06
7.05654e-07
3.29217e-06
5.20739e-06
6.49276e-06
7.20155e-06
7.29743e-06
6.88755e-06
5.90567e-06
4.60128e-06
2.87039e-06
1.06548e-06
-1.07336e-06
-3.15928e-06
-5.52734e-06
-7.76324e-06
-9.99157e-06
-1.2045e-05
-1.33499e-05
-1.49057e-05
-1.39694e-05
-1.49147e-05
-8.4216e-06
-1.08554e-05
0.00291349
0.00184634
0.000609176
3.69837e-05
-4.54948e-05
-1.76504e-05
-6.77578e-06
-7.04229e-06
-6.03029e-06
-3.13032e-06
-2.16957e-08
2.73036e-06
5.00398e-06
6.80793e-06
8.12502e-06
8.94663e-06
9.28567e-06
9.08677e-06
8.43313e-06
7.25329e-06
5.77862e-06
3.90924e-06
1.98e-06
-2.57571e-07
-2.43809e-06
-4.87694e-06
-7.18841e-06
-9.4663e-06
-1.1583e-05
-1.29193e-05
-1.45318e-05
-1.36112e-05
-1.46102e-05
-8.12352e-06
-1.06038e-05
0.00259933
0.00182659
0.000768902
0.000162774
1.99246e-05
2.62055e-05
2.78465e-05
1.79018e-05
1.11567e-05
9.29272e-06
9.45325e-06
1.01486e-05
1.08964e-05
1.15554e-05
1.19995e-05
1.21474e-05
1.19568e-05
1.134e-05
1.03496e-05
8.89938e-06
7.19976e-06
5.14764e-06
3.06032e-06
6.95287e-07
-1.60176e-06
-4.13096e-06
-6.53281e-06
-8.87405e-06
-1.10642e-05
-1.24422e-05
-1.4118e-05
-1.32226e-05
-1.42772e-05
-7.818e-06
-1.03344e-05
0.00233553
0.0017678
0.00089567
0.00029084
9.13168e-05
7.23052e-05
6.6658e-05
4.87908e-05
3.36368e-05
2.57811e-05
2.21217e-05
2.01593e-05
1.88959e-05
1.80078e-05
1.72527e-05
1.64631e-05
1.55302e-05
1.4323e-05
1.28591e-05
1.10282e-05
9.01788e-06
6.7121e-06
4.41157e-06
1.87144e-06
-5.78633e-07
-3.23102e-06
-5.74794e-06
-8.1757e-06
-1.04564e-05
-1.1893e-05
-1.36435e-05
-1.27888e-05
-1.39024e-05
-7.50445e-06
-1.00331e-05
0.00211412
0.00168399
0.000985457
0.000413808
0.00016772
0.000118707
0.000105725
8.26681e-05
5.99888e-05
4.56395e-05
3.76026e-05
3.26229e-05
2.90411e-05
2.63061e-05
2.40718e-05
2.21002e-05
2.02137e-05
1.82356e-05
1.61464e-05
1.38071e-05
1.13814e-05
8.7325e-06
6.14604e-06
3.36678e-06
7.12847e-07
-2.10884e-06
-4.77656e-06
-7.32454e-06
-9.72131e-06
-1.12419e-05
-1.30842e-05
-1.22936e-05
-1.34712e-05
-7.18553e-06
-9.68208e-06
0.00192869
0.00159084
0.00104078
0.000525451
0.000248572
0.000166335
0.000143435
0.000117196
8.87347e-05
6.79831e-05
5.51859e-05
4.697e-05
4.09457e-05
3.62303e-05
3.23552e-05
2.90402e-05
2.60427e-05
2.31509e-05
2.0304e-05
1.73403e-05
1.4396e-05
1.13142e-05
8.3625e-06
5.27417e-06
2.35614e-06
-6.88446e-07
-3.55254e-06
-6.2623e-06
-8.81019e-06
-1.0448e-05
-1.24069e-05
-1.17126e-05
-1.29618e-05
-6.85975e-06
-9.25488e-06
0.00177195
0.00149843
0.00106684
0.00061995
0.000331063
0.000216517
0.000179801
0.000150874
0.00011866
9.21939e-05
7.4399e-05
6.27015e-05
5.41476e-05
4.74081e-05
4.18212e-05
3.70806e-05
3.28797e-05
2.8989e-05
2.52946e-05
2.16268e-05
1.8082e-05
1.44968e-05
1.11079e-05
7.64993e-06
4.40694e-06
1.08988e-06
-2.02098e-06
-4.93364e-06
-7.67551e-06
-9.46643e-06
-1.15751e-05
-1.10157e-05
-1.23482e-05
-6.5198e-06
-8.72111e-06
0.00163739
0.00141159
0.00107057
0.000693758
0.000410661
0.000269684
0.000215828
0.000183005
0.000148701
0.00011776
9.50353e-05
7.95855e-05
6.83569e-05
5.95515e-05
5.22143e-05
4.59987e-05
4.0534e-05
3.5593e-05
3.09938e-05
2.65759e-05
2.23749e-05
1.82434e-05
1.43615e-05
1.04936e-05
6.87213e-06
3.24769e-06
-1.59087e-07
-3.30524e-06
-6.28728e-06
-8.26189e-06
-1.05598e-05
-1.01748e-05
-1.16061e-05
-6.15331e-06
-8.05824e-06
0.00152009
0.00133193
0.00105911
0.000746601
0.000482787
0.000324903
0.000252801
0.000213731
0.000178027
0.000144094
0.000116952
9.75803e-05
8.34718e-05
7.25153e-05
6.33905e-05
5.5656e-05
4.88736e-05
4.28339e-05
3.7282e-05
3.2079e-05
2.71802e-05
2.24756e-05
1.80594e-05
1.37588e-05
9.71545e-06
5.76507e-06
2.01889e-06
-1.37655e-06
-4.6428e-06
-6.82064e-06
-9.34838e-06
-9.17302e-06
-1.07206e-05
-5.74588e-06
-7.26575e-06
0.00141663
0.00125929
0.00103833
0.000780846
0.000544122
0.000379935
0.000291456
0.00024381
0.000206215
0.000170537
0.000139893
0.000116688
9.95038e-05
8.62587e-05
7.52928e-05
6.59948e-05
5.78444e-05
5.06502e-05
4.40949e-05
3.80655e-05
3.24293e-05
2.71246e-05
2.21391e-05
1.73878e-05
1.28873e-05
8.59946e-06
4.47763e-06
8.25739e-07
-2.76169e-06
-5.15414e-06
-7.94634e-06
-8.01145e-06
-9.69107e-06
-5.28568e-06
-6.37313e-06
0.00132461
0.00119292
0.00101227
0.000800148
0.000593114
0.000431937
0.000331519
0.000274114
0.000233329
0.000196509
0.000163444
0.00013683
0.000116495
0.0001008
8.79117e-05
7.70013e-05
6.74388e-05
5.90315e-05
5.14195e-05
4.45119e-05
3.80965e-05
3.21557e-05
2.65676e-05
2.13411e-05
1.63534e-05
1.17118e-05
7.18527e-06
3.26614e-06
-6.69258e-07
-3.29012e-06
-6.36913e-06
-6.70746e-06
-8.52838e-06
-4.76705e-06
-5.43277e-06
0.00124223
0.0011321
0.000983505
0.000808241
0.000629955
0.000478402
0.000371727
0.000305123
0.000259793
0.000221688
0.000187108
0.000157785
0.000134443
0.000116179
0.000101262
8.86789e-05
7.76651e-05
6.7991e-05
5.927e-05
5.14269e-05
4.4187e-05
3.75656e-05
3.1341e-05
2.56054e-05
2.01035e-05
1.5081e-05
1.01273e-05
5.91775e-06
1.6184e-06
-1.2574e-06
-4.63099e-06
-5.2849e-06
-7.24891e-06
-4.1901e-06
-4.50073e-06
0.00116814
0.00107627
0.000953621
0.000808295
0.000655992
0.000517723
0.000410285
0.000336653
0.000286088
0.000246067
0.000210457
0.000179206
0.000153241
0.000132411
0.000115367
0.000101037
8.85299e-05
7.75444e-05
6.76666e-05
5.88321e-05
5.07202e-05
4.33694e-05
3.64727e-05
3.01871e-05
2.41447e-05
1.87046e-05
1.33056e-05
8.76873e-06
4.09811e-06
9.25373e-07
-2.73903e-06
-3.76262e-06
-5.86832e-06
-3.55611e-06
-3.61897e-06
0.0011013
0.0010251
0.000923706
0.000802777
0.000673062
0.000549352
0.000445483
0.000367897
0.000312425
0.000269854
0.000233248
0.000200711
0.000172666
0.000149447
0.000130235
0.000114083
0.000100034
8.7699e-05
7.66236e-05
6.67482e-05
5.77181e-05
4.95879e-05
4.19821e-05
3.51025e-05
2.84928e-05
2.25915e-05
1.67313e-05
1.18201e-05
6.77523e-06
3.25243e-06
-6.94286e-07
-2.14824e-06
-4.39974e-06
-2.86322e-06
-2.80984e-06
0.00104098
0.000978441
0.000894613
0.00079359
0.000683044
0.000573592
0.000476079
0.000397702
0.000338593
0.000293258
0.000255433
0.000221983
0.000192421
0.000167147
0.000145831
0.000127812
0.000112171
9.84511e-05
8.61448e-05
7.51876e-05
6.51977e-05
5.62406e-05
4.78884e-05
4.03691e-05
3.31658e-05
2.67554e-05
2.04186e-05
1.5081e-05
9.65821e-06
5.72783e-06
1.50448e-06
-4.38365e-07
-2.85448e-06
-2.1058e-06
-2.08012e-06
0.000986721
0.000936335
0.000867117
0.000782264
0.000687651
0.00059124
0.000501449
0.000424932
0.000364008
0.000316295
0.000277076
0.000242836
0.000212208
0.000185297
0.000162064
0.000142196
0.000124924
0.000109786
9.62224e-05
8.4151e-05
7.31683e-05
6.3341e-05
5.42084e-05
4.60022e-05
3.81803e-05
3.12111e-05
2.43806e-05
1.85638e-05
1.27554e-05
8.36119e-06
3.85746e-06
1.37766e-06
-1.24231e-06
-1.27694e-06
-1.42647e-06
0.000938311
0.000899032
0.000842003
0.000770111
0.000688404
0.000603319
0.000521534
0.000448717
0.000387893
0.000338722
0.00029821
0.000263196
0.000231787
0.000203643
0.000178774
0.00015716
0.000138259
0.000121677
0.000106837
9.36273e-05
8.16289e-05
7.08943e-05
6.0954e-05
5.20142e-05
4.35487e-05
3.59726e-05
2.86275e-05
2.22813e-05
1.60736e-05
1.11651e-05
6.36223e-06
3.31283e-06
4.29596e-07
-3.71707e-07
-8.39194e-07
0.000895665
0.000866881
0.000820039
0.00075829
0.000686657
0.000610934
0.000536686
0.000468581
0.000409501
0.00036009
0.000318742
0.000283039
0.00025101
0.000221953
0.000195764
0.000172585
0.000152113
0.000134085
0.00011796
0.000103594
9.05682e-05
7.88971e-05
6.8129e-05
5.84151e-05
4.92782e-05
4.10517e-05
3.3167e-05
2.62448e-05
1.96157e-05
1.4154e-05
9.015e-06
5.37761e-06
2.15789e-06
6.11143e-07
-3.04939e-07
0.000858552
0.000840064
0.000801805
0.000747733
0.000683562
0.000615152
0.0005475
0.000484426
0.000428271
0.000379864
0.000338423
0.000302298
0.000269787
0.000240043
0.000212823
0.000188309
0.00016639
0.000146949
0.000129546
0.00011402
9.99634e-05
8.73385e-05
7.57275e-05
6.5211e-05
5.53738e-05
4.64562e-05
3.80037e-05
3.0465e-05
2.33803e-05
1.73409e-05
1.18143e-05
7.57709e-06
3.94258e-06
1.66938e-06
1.91123e-07
0.000826354
0.000818302
0.000787451
0.000739007
0.00067999
0.000616909
0.000554659
0.000496429
0.000443882
0.000397538
0.000356882
0.000320807
0.000288027
0.000257775
0.000229762
0.000204149
0.000180953
0.000160179
0.00014153
0.000124854
0.000109777
9.61965e-05
8.37337e-05
7.23977e-05
6.1837e-05
5.21911e-05
4.31362e-05
3.49524e-05
2.73644e-05
2.07324e-05
1.47633e-05
9.91291e-06
5.78497e-06
2.7976e-06
6.63964e-07
0.00079813
0.000800786
0.000776584
0.00073223
0.000676476
0.00061695
0.000558836
0.000504935
0.000456245
0.000412723
0.000373698
0.000338288
0.000305577
0.000275017
0.000246408
0.000219914
0.000195633
0.000173654
0.000153819
0.000136028
0.000119952
0.000105432
9.21191e-05
7.99562e-05
6.86568e-05
5.82587e-05
4.8556e-05
3.97093e-05
3.1568e-05
2.43261e-05
1.78643e-05
1.23868e-05
7.688e-06
3.98693e-06
1.12662e-06
0.000772926
0.000786416
0.000768406
0.000727124
0.000673251
0.000615844
0.000560678
0.000510412
0.000465488
0.000425212
0.000388506
0.000354411
0.00032222
0.000291625
0.000262614
0.00023543
0.000210254
0.000187227
0.000166303
0.000147451
0.000130418
0.000114992
0.000100844
8.78569e-05
7.58052e-05
6.465e-05
5.42537e-05
4.47232e-05
3.59896e-05
2.81165e-05
2.11109e-05
1.49973e-05
9.65892e-06
5.22739e-06
1.58834e-06
0.000749889
0.000774034
0.000761912
0.000723132
0.000670275
0.000613946
0.000560729
0.000513361
0.000471882
0.000434981
0.000401053
0.000368855
0.000337689
0.000307412
0.000278231
0.000250539
0.000224642
0.000200735
0.000178852
0.000159023
0.00014109
0.000124814
0.000109862
9.60696e-05
8.32512e-05
7.13407e-05
6.02238e-05
4.9978e-05
4.0617e-05
3.21001e-05
2.44927e-05
1.77303e-05
1.1706e-05
6.51219e-06
2.05386e-06
0.000728243
0.000762586
0.000756105
0.00071956
0.000667269
0.000611358
0.000559327
0.00051417
0.000475699
0.000442084
0.000411173
0.000381321
0.000351673
0.000322128
0.000293066
0.00026507
0.000238616
0.000213992
0.000191299
0.000170609
0.000151855
0.000134808
0.000119107
0.000104545
9.09601e-05
7.82904e-05
6.64483e-05
5.54679e-05
4.54329e-05
3.62686e-05
2.80089e-05
2.05635e-05
1.3829e-05
7.84038e-06
2.5225e-06
0.000707576
0.000751483
0.000750358
0.000715895
0.000663945
0.000608048
0.000556643
0.000513105
0.000477168
0.000446608
0.000418771
0.000391565
0.000363863
0.000335479
0.000306881
0.000278824
0.000251987
0.0002268
0.000203453
0.000182043
0.00016257
0.000144844
0.000128477
0.000113202
9.88704e-05
8.54395e-05
7.28703e-05
6.11705e-05
5.04232e-05
4.05945e-05
3.16586e-05
2.34832e-05
1.60149e-05
9.21235e-06
2.99563e-06
0.00068808
0.000740811
0.000744656
0.000712085
0.000660288
0.0006041
0.000552873
0.00051043
0.000476546
0.000448722
0.000423873
0.00039946
0.000374023
0.000347191
0.000319423
0.000291591
0.000264572
0.000238978
0.000215129
0.000193162
0.000173102
0.000154804
0.000137866
0.000121953
0.000106913
9.27317e-05
7.94232e-05
6.70277e-05
5.55723e-05
4.50433e-05
3.54123e-05
2.64794e-05
1.82445e-05
1.06137e-05
3.47743e-06
0.000669881
0.000730865
0.000739325
0.000708417
0.000656548
0.00059976
0.000548292
0.00050645
0.000474134
0.000448666
0.000426602
0.000404987
0.000382001
0.000357026
0.000330428
0.000303122
0.000276153
0.000250329
0.000226133
0.000203778
0.000183296
0.000164553
0.000147153
0.000130703
0.000115017
0.000100118
8.6072e-05
7.29859e-05
6.08607e-05
4.96184e-05
3.9245e-05
2.95437e-05
2.05181e-05
1.20362e-05
3.96721e-06
0.000651766
0.000721107
0.000734208
0.000704889
0.000652775
0.000595119
0.000543055
0.000501393
0.000470197
0.000446688
0.00042713
0.000408191
0.000387698
0.000364758
0.000339588
0.000313087
0.000286412
0.000260558
0.000236191
0.000213624
0.000192906
0.000173875
0.000156134
0.00013926
0.000123021
0.000107469
9.2727e-05
7.89666e-05
6.62082e-05
5.42955e-05
4.31438e-05
3.26552e-05
2.28389e-05
1.34927e-05
4.5221e-06
0.000605098
0.000694752
0.000719398
0.000694325
0.000641985
0.000582428
0.000528841
0.000487233
0.000458147
0.000438636
0.000424361
0.000411226
0.000396318
0.000378146
0.000356551
0.000332324
0.000306804
0.000281345
0.000257019
0.000234381
0.000213524
0.000194196
0.000175939
0.000158317
0.000141017
0.00012414
0.000107931
9.27062e-05
7.85377e-05
6.51666e-05
5.22583e-05
3.98935e-05
2.82379e-05
1.68871e-05
5.77447e-06
0.000543735
0.000635557
0.000662747
0.00064061
0.000591627
0.000535916
0.000486744
0.000450124
0.000426485
0.000412628
0.000403916
0.000395982
0.000385754
0.000371705
0.000353748
0.000332787
0.00031027
0.000287636
0.00026596
0.00024572
0.000226823
0.000208861
0.000191323
0.000173896
0.000156442
0.000139158
0.00012234
0.000106288
9.10755e-05
7.64334e-05
6.19949e-05
4.77031e-05
3.39024e-05
2.03328e-05
6.78865e-06
0.000470764
0.000548255
0.000570024
0.000550238
0.000508862
0.000463337
0.000424802
0.00039784
0.000382026
0.000373899
0.000369079
0.000363785
0.000355641
0.000343773
0.000328568
0.000311162
0.000292898
0.000274866
0.000257653
0.000241324
0.000225542
0.000209876
0.000193975
0.000177764
0.000161346
0.000144959
0.00012884
0.000113123
9.78469e-05
8.28097e-05
6.77869e-05
5.26291e-05
3.75939e-05
2.2682e-05
7.6616e-06
0.000389669
0.000437463
0.000448366
0.000433055
0.000405413
0.000376926
0.00035433
0.000339677
0.000331679
0.000327422
0.00032391
0.000318982
0.000311608
0.000301707
0.000289834
0.000276857
0.000263628
0.000250672
0.000238064
0.000225578
0.000212884
0.000199735
0.000186033
0.000171858
0.000157399
0.000142818
0.000128237
0.000113661
9.91004e-05
8.44543e-05
6.9638e-05
5.45383e-05
3.92245e-05
2.37834e-05
8.08105e-06
0.000311478
0.000310887
0.000306738
0.000300849
0.000294897
0.000289866
0.000285976
0.000282874
0.000279956
0.000276605
0.000272362
0.000266979
0.000260473
0.000253092
0.000245204
0.000237085
0.000228801
0.000220267
0.000211354
0.000201952
0.000191984
0.000181413
0.000170275
0.000158643
0.000146629
0.000134287
0.000121654
0.000108693
9.54141e-05
8.18068e-05
6.78603e-05
5.35094e-05
3.8715e-05
2.3539e-05
7.95075e-06
0.000246248
0.000214491
0.000203051
0.000206221
0.000216352
0.000226989
0.000234278
0.000236929
0.00023547
0.000231279
0.000225815
0.000220154
0.000214859
0.00021004
0.000205501
0.000200883
0.000195836
0.000190122
0.000183657
0.000176468
0.000168647
0.000160282
0.000151447
0.000142153
0.000132403
0.000122166
0.000111437
0.0001002
8.84739e-05
7.62693e-05
6.35888e-05
5.04015e-05
3.66656e-05
2.23949e-05
7.5812e-06
0.000208339
0.000167963
0.000154164
0.000159347
0.00017348
0.000188156
0.000198377
0.00020251
0.000201347
0.000196856
0.000191118
0.000185642
0.000181144
0.00017762
0.000174637
0.000171619
0.000168105
0.000163849
0.000158824
0.000153122
0.00014687
0.000140157
0.00013303
0.000125474
0.000117448
0.0001089
9.98114e-05
9.0168e-05
7.99778e-05
6.92393e-05
5.79557e-05
4.61107e-05
3.3684e-05
2.06523e-05
6.99696e-06
0.000184968
0.000143745
0.000129378
0.000134213
0.000148133
0.000162658
0.00017275
0.000176779
0.000175561
0.000171104
0.000165514
0.000160294
0.000156133
0.000153001
0.000150461
0.000147963
0.000145082
0.000141592
0.000137456
0.000132743
0.000127562
0.000121988
0.000116053
0.000109731
0.000102981
9.57541e-05
8.80178e-05
7.97504e-05
7.09439e-05
6.15926e-05
5.16958e-05
4.1239e-05
3.02038e-05
1.85555e-05
6.28875e-06
0.000164114
0.000126025
0.000112604
0.000116794
0.000129295
0.000142338
0.000151331
0.000154812
0.000153551
0.000149384
0.000144217
0.000139403
0.000135559
0.000132669
0.000130358
0.000128142
0.000125638
0.000122628
0.000119071
0.000115024
0.000110587
0.000105827
0.000100769
9.53837e-05
8.96301e-05
8.34564e-05
7.68305e-05
6.97272e-05
6.21374e-05
5.40473e-05
4.54453e-05
3.63113e-05
2.66291e-05
1.63823e-05
5.55917e-06
0.000143909
0.000110835
9.91974e-05
0.000102799
0.000113531
0.000124655
0.00013222
0.000135007
0.000133724
0.00012998
0.000125417
0.000121186
0.000117801
0.000115236
0.000113161
0.000111163
0.000108916
0.000106245
0.00010312
9.95952e-05
9.57503e-05
9.16384e-05
8.72768e-05
8.26409e-05
7.76928e-05
7.23864e-05
6.66897e-05
6.05754e-05
5.40299e-05
4.70352e-05
3.95815e-05
3.16522e-05
2.32366e-05
1.43137e-05
4.8598e-06
0.000125242
9.75991e-05
8.79006e-05
9.09005e-05
9.97866e-05
0.000108928
0.000115054
0.000117187
0.000115957
0.000112716
0.000108827
0.000105232
0.000102335
0.000100101
9.82493e-05
9.6441e-05
9.44171e-05
9.20404e-05
8.92922e-05
8.62156e-05
8.28747e-05
7.93091e-05
7.55311e-05
7.15193e-05
6.72416e-05
6.26583e-05
5.77407e-05
5.2463e-05
4.68113e-05
4.07699e-05
3.43285e-05
2.74697e-05
2.01791e-05
1.24351e-05
4.22274e-06
0.000108469
8.56353e-05
7.76528e-05
8.01385e-05
8.74359e-05
9.48914e-05
9.98237e-05
0.000101457
0.000100336
9.75861e-05
9.43258e-05
9.13137e-05
8.88689e-05
8.695e-05
8.53245e-05
8.37172e-05
8.19219e-05
7.98315e-05
7.74332e-05
7.47615e-05
7.18667e-05
6.87786e-05
6.55049e-05
6.20268e-05
5.8318e-05
5.43456e-05
5.0086e-05
4.55171e-05
4.06258e-05
3.5396e-05
2.98158e-05
2.38682e-05
1.754e-05
1.08139e-05
3.67413e-06
9.44343e-05
7.54197e-05
6.8801e-05
7.08911e-05
7.69562e-05
8.31169e-05
8.71527e-05
8.84379e-05
8.74422e-05
8.51096e-05
8.23661e-05
7.98325e-05
7.77636e-05
7.61179e-05
7.47003e-05
7.32844e-05
7.17027e-05
6.98693e-05
6.77748e-05
6.54471e-05
6.29263e-05
6.02348e-05
5.73779e-05
5.43391e-05
5.10964e-05
4.76222e-05
4.38964e-05
3.98998e-05
3.56199e-05
3.10421e-05
2.61554e-05
2.09446e-05
1.53974e-05
9.49693e-06
3.2281e-06
8.41684e-05
6.78352e-05
6.21656e-05
6.39709e-05
6.91716e-05
7.44336e-05
7.78572e-05
7.89171e-05
7.80263e-05
7.59983e-05
7.36252e-05
7.14331e-05
6.96343e-05
6.81891e-05
6.69292e-05
6.56615e-05
6.42448e-05
6.26068e-05
6.07402e-05
5.86681e-05
5.64235e-05
5.40244e-05
5.14744e-05
4.87585e-05
4.58575e-05
4.27473e-05
3.94102e-05
3.58291e-05
3.19926e-05
2.78874e-05
2.3503e-05
1.88252e-05
1.38427e-05
8.53974e-06
2.90283e-06
7.85348e-05
6.37937e-05
5.86818e-05
6.03105e-05
6.49922e-05
6.97169e-05
7.27746e-05
7.3697e-05
7.28621e-05
7.10058e-05
6.88412e-05
6.68399e-05
6.51904e-05
6.38545e-05
6.26796e-05
6.1492e-05
6.0165e-05
5.86342e-05
5.68929e-05
5.49615e-05
5.28691e-05
5.0631e-05
4.82499e-05
4.57115e-05
4.29982e-05
4.00879e-05
3.6964e-05
3.36105e-05
3.00167e-05
2.61697e-05
2.20597e-05
1.76731e-05
1.29989e-05
8.0219e-06
2.7288e-06
0.000522126
0.000829976
0.00071916
0.000842735
0.000765119
0.000895746
0.000856823
0.00099257
0.00098463
0.00113542
0.00115707
0.00133419
0.00138678
0.00160557
0.0016999
0.00198835
0.00216816
0.00261496
0.00301389
0.00384061
0.00052247
0.000829471
0.000719817
0.000842195
0.000765837
0.000894935
0.000857538
0.000991257
0.0009853
0.00113314
0.0011576
0.00133003
0.00138683
0.00159787
0.00169994
0.00197308
0.00216662
0.00257209
0.00296253
0.00352078
0.000523075
0.000828434
0.000721187
0.000840999
0.000767321
0.000893147
0.000859125
0.000988466
0.000986987
0.00112846
0.00115945
0.00132164
0.00138931
0.00158177
0.00170243
0.00194177
0.00216056
0.00249044
0.00284942
0.00315724
0.000523861
0.000827491
0.00072287
0.000839697
0.000769069
0.000891078
0.000861011
0.000985121
0.000989004
0.00112267
0.00116166
0.00131109
0.00139159
0.00156215
0.00170184
0.00190593
0.00213748
0.00239516
0.00269357
0.00285325
0.000525046
0.000826761
0.000724853
0.000838347
0.000771047
0.000888735
0.000863122
0.000981146
0.000991195
0.0011156
0.00116383
0.00129843
0.0013924
0.00154046
0.00169456
0.00186811
0.00209365
0.0022937
0.00252099
0.00260703
0.000526857
0.00082611
0.000727188
0.000836773
0.000773277
0.000885851
0.000865454
0.000976205
0.000993479
0.00110699
0.00116546
0.00128402
0.00139023
0.00151856
0.00167817
0.00182853
0.00203094
0.00218825
0.00234798
0.0023941
0.000529404
0.000825341
0.000729867
0.000834771
0.000775727
0.000882195
0.000867958
0.000970134
0.000995684
0.00109703
0.00116575
0.00126931
0.00138336
0.00149725
0.00165168
0.00178564
0.00195471
0.00207913
0.00218247
0.00220145
0.000532666
0.000824249
0.000732884
0.000832179
0.000778392
0.000877639
0.000870583
0.000962992
0.00099745
0.0010864
0.00116362
0.00125522
0.00137073
0.00147575
0.00161625
0.00173715
0.00187098
0.00196713
0.00202796
0.00202626
0.000536541
0.000822659
0.000736285
0.000828899
0.000781319
0.000872161
0.000873231
0.000955026
0.000998181
0.00107592
0.00115817
0.00124177
0.00135243
0.0014519
0.00157423
0.00168168
0.00178396
0.00185437
0.00188551
0.00186867
0.000540918
0.000820439
0.000740169
0.000824888
0.000784551
0.000865832
0.000875664
0.000946651
0.000997155
0.00106595
0.00114895
0.0012279
0.00132953
0.00142372
0.00152754
0.00161944
0.00169581
0.00174354
0.00175479
0.0017282
0.000545739
0.000817479
0.000744646
0.000820158
0.000788047
0.000858823
0.000877469
0.000938367
0.000993771
0.00105639
0.00113621
0.00121213
0.00130314
0.00139019
0.00147699
0.00155207
0.00160765
0.0016368
0.00163494
0.00160317
0.000551028
0.000813646
0.000749776
0.000814772
0.000791635
0.000851406
0.000878062
0.000930506
0.000987699
0.00104651
0.00112064
0.00119325
0.00127363
0.00135125
0.00142286
0.00148154
0.00152038
0.00153536
0.00152504
0.00149144
0.00055688
0.000808763
0.000755524
0.000808888
0.000794997
0.000843961
0.000876866
0.000923156
0.000979068
0.00103533
0.00110275
0.00117064
0.00124087
0.00130756
0.00136544
0.00140942
0.00143483
0.00143964
0.00142422
0.00139102
0.000563436
0.000802636
0.000761715
0.000802789
0.000797702
0.0008369
0.000873504
0.0009159
0.00096837
0.00102203
0.00108259
0.00114411
0.00120457
0.0012599
0.00130527
0.00133675
0.00135171
0.00134961
0.00133164
0.00130033
0.000570855
0.000795095
0.000768002
0.000796908
0.000799301
0.000830537
0.000867894
0.000907949
0.000956006
0.00100617
0.00105988
0.00111379
0.00116462
0.00120894
0.00124309
0.00126432
0.00127152
0.00126506
0.00124649
0.00121811
0.000579278
0.000786064
0.000773854
0.000791757
0.000799419
0.000824926
0.000860455
0.000898588
0.000941986
0.000987514
0.00103429
0.00107986
0.00112113
0.0011552
0.00117957
0.0011927
0.00119445
0.0011857
0.001168
0.00114334
0.000588782
0.000775658
0.000778559
0.000787788
0.00079777
0.000819571
0.000851776
0.00088743
0.000926069
0.000965997
0.00100553
0.0010425
0.00107442
0.00109917
0.00111527
0.00112223
0.00112048
0.00111108
0.00109546
0.00107517
0.000599332
0.000764269
0.000781329
0.000785236
0.000794762
0.000813826
0.000842065
0.000874244
0.000907921
0.000941561
0.000973484
0.00100183
0.00102484
0.00104126
0.00105054
0.00105295
0.00104928
0.00104062
0.00102813
0.00101292
0.000610843
0.000752316
0.000781394
0.000783893
0.000791343
0.000807459
0.000831299
0.000858973
0.000887228
0.000914121
0.000938189
0.000958064
0.000972712
0.000981742
0.000985437
0.000984602
0.000980271
0.000973497
0.000965194
0.00095603
0.000623188
0.000740939
0.000777929
0.00078261
0.00078791
0.000800534
0.00081948
0.000841698
0.000863851
0.000883658
0.000899811
0.000911493
0.000918388
0.000920851
0.00091985
0.000916666
0.000912596
0.000908723
0.00090575
0.000903934
0.000636026
0.000730728
0.000771019
0.000780079
0.000784463
0.000793232
0.000806725
0.00082262
0.000837934
0.000850339
0.00085864
0.000862485
0.000862185
0.000858711
0.000853606
0.000848638
0.000845465
0.000845338
0.000848879
0.000855994
0.000648768
0.000722326
0.000761439
0.000775182
0.000780112
0.000785439
0.000793055
0.000801985
0.000809842
0.000814574
0.000815136
0.000811512
0.000804493
0.000795556
0.000786759
0.000780378
0.000778536
0.000782809
0.000793906
0.000811486
0.000660806
0.000716252
0.000751091
0.000767294
0.000773321
0.0007762
0.00077824
0.000779879
0.000779995
0.000776944
0.000769928
0.000759179
0.000745856
0.000731876
0.000719776
0.00071233
0.000712168
0.000721303
0.00074067
0.000769797
0.000671754
0.000712524
0.000740933
0.000756471
0.000763118
0.000764142
0.000761391
0.000756157
0.000748621
0.000737978
0.000723671
0.000706187
0.000686982
0.000668446
0.000653512
0.000645409
0.000647262
0.000661549
0.000689501
0.00073062
0.000681424
0.000710469
0.000731548
0.000743984
0.000749236
0.000748163
0.00074137
0.000730222
0.000715743
0.000697943
0.000676814
0.000653117
0.000628692
0.00060623
0.000589031
0.000580731
0.000584898
0.000604439
0.000640897
0.000693811
0.000689661
0.000709391
0.000723105
0.00073069
0.000732386
0.000728001
0.000717492
0.000701536
0.000681163
0.000657089
0.000629846
0.000600691
0.000571794
0.000546129
0.000527294
0.000519256
0.000525944
0.000550632
0.000595162
0.000659158
0.000696335
0.000708656
0.00071514
0.000716616
0.000713261
0.00070454
0.000690058
0.00066995
0.000644765
0.000615488
0.000583107
0.000549344
0.00051675
0.000488611
0.000468775
0.000461436
0.00047078
0.000500382
0.000552375
0.000626516
0.000701363
0.000707671
0.000707081
0.000701713
0.000692303
0.00067861
0.000659944
0.000635948
0.000606802
0.000573225
0.000536656
0.000499115
0.000463502
0.000433451
0.000413103
0.000406866
0.000419095
0.000453555
0.000512582
0.000596053
0.000704753
0.000706071
0.000698603
0.00068576
0.000669738
0.000650756
0.000627907
0.000600281
0.000567634
0.000530573
0.000490682
0.000450114
0.00041201
0.000380294
0.000359457
0.000354291
0.000369476
0.000408931
0.000475
0.000567465
0.000706458
0.000703684
0.000689231
0.000668734
0.000645877
0.00062155
0.000594638
0.000563644
0.00052799
0.000488163
0.000445608
0.000402699
0.000362681
0.0003296
0.000308165
0.00030353
0.000320992
0.000364796
0.000437458
0.000538852
0.000705281
0.000694589
0.000664697
0.000627057
0.000589041
0.000552733
0.000516514
0.00047808
0.000436117
0.00039076
0.00034342
0.000296593
0.000253554
0.000218346
0.000195793
0.000191451
0.000211311
0.00026133
0.000346151
0.000467313
0.000656525
0.000642533
0.000610175
0.00056826
0.000523563
0.000478812
0.000434207
0.000388917
0.000342322
0.000294655
0.000247086
0.000201684
0.000161356
0.000129855
0.000111757
0.000112357
0.000137351
0.000192159
0.000280781
0.000404197
0.000582065
0.000570926
0.000546638
0.000513789
0.000475346
0.000433324
0.00038907
0.000343295
0.000296567
0.000249761
0.000204258
0.000162025
0.000125657
9.84141e-05
8.41985e-05
8.74071e-05
0.000112567
0.000163674
0.000243203
0.000350895
0.000492932
0.000485092
0.000469253
0.000447766
0.000422053
0.000392992
0.000360928
0.000326329
0.000289714
0.000252174
0.000215375
0.000181419
0.00015273
0.00013199
0.000122062
0.000125813
0.000145766
0.000183593
0.000239513
0.000311807
0.00039901
0.000392913
0.000382662
0.000369736
0.000355039
0.000339196
0.000322685
0.000306105
0.000290359
0.000276435
0.000265354
0.000257959
0.000254774
0.000255937
0.000261116
0.000269467
0.000279704
0.00029032
0.000299838
0.000307043
0.000314451
0.000309941
0.000303224
0.000295498
0.00028802
0.000282061
0.000278828
0.000279385
0.000284539
0.000294636
0.000309297
0.000327276
0.000346552
0.000364483
0.000378034
0.000384113
0.000379967
0.000363617
0.000334345
0.000293076
0.000245888
0.000243366
0.000240504
0.00023825
0.000237767
0.000240256
0.000246759
0.000257986
0.000274136
0.000294677
0.000318314
0.000343165
0.000366809
0.000386375
0.000398731
0.000400786
0.000389887
0.000364277
0.000323554
0.000268993
0.000195856
0.00019506
0.0001949
0.000195922
0.000198981
0.000205031
0.00021491
0.000229161
0.000247872
0.000270508
0.000295871
0.000322109
0.000346769
0.000366949
0.000379514
0.000381411
0.000370042
0.000343723
0.000302127
0.000246623
0.000158977
0.000159001
0.000160001
0.000162296
0.000166532
0.000173479
0.000183837
0.000198065
0.000216236
0.000237945
0.000262158
0.000287186
0.000310748
0.000330126
0.000342378
0.000344636
0.000334484
0.000310386
0.000272097
0.000220956
0.000131221
0.000131568
0.000132898
0.000135413
0.000139611
0.000146122
0.000155551
0.000168323
0.000184545
0.000203879
0.000225455
0.000247834
0.00026903
0.00028662
0.000297955
0.000300451
0.000291952
0.000271126
0.000237829
0.000193332
0.000109819
0.000110227
0.000111486
0.00011374
0.000117383
0.000122934
0.000130906
0.000141687
0.000155414
0.000171856
0.000190316
0.000209585
0.000227959
0.000243341
0.000253428
0.000255979
0.00024914
0.000231804
0.000203914
0.000166625
9.3145e-05
9.3505e-05
9.45559e-05
9.64109e-05
9.93906e-05
0.000103924
0.000110448
0.000119307
0.000130651
0.000144327
0.000159792
0.000176056
0.000191691
0.000204912
0.000213742
0.000216252
0.000210859
0.000196639
0.000173582
0.000142713
8.0496e-05
8.07884e-05
8.1636e-05
8.3136e-05
8.55568e-05
8.92595e-05
9.46169e-05
0.000101933
0.000111355
0.000122779
0.000135773
0.00014952
0.000162815
0.000174139
0.000181796
0.000184131
0.00017979
0.000167996
0.000148767
0.000123001
7.17191e-05
7.19498e-05
7.26354e-05
7.38652e-05
7.58734e-05
7.89751e-05
8.34977e-05
8.97141e-05
9.77648e-05
0.000107578
0.000118794