/*--------------------------------*- C++ -*----------------------------------*\
| =========                 |                                                 |
| \\      /  F ield         | OpenFOAM: The Open Source CFD Toolbox           |
|  \\    /   O peration     | Version:  1.4.1-dev                             |
|   \\  /    A nd           | Web:      http://www.openfoam.org               |
|    \\/     M anipulation  |                                                 |
\*---------------------------------------------------------------------------*/

FoamFile
{
    version 2.0;
    format ascii;

    root "/home/mjaworsk/OpenFOAM/mjaworsk-1.4.1-dev/run/FlatPlate-Blasius";
    case "icoHeatFoam-flatPlate2";
    instance "0.8";
    local "";

    class surfaceScalarField;
    object phi;
}

// * * * * * * * * * * * * * * * * * * * * * * * * * * * * * * * * * * * * * //

dimensions      [0 3 -1 0 0 0 0];

internalField   nonuniform List<scalar> 
4850
(
9.45962e-09
5.44476e-09
-1.49044e-08
5.6626e-09
3.79702e-09
3.85179e-09
1.81081e-09
2.99225e-09
8.59539e-10
2.52996e-09
4.62292e-10
2.24128e-09
2.88674e-10
2.03281e-09
2.08471e-10
1.86789e-09
1.64922e-10
1.73174e-09
1.36151e-10
1.61668e-09
1.15063e-10
1.51766e-09
9.90149e-11
1.43113e-09
8.65309e-11
1.35458e-09
7.65546e-11
1.28609e-09
6.84818e-11
1.22434e-09
6.17494e-11
1.16815e-09
5.6197e-11
1.11675e-09
5.13946e-11
1.06931e-09
4.74392e-11
1.02546e-09
4.38524e-11
9.84508e-10
4.09527e-11
9.46395e-10
3.81129e-11
9.10472e-10
3.5923e-11
8.76935e-10
3.35372e-11
8.45033e-10
3.19022e-11
8.15202e-10
2.98313e-11
7.86504e-10
2.86972e-11
7.59675e-10
2.68293e-11
7.33519e-10
2.61557e-11
7.09151e-10
2.43686e-11
6.84989e-10
2.41619e-11
6.6261e-10
2.23784e-11
6.3992e-10
2.26901e-11
6.19013e-10
2.09073e-11
5.97414e-10
2.15992e-11
2.19499e-11
1.62839e-08
6.12653e-09
-1.69657e-08
1.38735e-08
6.2075e-09
1.16144e-08
4.06992e-09
9.84686e-09
2.62703e-09
8.50692e-09
1.80223e-09
7.53014e-09
1.26546e-09
6.80993e-09
9.28673e-10
6.24911e-09
7.25744e-10
5.79038e-09
5.94878e-10
5.40366e-09
5.01788e-10
5.07117e-09
4.31508e-10
4.78078e-09
3.76914e-10
4.52404e-09
3.333e-10
4.29448e-09
2.98036e-10
4.08758e-09
2.68656e-10
3.89936e-09
2.44414e-10
3.72726e-09
2.2349e-10
3.56851e-09
2.06191e-10
3.42179e-09
1.90578e-10
3.2849e-09
1.77843e-10
3.1575e-09
1.65513e-10
3.03755e-09
1.55866e-10
2.92551e-09
1.45577e-10
2.81907e-09
1.38347e-10
2.71946e-09
1.29443e-10
2.62378e-09
1.24376e-10
2.5343e-09
1.16304e-10
2.44717e-09
1.13284e-10
2.36609e-09
1.05449e-10
2.2856e-09
1.0465e-10
2.21149e-09
9.64965e-11
2.13577e-09
9.84091e-11
2.06727e-09
8.94062e-11
1.9945e-09
9.43676e-11
9.09967e-11
1.91814e-08
5.39124e-09
-1.84462e-08
1.86271e-08
6.76183e-09
1.74028e-08
5.2942e-09
1.60644e-08
3.96551e-09
1.47036e-08
3.16293e-09
1.34402e-08
2.52896e-09
1.23528e-08
2.01605e-09
1.1436e-08
1.64248e-09
1.06558e-08
1.37514e-09
9.98219e-09
1.17538e-09
9.39365e-09
1.02004e-09
8.87367e-09
8.96901e-10
8.41e-09
7.96968e-10
7.99275e-09
7.15284e-10
7.6148e-09
6.46608e-10
7.26965e-09
5.89562e-10
6.95309e-09
5.4005e-10
6.66038e-09
4.98901e-10
6.3893e-09
4.61661e-10
6.13602e-09
4.31122e-10
5.89994e-09
4.0159e-10
5.67747e-09
3.78337e-10
5.46938e-09
3.53666e-10
5.27157e-09
3.36152e-10
5.08627e-09
3.14744e-10
4.90828e-09
3.02369e-10
4.74174e-09
2.82845e-10
4.57959e-09
2.75438e-10
4.42871e-09
2.5632e-10
4.27888e-09
2.54488e-10
4.14118e-09
2.34191e-10
4.00019e-09
2.39403e-10
3.87346e-09
2.16136e-10
3.73778e-09
2.30043e-10
2.15956e-10
2.09424e-08
4.60627e-09
-2.01575e-08
2.12902e-08
6.41406e-09
2.09605e-08
5.62388e-09
2.0383e-08
4.54308e-09
1.96058e-08
3.94005e-09
1.86732e-08
3.46162e-09
1.76979e-08
2.99134e-09
1.67521e-08
2.58829e-09
1.58609e-08
2.26635e-09
1.5032e-08
2.00421e-09
1.42678e-08
1.78427e-09
1.35657e-08
1.599e-09
1.29214e-08
1.44127e-09
1.23288e-08
1.3079e-09
1.17829e-08
1.1925e-09
1.12777e-08
1.09477e-09
1.08094e-08
1.00831e-09
1.03727e-08
9.35633e-10
9.96543e-09
8.68939e-10
9.58263e-09
8.13918e-10
9.22407e-09
7.60152e-10
8.88469e-09
7.17714e-10
8.56607e-09
6.72287e-10
8.26222e-09
6.40002e-10
7.97681e-09
6.00155e-10
7.70206e-09
5.77118e-10
7.44453e-09
5.40373e-10
7.19344e-09
5.26533e-10
6.95957e-09
4.90192e-10
6.72708e-09
4.86976e-10
6.51337e-09
4.47902e-10
6.29443e-09
4.58339e-10
6.09774e-09
4.12831e-10
5.88727e-09
4.40506e-10
4.07337e-10
2.26238e-08
4.03599e-09
-2.20535e-08
2.32208e-08
5.81699e-09
2.33113e-08
5.53342e-09
2.32031e-08
4.65125e-09
2.2962e-08
4.18118e-09
2.25334e-08
3.89017e-09
2.19588e-08
3.56595e-09
2.13029e-08
3.24425e-09
2.06017e-08
2.9675e-09
1.98762e-08
2.72979e-09
1.91447e-08
2.51568e-09
1.8422e-08
2.32178e-09
1.77189e-08
2.14432e-09
1.70413e-08
1.98553e-09
1.63935e-08
1.84028e-09
1.57757e-08
1.71259e-09
1.51892e-08
1.59479e-09
1.46312e-08
1.49364e-09
1.41024e-08
1.3977e-09
1.35985e-08
1.31784e-09
1.31211e-08
1.23752e-09
1.26647e-08
1.17419e-09
1.22325e-08
1.10441e-09
1.18172e-08
1.05529e-09
1.14248e-08
9.92614e-10
1.10448e-08
9.57072e-10
1.06872e-08
8.98031e-10
1.0337e-08
8.76673e-10
1.00099e-08
8.17305e-10
9.68386e-09
8.13034e-10
9.38341e-09
7.48356e-10
9.07531e-09
7.6644e-10
8.79771e-09
6.90425e-10
8.50136e-09
7.36858e-10
6.75351e-10
2.44673e-08
3.64344e-09
-2.40748e-08
2.50814e-08
5.20286e-09
2.53209e-08
5.29399e-09
2.53782e-08
4.59388e-09
2.54e-08
4.1594e-09
2.53141e-08
3.97606e-09
2.50965e-08
3.78361e-09
2.47803e-08
3.5604e-09
2.43896e-08
3.35824e-09
2.39327e-08
3.1867e-09
2.34196e-08
3.02881e-09
2.28619e-08
2.87943e-09
2.22735e-08
2.73272e-09
2.16648e-08
2.59421e-09
2.10473e-08
2.45782e-09
2.04274e-08
2.33252e-09
1.98135e-08
2.20865e-09
1.92078e-08
2.09934e-09
1.86166e-08
1.98892e-09
1.80382e-08
1.89621e-09
1.74786e-08
1.79717e-09
1.69329e-08
1.71988e-09
1.64082e-08
1.62914e-09
1.58963e-08
1.56716e-09
1.54069e-08
1.48198e-09
1.49277e-08
1.43627e-09
1.44728e-08
1.35291e-09
1.40238e-08
1.32576e-09
1.36016e-08
1.23945e-09
1.31783e-08
1.23631e-09
1.27862e-08
1.14046e-09
1.2383e-08
1.1697e-09
1.20174e-08
1.05599e-09
1.16278e-08
1.12648e-09
1.02783e-09
2.64871e-08
3.36524e-09
-2.62089e-08
2.70532e-08
4.63672e-09
2.73598e-08
4.98745e-09
2.74585e-08
4.49511e-09
2.75526e-08
4.06537e-09
2.76151e-08
3.91354e-09
2.75935e-08
3.80515e-09
2.74977e-08
3.65621e-09
2.73467e-08
3.50922e-09
2.7141e-08
3.39247e-09
2.6878e-08
3.29176e-09
2.65574e-08
3.20003e-09
2.61845e-08
3.10565e-09
2.57632e-08
3.01555e-09
2.53019e-08
2.91904e-09
2.48055e-08
2.82891e-09
2.4284e-08
2.73016e-09
2.37408e-08
2.64256e-09
2.31862e-08
2.54355e-09
2.26206e-08
2.46184e-09
2.20544e-08
2.36335e-09
2.14842e-08
2.29002e-09
2.09217e-08
2.19165e-09
2.03589e-08
2.12998e-09
1.98102e-08
2.0307e-09
1.92621e-08
1.98438e-09
1.87341e-08
1.88087e-09
1.82049e-08
1.85494e-09
1.7702e-08
1.74235e-09
1.71923e-08
1.74606e-09
1.67156e-08
1.6171e-09
1.62223e-08
1.66305e-09
1.57704e-08
1.50784e-09
1.52888e-08
1.60816e-09
1.46665e-09
2.8682e-08
3.15065e-09
-2.84674e-08
2.9172e-08
4.1467e-09
2.9521e-08
4.63846e-09
2.96468e-08
4.36928e-09
2.9744e-08
3.96821e-09
2.98489e-08
3.80858e-09
2.99085e-08
3.74559e-09
2.99137e-08
3.65103e-09
2.9885e-08
3.53789e-09
2.98271e-08
3.45038e-09
2.97355e-08
3.38336e-09
2.96027e-08
3.33277e-09
2.94277e-08
3.28071e-09
2.92065e-08
3.23672e-09
2.89416e-08
3.18397e-09
2.86306e-08
3.13986e-09
2.82796e-08
3.08113e-09
2.78874e-08
3.03478e-09
2.74632e-08
2.96776e-09
2.70051e-08
2.91998e-09
2.65249e-08
2.84352e-09
2.60182e-08
2.79671e-09
2.54996e-08
2.71027e-09
2.49603e-08
2.66926e-09
2.44189e-08
2.57207e-09
2.38609e-08
2.54241e-09
2.3311e-08
2.43078e-09
2.27461e-08
2.41985e-09
2.21997e-08
2.28871e-09
2.16358e-08
2.30994e-09
2.11006e-08
2.15238e-09
2.05402e-08
2.22339e-09
2.00186e-08
2.02943e-09
1.9461e-08
2.16576e-09
1.98274e-09
3.10618e-08
2.96595e-09
-3.08771e-08
3.14664e-08
3.74209e-09
3.18318e-08
4.27313e-09
3.19948e-08
4.20624e-09
3.20862e-08
3.8768e-09
3.21944e-08
3.70035e-09
3.22851e-08
3.65495e-09
3.23318e-08
3.60429e-09
3.23511e-08
3.51861e-09
3.23553e-08
3.44615e-09
3.23459e-08
3.39274e-09
3.23153e-08
3.36337e-09
3.22619e-08
3.33414e-09
3.21791e-08
3.31952e-09
3.20672e-08
3.29589e-09
3.1919e-08
3.28808e-09
3.17369e-08
3.26317e-09
3.15141e-08
3.25765e-09
3.12563e-08
3.22546e-09
3.09566e-08
3.21972e-09
3.06247e-08
3.17539e-09
3.0252e-08
3.16942e-09
2.98527e-08
3.1096e-09
2.94148e-08
3.1072e-09
2.89578e-08
3.02901e-09
2.8465e-08
3.03525e-09
2.79636e-08
2.93224e-09
2.74292e-08
2.95417e-09
2.68989e-08
2.81906e-09
2.63364e-08
2.87237e-09
2.57901e-08
2.6987e-09
2.52082e-08
2.80532e-09
2.46529e-08
2.58468e-09
2.40561e-08
2.76264e-09
2.55078e-09
3.36441e-08
2.79565e-09
-3.34738e-08
3.39716e-08
3.41455e-09
3.4325e-08
3.91975e-09
3.45257e-08
4.00551e-09
3.46209e-08
3.78165e-09
3.47203e-08
3.60097e-09
3.4822e-08
3.55323e-09
3.48904e-08
3.53588e-09
3.49296e-08
3.47937e-09
3.4955e-08
3.42075e-09
3.49757e-08
3.3721e-09
3.49865e-08
3.35251e-09
3.49881e-08
3.33264e-09
3.49742e-08
3.33333e-09
3.49472e-08
3.32297e-09
3.48989e-08
3.33637e-09
3.48319e-08
3.33012e-09
3.47366e-08
3.35295e-09
3.46176e-08
3.34447e-09
3.44638e-08
3.37355e-09
3.4283e-08
3.35621e-09
3.40621e-08
3.39027e-09
3.38131e-08
3.35856e-09
3.352e-08
3.40038e-09
3.31998e-08
3.34914e-09
3.28326e-08
3.40247e-09
3.24434e-08
3.32146e-09
3.20072e-08
3.39034e-09
3.15585e-08
3.26775e-09
3.10648e-08
3.3661e-09
3.05688e-08
3.19473e-09
3.00281e-08
3.34604e-09
2.94926e-08
3.12009e-09
2.89131e-08
3.34221e-09
3.12717e-09
3.64518e-08
2.63667e-09
-3.62928e-08
3.67195e-08
3.14683e-09
3.70407e-08
3.59854e-09
3.72667e-08
3.77958e-09
3.73775e-08
3.67078e-09
3.74673e-08
3.51123e-09
3.75685e-08
3.45196e-09
3.76504e-08
3.45405e-09
3.77028e-08
3.42692e-09
3.77367e-08
3.38689e-09
3.77666e-08
3.34216e-09
3.7791e-08
3.32809e-09
3.78121e-08
3.31155e-09
3.78246e-08
3.32081e-09
3.78328e-08
3.31477e-09
3.78301e-08
3.33913e-09
3.78208e-08
3.33943e-09
3.77957e-08
3.37802e-09
3.77603e-08
3.37991e-09
3.77029e-08
3.43091e-09
3.76309e-08
3.42822e-09
3.753e-08
3.49115e-09
3.74102e-08
3.47837e-09
3.72539e-08
3.55671e-09
3.70744e-08
3.52859e-09
3.68506e-08
3.62628e-09
3.66011e-08
3.57098e-09
3.63026e-08
3.68885e-09
3.59801e-08
3.59022e-09
3.5609e-08
3.73717e-09
3.52174e-08
3.5864e-09
3.47796e-08
3.78386e-09
3.43213e-08
3.57831e-09
3.38232e-08
3.84032e-09
3.65611e-09
3.95096e-08
2.49011e-09
-3.9363e-08
3.97343e-08
2.92215e-09
4.00154e-08
3.31735e-09
4.02494e-08
3.5456e-09
4.03822e-08
3.53797e-09
4.04684e-08
3.42509e-09
4.05626e-08
3.35777e-09
4.06507e-08
3.36589e-09
4.07145e-08
3.36314e-09
4.07549e-08
3.34646e-09
4.07881e-08
3.30896e-09
4.08164e-08
3.29978e-09
4.08435e-08
3.28454e-09
4.08643e-08
3.29998e-09
4.08838e-08
3.29527e-09
4.08969e-08
3.326e-09
4.09091e-08
3.32721e-09
4.09132e-08
3.37395e-09
4.09151e-08
3.37801e-09
4.09055e-08
3.44057e-09
4.08913e-08
3.44242e-09
4.08607e-08
3.52167e-09
4.08221e-08
3.51698e-09
4.07608e-08
3.61805e-09
4.06859e-08
3.60351e-09
4.058e-08
3.73214e-09
4.04531e-08
3.69788e-09
4.02885e-08
3.85349e-09
4.00965e-08
3.78216e-09
3.98658e-08
3.96793e-09
3.96023e-08
3.84988e-09
3.93028e-08
4.08338e-09
3.89613e-08
3.91978e-09
3.85931e-08
4.20849e-09
4.08598e-09
4.28394e-08
2.35658e-09
-4.27058e-08
4.30329e-08
2.72858e-09
4.32759e-08
3.07437e-09
4.35035e-08
3.318e-09
4.36564e-08
3.38508e-09
4.3748e-08
3.33353e-09
4.38345e-08
3.27125e-09
4.39229e-08
3.27751e-09
4.39955e-08
3.2905e-09
4.40437e-08
3.29822e-09
4.40797e-08
3.27296e-09
4.41095e-08
3.27e-09
4.41381e-08
3.25596e-09
4.41617e-08
3.27637e-09
4.4184e-08
3.27298e-09
4.42017e-08
3.30832e-09
4.42195e-08
3.30944e-09
4.42328e-08
3.36062e-09
4.42465e-08
3.36432e-09
4.42547e-08
3.43235e-09
4.42626e-08
3.43449e-09
4.42632e-08
3.52107e-09
4.42618e-08
3.51837e-09
4.42502e-08
3.62968e-09
4.42325e-08
3.62124e-09
4.41999e-08
3.7647e-09
4.41528e-08
3.74494e-09
4.40862e-08
3.92008e-09
4.39944e-08
3.87404e-09
4.38824e-08
4.07986e-09
4.37339e-08
3.99838e-09
4.35681e-08
4.24918e-09
4.33497e-08
4.13821e-09
4.31238e-08
4.43441e-09
4.38924e-09
4.64595e-08
2.23545e-09
-4.63384e-08
4.66292e-08
2.55884e-09
4.68401e-08
2.8635e-09
4.7053e-08
3.10511e-09
4.72181e-08
3.21992e-09
4.73226e-08
3.22907e-09
4.74061e-08
3.1878e-09
4.74913e-08
3.19226e-09
4.75694e-08
3.21243e-09
4.76266e-08
3.24097e-09
4.76674e-08
3.23223e-09
4.76993e-08
3.23808e-09
4.77286e-08
3.22664e-09
4.77541e-08
3.25091e-09
4.77772e-08
3.24987e-09
4.77966e-08
3.28886e-09
4.7815e-08
3.29107e-09
4.78309e-08
3.34472e-09
4.78464e-08
3.34879e-09
4.78598e-08
3.41898e-09
4.78727e-08
3.42155e-09
4.78836e-08
3.51023e-09
4.78933e-08
3.50865e-09
4.79011e-08
3.62191e-09
4.79051e-08
3.61718e-09
4.79071e-08
3.76276e-09
4.78982e-08
3.75386e-09
4.78866e-08
3.93166e-09
4.78529e-08
3.90776e-09
4.78178e-08
4.11487e-09
4.77485e-08
4.06773e-09
4.76808e-08
4.31686e-09
4.75613e-08
4.25768e-09
4.74525e-08
4.54327e-09
4.57199e-09
5.03879e-08
2.12557e-09
-5.0278e-08
5.05382e-08
2.40853e-09
5.07231e-08
2.67858e-09
5.09184e-08
2.9098e-09
5.10872e-08
3.05116e-09
5.12065e-08
3.10975e-09
5.12934e-08
3.10093e-09
5.13758e-08
3.10979e-09
5.14561e-08
3.13221e-09
5.15219e-08
3.17511e-09
5.15698e-08
3.18438e-09
5.1606e-08
3.20185e-09
5.16369e-08
3.19572e-09
5.16648e-08
3.22303e-09
5.16892e-08
3.22552e-09
5.17107e-08
3.2673e-09
5.17293e-08
3.27247e-09
5.17467e-08
3.32737e-09
5.17618e-08
3.33364e-09
5.17768e-08
3.40406e-09
5.17894e-08
3.40891e-09
5.18028e-08
3.49685e-09
5.18132e-08
3.49817e-09
5.18263e-08
3.60888e-09
5.18345e-08
3.60894e-09
5.18482e-08
3.74911e-09
5.18515e-08
3.75055e-09
5.1863e-08
3.92019e-09
5.18548e-08
3.91596e-09
5.18573e-08
4.11236e-09
5.18304e-08
4.09462e-09
5.18174e-08
4.32983e-09
5.17602e-08
4.31493e-09
5.17246e-08
4.57888e-09
4.66565e-09
5.46452e-08
2.026e-09
-5.45456e-08
5.4779e-08
2.2747e-09
5.49427e-08
2.51485e-09
5.51207e-08
2.73178e-09
5.52865e-08
2.88537e-09
5.54175e-08
2.97882e-09
5.55129e-08
3.00552e-09
5.55955e-08
3.02715e-09
5.56759e-08
3.05184e-09
5.57484e-08
3.10265e-09
5.58046e-08
3.12814e-09
5.58476e-08
3.15889e-09
5.58819e-08
3.16139e-09
5.59131e-08
3.19182e-09
5.59398e-08
3.19879e-09
5.59644e-08
3.24268e-09
5.59845e-08
3.25239e-09
5.60039e-08
3.30797e-09
5.60195e-08
3.31811e-09
5.60357e-08
3.38779e-09
5.60479e-08
3.39673e-09
5.60622e-08
3.48259e-09
5.60715e-08
3.48882e-09
5.60854e-08
3.59497e-09
5.60926e-08
3.60173e-09
5.61085e-08
3.73323e-09
5.61136e-08
3.7455e-09
5.61314e-08
3.90241e-09
5.61316e-08
3.91576e-09
5.61469e-08
4.09699e-09
5.61378e-08
4.10371e-09
5.61472e-08
4.32046e-09
5.61207e-08
4.34141e-09
5.61187e-08
4.58086e-09
4.70775e-09
5.92561e-08
1.93601e-09
-5.91661e-08
5.93757e-08
2.15513e-09
5.95217e-08
2.36882e-09
5.96838e-08
2.56963e-09
5.98428e-08
2.72641e-09
5.99799e-08
2.84175e-09
6.00855e-08
2.89983e-09
6.01721e-08
2.94061e-09
6.02526e-08
2.9713e-09
6.03292e-08
3.02604e-09
6.03933e-08
3.06405e-09
6.04445e-08
3.1077e-09
6.04842e-08
3.12166e-09
6.05197e-08
3.15632e-09
6.05499e-08
3.16862e-09
6.05784e-08
3.21423e-09
6.06013e-08
3.2294e-09
6.06237e-08
3.28562e-09
6.0641e-08
3.30082e-09
6.06593e-08
3.3695e-09
6.06723e-08
3.38374e-09
6.06878e-08
3.46703e-09
6.06971e-08
3.47959e-09
6.07115e-08
3.58054e-09
6.07179e-08
3.59536e-09
6.07336e-08
3.71744e-09
6.07384e-08
3.74075e-09
6.07565e-08
3.88432e-09
6.0759e-08
3.91325e-09
6.07766e-08
4.07935e-09
6.07734e-08
4.10691e-09
6.07887e-08
4.30525e-09
6.07744e-08
4.35566e-09
6.07821e-08
4.57313e-09
4.7265e-09
6.4249e-08
1.85492e-09
-6.41679e-08
6.43563e-08
2.04784e-09
6.44874e-08
2.23772e-09
6.46353e-08
2.42171e-09
6.47856e-08
2.57607e-09
6.49239e-08
2.70345e-09
6.50382e-08
2.78561e-09
6.51314e-08
2.84742e-09
6.52136e-08
2.88901e-09
6.52927e-08
2.947e-09
6.53629e-08
2.9938e-09
6.54224e-08
3.04819e-09
6.54692e-08
3.07489e-09
6.551e-08
3.11551e-09
6.55445e-08
3.13414e-09
6.55772e-08
3.18151e-09
6.56041e-08
3.20251e-09
6.56301e-08
3.2596e-09
6.56503e-08
3.28062e-09
6.56714e-08
3.34842e-09
6.56864e-08
3.36878e-09
6.5704e-08
3.44936e-09
6.57144e-08
3.46919e-09
6.57302e-08
3.56479e-09
6.57371e-08
3.58843e-09
6.57531e-08
3.70144e-09
6.57583e-08
3.73551e-09
6.57758e-08
3.86682e-09
6.57795e-08
3.90958e-09
6.57968e-08
4.06203e-09
6.57955e-08
4.10821e-09
6.5811e-08
4.2898e-09
6.58014e-08
4.36527e-09
6.58091e-08
4.56537e-09
4.73674e-09
6.96551e-08
1.78165e-09
-6.95819e-08
6.97521e-08
1.95091e-09
6.98706e-08
2.11914e-09
7.0006e-08
2.28634e-09
7.01472e-08
2.43486e-09
7.02833e-08
2.56732e-09
7.04028e-08
2.66618e-09
7.05033e-08
2.74682e-09
7.05895e-08
2.80282e-09
7.06707e-08
2.86583e-09
7.07454e-08
2.91913e-09
7.08121e-08
2.98145e-09
7.08667e-08
3.02034e-09
7.09138e-08
3.06837e-09
7.09534e-08
3.09458e-09
7.09907e-08
3.14415e-09
7.10221e-08
3.17119e-09
7.10524e-08
3.2293e-09
7.10762e-08
3.25678e-09
7.11007e-08
3.32389e-09
7.11184e-08
3.35109e-09
7.11389e-08
3.42892e-09
7.11514e-08
3.45667e-09
7.11692e-08
3.54698e-09
7.11779e-08
3.57978e-09
7.11949e-08
3.68443e-09
7.12016e-08
3.72877e-09
7.12191e-08
3.84929e-09
7.12242e-08
3.9045e-09
7.12413e-08
4.04493e-09
7.12414e-08
4.10813e-09
7.12561e-08
4.27515e-09
7.12493e-08
4.372e-09
7.12551e-08
4.5596e-09
4.74379e-09
7.55083e-08
1.71432e-09
-7.54409e-08
7.55968e-08
1.86233e-09
7.5705e-08
2.01103e-09
7.58294e-08
2.16189e-09
7.59616e-08
2.30263e-09
7.60935e-08
2.43542e-09
7.6215e-08
2.54473e-09
7.63218e-08
2.64001e-09
7.64135e-08
2.71111e-09
7.64977e-08
2.78165e-09
7.65758e-08
2.84105e-09
7.66483e-08
2.90892e-09
7.67104e-08
2.95828e-09
7.67646e-08
3.01409e-09
7.68101e-08
3.04912e-09
7.68526e-08
3.10168e-09
7.68887e-08
3.1351e-09
7.69236e-08
3.19431e-09
7.69517e-08
3.22871e-09
7.69802e-08
3.29539e-09
7.70013e-08
3.33003e-09
7.70249e-08
3.40525e-09
7.70403e-08
3.44132e-09
7.70606e-08
3.52665e-09
7.70718e-08
3.56857e-09
7.70905e-08
3.66581e-09
7.70995e-08
3.71973e-09
7.71177e-08
3.83112e-09
7.71247e-08
3.89744e-09
7.71419e-08
4.0277e-09
7.7144e-08
4.10605e-09
7.71579e-08
4.26126e-09
7.71542e-08
4.37572e-09
7.71585e-08
4.55527e-09
4.74868e-09
8.18448e-08
1.65018e-09
-8.17806e-08
8.19271e-08
1.78002e-09
8.20266e-08
1.91151e-09
8.21415e-08
2.04692e-09
8.22654e-08
2.17881e-09
8.2392e-08
2.30876e-09
8.25131e-08
2.42363e-09
8.26241e-08
2.52901e-09
8.27217e-08
2.61355e-09
8.28102e-08
2.69317e-09
8.28917e-08
2.75956e-09
8.29688e-08
2.83174e-09
8.30375e-08
2.88962e-09
8.30991e-08
2.95251e-09
8.31512e-08
2.997e-09
8.31994e-08
3.05351e-09
8.32407e-08
3.09381e-09
8.32806e-08
3.15435e-09
8.33135e-08
3.19586e-09
8.33463e-08
3.26253e-09
8.33714e-08
3.30491e-09
8.33986e-08
3.37805e-09
8.34175e-08
3.42243e-09
8.34406e-08
3.50354e-09
8.34551e-08
3.55412e-09
8.34756e-08
3.64527e-09
8.34876e-08
3.70775e-09
8.35068e-08
3.81198e-09
8.35164e-08
3.88779e-09
8.35339e-08
4.01021e-09
8.35387e-08
4.10126e-09
8.3552e-08
4.24791e-09
8.35516e-08
4.37611e-09
8.35556e-08
4.55135e-09
4.7513e-09
8.87034e-08
1.58629e-09
-8.86395e-08
8.87817e-08
1.70177e-09
8.88745e-08
1.8187e-09
8.89812e-08
1.94025e-09
8.90973e-08
2.06267e-09
8.92183e-08
2.18773e-09
8.93375e-08
2.30443e-09
8.94507e-08
2.41582e-09
8.95533e-08
2.5109e-09
8.9647e-08
2.59956e-09
8.97326e-08
2.67397e-09
8.98139e-08
2.75043e-09
8.98882e-08
2.81526e-09
8.99567e-08
2.88406e-09
9.0016e-08
2.93771e-09
9.00704e-08
2.99905e-09
9.01175e-08
3.0467e-09
9.01627e-08
3.10918e-09
9.02009e-08
3.15767e-09
9.02384e-08
3.22499e-09
9.02683e-08
3.27501e-09
9.02994e-08
3.34704e-09
9.03225e-08
3.39928e-09
9.03487e-08
3.47738e-09
9.0367e-08
3.53577e-09
9.03897e-08
3.62255e-09
9.04052e-08
3.69225e-09
9.04256e-08
3.79159e-09
9.04384e-08
3.87502e-09
9.04563e-08
3.99226e-09
9.04643e-08
4.09328e-09
9.04775e-08
4.23472e-09
9.04806e-08
4.37307e-09
9.0485e-08
4.54689e-09
4.75137e-09
9.61262e-08
1.52053e-09
-9.60605e-08
9.62026e-08
1.62535e-09
9.62906e-08
1.73076e-09
9.63903e-08
1.84054e-09
9.64994e-08
1.95351e-09
9.66148e-08
2.07235e-09
9.67312e-08
2.18805e-09
9.6845e-08
2.30207e-09
9.69514e-08
2.40444e-09
9.70501e-08
2.50084e-09
9.71406e-08
2.5835e-09
9.72262e-08
2.66488e-09
9.73056e-08
2.7358e-09
9.73802e-08
2.80949e-09
9.74467e-08
2.87123e-09
9.75079e-08
2.93787e-09
9.75615e-08
2.99306e-09
9.76122e-08
3.05843e-09
9.76563e-08
3.11362e-09
9.76988e-08
3.18244e-09
9.77342e-08
3.23964e-09
9.77694e-08
3.31182e-09
9.77975e-08
3.37119e-09
9.78271e-08
3.44783e-09
9.78499e-08
3.5129e-09
9.78752e-08
3.5973e-09
9.78947e-08
3.67275e-09
9.79167e-08
3.76956e-09
9.7933e-08
3.85878e-09
9.79518e-08
3.97342e-09
9.79633e-08
4.08181e-09
9.79769e-08
4.22106e-09
9.79833e-08
4.36666e-09
9.79892e-08
4.54099e-09
4.74864e-09
1.04159e-07
1.45205e-09
-1.0409e-07
1.04235e-07
1.54919e-09
1.0432e-07
1.64592e-09
1.04414e-07
1.74619e-09
1.04517e-07
1.85049e-09
1.04627e-07
1.9623e-09
1.0474e-07
2.07493e-09
1.04853e-07
2.18894e-09
1.04962e-07
2.29552e-09
1.05065e-07
2.39772e-09
1.05161e-07
2.48782e-09
1.05251e-07
2.57469e-09
1.05336e-07
2.65138e-09
1.05416e-07
2.72943e-09
1.05489e-07
2.79793e-09
1.05557e-07
2.86986e-09
1.05618e-07
2.93235e-09
1.05675e-07
3.00166e-09
1.05725e-07
3.06323e-09
1.05773e-07
3.13449e-09
1.05814e-07
3.19825e-09
1.05854e-07
3.27191e-09
1.05888e-07
3.33759e-09
1.05921e-07
3.41439e-09
1.05949e-07
3.485e-09
1.05978e-07
3.56897e-09
1.06001e-07
3.64895e-09
1.06026e-07
3.74522e-09
1.06046e-07
3.83884e-09
1.06066e-07
3.95307e-09
1.06081e-07
4.06673e-09
1.06096e-07
4.2061e-09
1.06106e-07
4.35697e-09
1.06114e-07
4.53278e-09
4.74278e-09
1.12851e-07
1.38098e-09
-1.1278e-07
1.12928e-07
1.4727e-09
1.13011e-07
1.56281e-09
1.13102e-07
1.65556e-09
1.132e-07
1.75237e-09
1.13305e-07
1.85708e-09
1.13415e-07
1.96523e-09
1.13526e-07
2.07722e-09
1.13637e-07
2.18536e-09
1.13743e-07
2.29126e-09
1.13844e-07
2.38727e-09
1.13939e-07
2.47959e-09
1.14028e-07
2.56189e-09
1.14113e-07
2.64422e-09
1.14193e-07
2.71833e-09
1.14268e-07
2.79521e-09
1.14336e-07
2.86435e-09
1.14399e-07
2.93837e-09
1.14456e-07
3.0061e-09
1.1451e-07
3.08073e-09
1.14558e-07
3.1504e-09
1.14603e-07
3.22675e-09
1.14642e-07
3.298e-09
1.1468e-07
3.37641e-09
1.14714e-07
3.45173e-09
1.14746e-07
3.53681e-09
1.14774e-07
3.62066e-09
1.14801e-07
3.71789e-09
1.14825e-07
3.81497e-09
1.14848e-07
3.93045e-09
1.14867e-07
4.04799e-09
1.14884e-07
4.18891e-09
1.14897e-07
4.344e-09
1.14908e-07
4.52152e-09
4.73334e-09
1.22259e-07
1.30845e-09
-1.22187e-07
1.22336e-07
1.39578e-09
1.22418e-07
1.48048e-09
1.22507e-07
1.56725e-09
1.22601e-07
1.65775e-09
1.22702e-07
1.7559e-09
1.22809e-07
1.85881e-09
1.22919e-07
1.96742e-09
1.23029e-07
2.075e-09
1.23138e-07
2.1826e-09
1.23242e-07
2.28266e-09
1.23342e-07
2.37972e-09
1.23437e-07
2.46723e-09
1.23527e-07
2.55391e-09
1.23613e-07
2.63285e-09
1.23694e-07
2.71425e-09
1.23769e-07
2.78919e-09
1.23839e-07
2.86824e-09
1.23903e-07
2.94195e-09
1.23963e-07
3.02074e-09
1.24018e-07
3.09585e-09
1.24069e-07
3.17574e-09
1.24114e-07
3.25215e-09
1.24158e-07
3.3332e-09
1.24197e-07
3.41284e-09
1.24233e-07
3.50009e-09
1.24266e-07
3.58753e-09
1.24297e-07
3.68696e-09
1.24325e-07
3.78694e-09
1.24351e-07
3.9047e-09
1.24374e-07
4.02556e-09
1.24394e-07
4.16861e-09
1.2441e-07
4.3275e-09
1.24425e-07
4.50664e-09
4.71984e-09
1.32441e-07
1.23617e-09
-1.32368e-07
1.32518e-07
1.31824e-09
1.326e-07
1.39839e-09
1.32687e-07
1.4802e-09
1.3278e-07
1.56528e-09
1.32878e-07
1.65761e-09
1.32982e-07
1.75524e-09
1.33089e-07
1.85973e-09
1.33199e-07
1.96524e-09
1.33309e-07
2.07281e-09
1.33416e-07
2.17508e-09
1.3352e-07
2.27565e-09
1.3362e-07
2.3676e-09
1.33715e-07
2.45848e-09
1.33807e-07
2.54178e-09
1.33893e-07
2.6273e-09
1.33975e-07
2.70724e-09
1.34052e-07
2.7912e-09
1.34124e-07
2.8706e-09
1.3419e-07
2.95412e-09
1.34252e-07
3.0344e-09
1.34309e-07
3.11838e-09
1.34362e-07
3.19971e-09
1.34411e-07
3.28422e-09
1.34456e-07
3.36798e-09
1.34497e-07
3.45832e-09
1.34536e-07
3.54916e-09
1.34571e-07
3.65179e-09
1.34603e-07
3.75456e-09
1.34633e-07
3.87498e-09
1.34659e-07
3.99921e-09
1.34683e-07
4.14458e-09
1.34704e-07
4.30691e-09
1.34723e-07
4.48755e-09
4.70195e-09
1.43459e-07
1.16518e-09
-1.43388e-07
1.43537e-07
1.24038e-09
1.43619e-07
1.31605e-09
1.43706e-07
1.39332e-09
1.43798e-07
1.4736e-09
1.43894e-07
1.56087e-09
1.43996e-07
1.65365e-09
1.44102e-07
1.75391e-09
1.44211e-07
1.85651e-09
1.44321e-07
1.96277e-09
1.4443e-07
2.06563e-09
1.44537e-07
2.16829e-09
1.44641e-07
2.26354e-09
1.44742e-07
2.3581e-09
1.44838e-07
2.4453e-09
1.44931e-07
2.53466e-09
1.45019e-07
2.61889e-09
1.45103e-07
2.70747e-09
1.45182e-07
2.79206e-09
1.45255e-07
2.88062e-09
1.45324e-07
2.96587e-09
1.45388e-07
3.0543e-09
1.45447e-07
3.14034e-09
1.45502e-07
3.22901e-09
1.45554e-07
3.31675e-09
1.45601e-07
3.411e-09
1.45645e-07
3.5052e-09
1.45685e-07
3.61168e-09
1.45722e-07
3.71754e-09
1.45756e-07
3.84076e-09
1.45787e-07
3.96838e-09
1.45815e-07
4.11649e-09
1.4584e-07
4.28164e-09
1.45864e-07
4.46364e-09
4.67925e-09
1.55383e-07
1.09542e-09
-1.55313e-07
1.5546e-07
1.16359e-09
1.55543e-07
1.2333e-09
1.5563e-07
1.30558e-09
1.55723e-07
1.38141e-09
1.55819e-07
1.46428e-09
1.5592e-07
1.55277e-09
1.56025e-07
1.64919e-09
1.56133e-07
1.74874e-09
1.56242e-07
1.85299e-09
1.56353e-07
1.95521e-09
1.56463e-07
2.05858e-09
1.5657e-07
2.15583e-09
1.56675e-07
2.25321e-09
1.56777e-07
2.3437e-09
1.56875e-07
2.43654e-09
1.56969e-07
2.52455e-09
1.57059e-07
2.61736e-09
1.57145e-07
2.70665e-09
1.57225e-07
2.80016e-09
1.57301e-07
2.89024e-09
1.57372e-07
2.98326e-09
1.57438e-07
3.07384e-09
1.575e-07
3.16713e-09
1.57558e-07
3.25888e-09
1.57612e-07
3.35758e-09
1.57661e-07
3.45535e-09
1.57707e-07
3.56597e-09
1.57749e-07
3.67529e-09
1.57788e-07
3.80161e-09
1.57824e-07
3.93247e-09
1.57857e-07
4.08374e-09
1.57887e-07
4.25134e-09
1.57917e-07
4.43429e-09
4.65114e-09
1.68289e-07
1.02754e-09
-1.68221e-07
1.68362e-07
1.08986e-09
1.68445e-07
1.15083e-09
1.68534e-07
1.21673e-09
1.68627e-07
1.28756e-09
1.68726e-07
1.36605e-09
1.68828e-07
1.4507e-09
1.68933e-07
1.54379e-09
1.69041e-07
1.64131e-09
1.6915e-07
1.74367e-09
1.6926e-07
1.84469e-09
1.69371e-07
1.94762e-09
1.69482e-07
2.04565e-09
1.6959e-07
2.14451e-09
1.69697e-07
2.23743e-09
1.698e-07
2.33303e-09
1.699e-07
2.42452e-09
1.69996e-07
2.52111e-09
1.70088e-07
2.61481e-09
1.70175e-07
2.71291e-09
1.70258e-07
2.80766e-09
1.70336e-07
2.90521e-09
1.7041e-07
3.00025e-09
1.70478e-07
3.09828e-09
1.70543e-07
3.19428e-09
1.70603e-07
3.29767e-09
1.70659e-07
3.39941e-09
1.70711e-07
3.51426e-09
1.70759e-07
3.62739e-09
1.70803e-07
3.75693e-09
1.70844e-07
3.89131e-09
1.70883e-07
4.0453e-09
1.70919e-07
4.21542e-09
1.70953e-07
4.39986e-09
4.61542e-09
6.55467e-07
7.57759e-10
-6.55197e-07
6.5574e-07
8.16584e-10
6.5601e-07
8.81286e-10
6.56282e-07
9.44859e-10
6.5656e-07
1.00944e-09
6.56849e-07
1.07723e-09
6.57152e-07
1.14799e-09
6.57472e-07
1.22346e-09
6.57811e-07
1.30265e-09
6.58166e-07
1.38778e-09
6.58535e-07
1.47627e-09
6.58913e-07
1.56994e-09
6.59293e-07
1.66468e-09
6.59674e-07
1.76368e-09
6.6005e-07
1.86202e-09
6.60418e-07
1.9645e-09
6.60777e-07
2.06526e-09
6.61128e-07
2.17038e-09
6.6147e-07
2.27321e-09
6.61802e-07
2.38041e-09
6.62125e-07
2.4854e-09
6.62434e-07
2.59533e-09
6.62731e-07
2.70375e-09
6.63011e-07
2.81824e-09
6.63275e-07
2.92996e-09
6.63523e-07
3.05014e-09
6.63756e-07
3.16644e-09
6.63975e-07
3.29548e-09
6.6418e-07
3.42245e-09
6.64373e-07
3.56304e-09
6.64553e-07
3.71191e-09
6.64728e-07
3.86991e-09
6.64892e-07
4.05174e-09
6.65057e-07
4.23515e-09
4.43415e-09
7.09057e-07
5.44787e-10
-7.08844e-07
7.09278e-07
5.94979e-10
7.09512e-07
6.47606e-10
7.09753e-07
7.04389e-10
7.09998e-07
7.63877e-10
7.1025e-07
8.25498e-10
7.1051e-07
8.88319e-10
7.1078e-07
9.5293e-10
7.11063e-07
1.01948e-09
7.11361e-07
1.09052e-09
7.11671e-07
1.16617e-09
7.11992e-07
1.24866e-09
7.12321e-07
1.33558e-09
7.12656e-07
1.42921e-09
7.12992e-07
1.52513e-09
7.1333e-07
1.62688e-09
7.13667e-07
1.72834e-09
7.14002e-07
1.83518e-09
7.14335e-07
1.94035e-09
7.14664e-07
2.05186e-09
7.14987e-07
2.162e-09
7.15302e-07
2.27991e-09
7.1561e-07
2.39637e-09
7.15906e-07
2.52153e-09
7.16193e-07
2.64339e-09
7.16468e-07
2.77535e-09
7.16732e-07
2.90217e-09
7.16986e-07
3.042e-09
7.17229e-07
3.17929e-09
7.17463e-07
3.32877e-09
7.17688e-07
3.48705e-09
7.1791e-07
3.64759e-09
7.1813e-07
3.83166e-09
7.18356e-07
4.00967e-09
4.21367e-09
7.66924e-07
3.71426e-10
-7.6675e-07
7.67106e-07
4.13082e-10
7.67294e-07
4.59679e-10
7.67487e-07
5.11004e-10
7.67687e-07
5.64248e-10
7.67894e-07
6.17846e-10
7.68111e-07
6.71162e-10
7.68339e-07
7.25641e-10
7.68575e-07
7.82825e-10
7.68821e-07
8.45085e-10
7.69075e-07
9.12279e-10
7.69337e-07
9.86122e-10
7.69608e-07
1.06458e-09
7.69887e-07
1.14997e-09
7.70174e-07
1.2384e-09
7.70468e-07
1.33349e-09
7.70766e-07
1.42958e-09
7.71069e-07
1.53251e-09
7.71374e-07
1.63561e-09
7.71679e-07
1.74661e-09
7.71983e-07
1.85763e-09
7.72286e-07
1.97717e-09
7.72586e-07
2.09612e-09
7.72884e-07
2.22408e-09
7.73177e-07
2.34985e-09
7.73467e-07
2.48607e-09
7.73751e-07
2.61805e-09
7.7403e-07
2.76279e-09
7.74304e-07
2.90533e-09
7.74574e-07
3.0591e-09
7.7484e-07
3.22079e-09
7.75105e-07
3.38207e-09
7.75373e-07
3.56368e-09
7.75646e-07
3.73715e-09
3.93218e-09
8.29658e-07
2.51312e-10
-8.29538e-07
8.29777e-07
2.93597e-10
8.299e-07
3.36564e-10
8.30031e-07
3.8074e-10
8.30171e-07
4.23908e-10
8.30323e-07
4.65404e-10
8.30488e-07
5.06836e-10
8.30662e-07
5.51812e-10
8.30842e-07
6.0208e-10
8.3103e-07
6.57358e-10
8.31225e-07
7.16868e-10
8.31429e-07
7.821e-10
8.31643e-07
8.51507e-10
8.31866e-07
9.26921e-10
8.32099e-07
1.00543e-09
8.32342e-07
1.09052e-09
8.32593e-07
1.17822e-09
8.32852e-07
1.27343e-09
8.33117e-07
1.37058e-09
8.33388e-07
1.47553e-09
8.33664e-07
1.58201e-09
8.33944e-07
1.69659e-09
8.34228e-07
1.81228e-09
8.34516e-07
1.93654e-09
8.34805e-07
2.06038e-09
8.35097e-07
2.19428e-09
8.35389e-07
2.32548e-09
8.35683e-07
2.46889e-09
8.35978e-07
2.61066e-09
8.36274e-07
2.76295e-09
8.36573e-07
2.92236e-09
8.36874e-07
3.08047e-09
8.37182e-07
3.25632e-09
8.37498e-07
3.42075e-09
3.59771e-09
8.97833e-07
2.1687e-10
-8.97799e-07
8.97885e-07
2.41576e-10
8.97951e-07
2.71065e-10
8.98027e-07
3.04223e-10
8.98112e-07
3.39238e-10
8.98202e-07
3.75543e-10
8.98295e-07
4.13347e-10
8.98393e-07
4.53701e-10
8.98498e-07
4.97164e-10
8.98612e-07
5.43668e-10
8.98736e-07
5.93025e-10
8.98871e-07
6.46664e-10
8.99019e-07
7.04078e-10
8.99178e-07
7.67365e-10
8.99349e-07
8.34961e-10
8.9953e-07
9.09576e-10
8.99721e-07
9.87271e-10
8.99923e-07
1.07143e-09
9.00135e-07
1.1581e-09
9.00359e-07
1.25205e-09
9.00592e-07
1.34864e-09
9.00836e-07
1.45303e-09
9.01088e-07
1.55968e-09
9.0135e-07
1.67468e-09
9.0162e-07
1.79037e-09
9.01898e-07
1.91601e-09
9.02184e-07
2.03984e-09
9.02477e-07
2.17578e-09