/*--------------------------------*- C++ -*----------------------------------*\
| =========                 |                                                 |
| \\      /  F ield         | OpenFOAM: The Open Source CFD Toolbox           |
|  \\    /   O peration     | Version:  1.4.1-dev                             |
|   \\  /    A nd           | Web:      http://www.openfoam.org               |
|    \\/     M anipulation  |                                                 |
\*---------------------------------------------------------------------------*/

FoamFile
{
    version 2.0;
    format ascii;

    root "/home/mjaworsk/OpenFOAM/mjaworsk-1.4.1-dev/run/FlatPlate-Blasius";
    case "icoHeatFoam-flatPlate2";
    instance "0.8";
    local "";

    class volVectorField;
    object U;
}

// * * * * * * * * * * * * * * * * * * * * * * * * * * * * * * * * * * * * * //

dimensions      [0 1 -1 0 0 0 0];

internalField   nonuniform List<vector> 
2475
(
(0.132562 0.00806829 0)
(0.0798454 0.00529887 0)
(0.0537605 0.00187897 0)
(0.0398855 0.000635737 0)
(0.0322532 0.00026951 0)
(0.027983 0.000143828 0)
(0.0251938 0.000104748 0)
(0.0230593 8.65281e-05 0)
(0.0213069 7.10025e-05 0)
(0.0198361 5.78999e-05 0)
(0.0185771 4.77155e-05 0)
(0.0174862 3.98281e-05 0)
(0.0165228 3.35895e-05 0)
(0.0156687 2.86043e-05 0)
(0.0148966 2.45314e-05 0)
(0.0142022 2.12264e-05 0)
(0.0135617 1.84447e-05 0)
(0.0129813 1.61814e-05 0)
(0.0124347 1.42057e-05 0)
(0.0119394 1.2611e-05 0)
(0.0114618 1.11411e-05 0)
(0.0110337 9.98211e-06 0)
(0.0106083 8.83893e-06 0)
(0.0102368 7.99256e-06 0)
(0.00985 7.08588e-06 0)
(0.00952825 6.48145e-06 0)
(0.00916714 5.74802e-06 0)
(0.00889208 5.32565e-06 0)
(0.00854305 4.71423e-06 0)
(0.00831676 4.42994e-06 0)
(0.00796265 3.91936e-06 0)
(0.00779403 3.73829e-06 0)
(0.00740894 3.33844e-06 0)
(0.00731977 3.16954e-06 0)
(0.0068568 3.30058e-06 0)
(0.183148 0.0168116 0)
(0.161977 0.0150211 0)
(0.139891 0.008272 0)
(0.11796 0.00415259 0)
(0.099834 0.00226942 0)
(0.0870304 0.00134945 0)
(0.0780692 0.000894937 0)
(0.0712959 0.000663095 0)
(0.0658217 0.000521023 0)
(0.0612515 0.000419347 0)
(0.0573447 0.000343099 0)
(0.0539621 0.000284945 0)
(0.0509767 0.000239498 0)
(0.0483316 0.000203477 0)
(0.045941 0.000174214 0)
(0.0437929 0.000150517 0)
(0.0418112 0.000130671 0)
(0.0400171 0.000114468 0)
(0.0383272 0.000100424 0)
(0.0367975 8.89782e-05 0)
(0.0353224 7.85818e-05 0)
(0.0340021 7.02589e-05 0)
(0.0326891 6.22496e-05 0)
(0.0315442 5.61668e-05 0)
(0.0303509 4.98458e-05 0)
(0.02936 4.54797e-05 0)
(0.028247 4.03463e-05 0)
(0.027401 3.73125e-05 0)
(0.0263267 3.29693e-05 0)
(0.0256317 3.10369e-05 0)
(0.0245439 2.72194e-05 0)
(0.0240268 2.62662e-05 0)
(0.0228485 2.28127e-05 0)
(0.0225723 2.26204e-05 0)
(0.0211714 2.13116e-05 0)
(0.190443 0.0169534 0)
(0.19005 0.0186505 0)
(0.183911 0.0130929 0)
(0.171481 0.00861437 0)
(0.156312 0.00598918 0)
(0.142146 0.0042004 0)
(0.130167 0.00296557 0)
(0.120154 0.00218688 0)
(0.111654 0.00169379 0)
(0.104362 0.00135431 0)
(0.0980101 0.00110484 0)
(0.0924405 0.000915903 0)
(0.0874754 0.000768901 0)
(0.0830471 0.000652795 0)
(0.0790201 0.000558676 0)
(0.0753888 0.000482513 0)
(0.0720243 0.000418825 0)
(0.0689736 0.000366751 0)
(0.0660901 0.000321724 0)
(0.0634798 0.000284887 0)
(0.0609542 0.00025161 0)
(0.0586959 0.000224809 0)
(0.0564417 0.000199258 0)
(0.05448 0.00017965 0)
(0.0524273 0.000159508 0)
(0.0507281 0.00014539 0)
(0.0488112 0.000128995 0)
(0.0473607 0.000119196 0)
(0.0455101 0.000105242 0)
(0.0443192 9.91247e-05 0)
(0.0424466 8.662e-05 0)
(0.0415612 8.39386e-05 0)
(0.0395383 7.20974e-05 0)
(0.0390618 7.2608e-05 0)
(0.0366786 6.5525e-05 0)
(0.190981 0.0143335 0)
(0.195823 0.0179713 0)
(0.198596 0.0145014 0)
(0.195737 0.0108369 0)
(0.188474 0.00860185 0)
(0.179471 0.00688892 0)
(0.170202 0.00541009 0)
(0.161175 0.00426037 0)
(0.152553 0.00341946 0)
(0.144498 0.00279265 0)
(0.137029 0.00230943 0)
(0.13019 0.00193155 0)
(0.123884 0.00163132 0)
(0.118129 0.00139118 0)
(0.112788 0.00119469 0)
(0.107911 0.00103462 0)
(0.103328 0.00090003 0)
(0.0991448 0.000789493 0)
(0.0951486 0.000693612 0)
(0.0915208 0.000614886 0)
(0.0879778 0.000543699 0)
(0.0848096 0.000486165 0)
(0.0816183 0.000431361 0)
(0.0788478 0.000389094 0)
(0.0759212 0.000345756 0)
(0.0735108 0.000315177 0)
(0.0707644 0.000279761 0)
(0.0687019 0.000258489 0)
(0.0660421 0.000228209 0)
(0.0643471 0.000215007 0)
(0.0616522 0.00018762 0)
(0.0603913 0.000182084 0)
(0.0574849 0.000155708 0)
(0.0568003 0.000157587 0)
(0.0534039 0.000139218 0)
(0.192115 0.0121844 0)
(0.196155 0.0161193 0)
(0.201145 0.0142438 0)
(0.202866 0.0112892 0)
(0.201078 0.00951334 0)
(0.197351 0.00825502 0)
(0.192632 0.00703451 0)
(0.187262 0.00593109 0)
(0.181347 0.00502487 0)
(0.175141 0.00428616 0)
(0.168773 0.00366843 0)
(0.162476 0.00314982 0)
(0.156262 0.00271293 0)
(0.150312 0.00234829 0)
(0.144535 0.00203964 0)
(0.139107 0.00178223 0)
(0.133845 0.00156127 0)
(0.128964 0.00137738 0)
(0.124189 0.00121573 0)
(0.119821 0.00108201 0)
(0.115467 0.000959959 0)
(0.111568 0.000860889 0)
(0.107564 0.000765825 0)
(0.1041 0.000692275 0)
(0.10037 0.000616349 0)
(0.097322 0.000562644 0)
(0.0937806 0.000500053 0)
(0.0911543 0.000462457 0)
(0.0876965 0.000408574 0)
(0.0855291 0.000385215 0)
(0.0820088 0.000336128 0)
(0.0803921 0.000326448 0)
(0.0765934 0.000278809 0)
(0.0757065 0.000282465 0)
(0.0712957 0.00024648 0)
(0.19336 0.0108363 0)
(0.196145 0.0143874 0)
(0.200668 0.0136129 0)
(0.203638 0.0111713 0)
(0.204153 0.00956505 0)
(0.203258 0.00860945 0)
(0.20164 0.00770721 0)
(0.19948 0.00680855 0)
(0.196647 0.00601657 0)
(0.193267 0.00534295 0)
(0.189319 0.00474963 0)
(0.185043 0.0042202 0)
(0.180388 0.00374352 0)
(0.175631 0.00332265 0)
(0.170649 0.00294645 0)
(0.165759 0.00261963 0)
(0.160733 0.00232737 0)
(0.155949 0.00207766 0)
(0.151046 0.0018515 0)
(0.146504 0.00166162 0)
(0.141795 0.00148435 0)
(0.137567 0.00133944 0)
(0.133064 0.00119767 0)
(0.129191 0.00108776 0)
(0.12487 0.000972154 0)
(0.121387 0.000890517 0)
(0.11719 0.000793583 0)
(0.114143 0.000735726 0)
(0.109979 0.000651216 0)
(0.10744 0.000615041 0)
(0.103156 0.000537355 0)
(0.10125 0.000522345 0)
(0.0966071 0.000446563 0)
(0.0955495 0.000452201 0)
(0.0901789 0.000391875 0)
(0.19418 0.0099395 0)
(0.196259 0.0128774 0)
(0.199872 0.0128718 0)
(0.202886 0.0109516 0)
(0.204118 0.0093907 0)
(0.204265 0.00853159 0)
(0.203959 0.00783401 0)
(0.203474 0.00711058 0)
(0.202565 0.00643871 0)
(0.201311 0.00586531 0)
(0.199516 0.00535951 0)
(0.197405 0.00490062 0)
(0.194759 0.00446972 0)
(0.19189 0.00407452 0)
(0.188522 0.00370244 0)
(0.185075 0.00336677 0)
(0.181178 0.00305051 0)
(0.177374 0.00277191 0)
(0.173145 0.00250741 0)
(0.169189 0.00228098 0)
(0.16478 0.00206073 0)
(0.160838 0.00187919 0)
(0.156348 0.00169484 0)
(0.152546 0.00155203 0)
(0.148018 0.00139619 0)
(0.144465 0.00128708 0)
(0.139898 0.0011525 0)
(0.136703 0.00107354 0)
(0.132042 0.000953577 0)
(0.129333 0.000903632 0)
(0.124446 0.000791781 0)
(0.122387 0.000771033 0)
(0.117039 0.000661204 0)
(0.115882 0.000669087 0)
(0.109698 0.000578309 0)
(0.194636 0.00926458 0)
(0.196315 0.0115553 0)
(0.199137 0.0120126 0)
(0.201892 0.0106536 0)
(0.203345 0.00918585 0)
(0.203859 0.00832789 0)
(0.20394 0.00773674 0)
(0.204055 0.00713802 0)
(0.203938 0.00654714 0)
(0.20375 0.00603784 0)
(0.203163 0.00559808 0)
(0.202486 0.00521045 0)
(0.201326 0.0048438 0)
(0.200092 0.00450714 0)
(0.198292 0.00417988 0)
(0.196476 0.00388153 0)
(0.194033 0.00358686 0)
(0.19169 0.00332365 0)
(0.188665 0.00305935 0)
(0.185909 0.002831 0)
(0.182397 0.00259537 0)
(0.179369 0.00240126 0)
(0.175464 0.00219189 0)
(0.172311 0.0020317 0)
(0.168081 0.00184543 0)
(0.164952 0.00171815 0)
(0.160434 0.00155001 0)
(0.157492 0.001455 0)
(0.152676 0.0012998 0)
(0.150104 0.00123871 0)
(0.144902 0.00109069 0)
(0.142909 0.00106565 0)
(0.137119 0.000918755 0)
(0.135982 0.00092959 0)
(0.129261 0.000804752 0)
(0.194893 0.00869271 0)
(0.196299 0.0104365 0)
(0.198491 0.0110933 0)
(0.200905 0.010255 0)
(0.202409 0.00897479 0)
(0.203133 0.00810645 0)
(0.203321 0.00756029 0)
(0.20361 0.00705596 0)
(0.203707 0.00652871 0)
(0.203924 0.00605533 0)
(0.2038 0.00564587 0)
(0.203807 0.0052996 0)
(0.203386 0.00497564 0)
(0.203131 0.00468688 0)
(0.202325 0.00440234 0)
(0.201725 0.0041496 0)
(0.200438 0.0038914 0)
(0.199438 0.00366579 0)
(0.197608 0.00342626 0)
(0.1962 0.00322388 0)
(0.193807 0.0029993 0)
(0.192033 0.00281974 0)
(0.189082 0.00260878 0)
(0.187022 0.00245423 0)
(0.183529 0.00225588 0)
(0.181294 0.00212814 0)
(0.177273 0.00193909 0)
(0.175022 0.00184029 0)
(0.170478 0.00165729 0)
(0.168412 0.00159269 0)
(0.163296 0.00141248 0)
(0.161646 0.00138741 0)
(0.155808 0.00120572 0)
(0.154852 0.00122101 0)
(0.14802 0.00106359 0)
(0.195091 0.00817188 0)
(0.196286 0.00951314 0)
(0.197984 0.0101961 0)
(0.200039 0.00976906 0)
(0.20148 0.00874528 0)
(0.20236 0.0078997 0)
(0.202605 0.00736158 0)
(0.20296 0.00692609 0)
(0.203073 0.00646086 0)
(0.203433 0.00601974 0)
(0.203422 0.00562296 0)
(0.203697 0.00529574 0)
(0.203519 0.00499125 0)
(0.203714 0.00473022 0)
(0.203337 0.00446965 0)
(0.20341 0.00424891 0)
(0.202754 0.00401725 0)
(0.202644 0.0038262 0)
(0.20162 0.00361246 0)
(0.201276 0.00344337 0)
(0.199801 0.00323983 0)
(0.199192 0.00308937 0)
(0.197197 0.00289219 0)
(0.196321 0.00276142 0)
(0.193742 0.00256836 0)
(0.192631 0.0024587 0)
(0.189414 0.00226528 0)
(0.188152 0.0021786 0)
(0.184265 0.00198145 0)
(0.183008 0.00192478 0)
(0.178413 0.00172313 0)
(0.177359 0.00170481 0)
(0.171956 0.00149763 0)
(0.171335 0.00151951 0)
(0.164941 0.00133835 0)
(0.195323 0.00768875 0)
(0.196345 0.00874856 0)
(0.197659 0.00937465 0)
(0.199381 0.00922847 0)
(0.200677 0.00847899 0)
(0.201655 0.00770706 0)
(0.201945 0.00716543 0)
(0.202354 0.00677181 0)
(0.20243 0.00636488 0)
(0.20285 0.00596375 0)
(0.202835 0.00557862 0)
(0.203219 0.00526218 0)
(0.203074 0.00496486 0)
(0.203447 0.00471931 0)
(0.203181 0.00446848 0)
(0.203551 0.00426579 0)
(0.203127 0.00404599 0)
(0.203471 0.00387702 0)
(0.202831 0.0036779 0)
(0.203114 0.0035345 0)
(0.202182 0.00334681 0)
(0.202367 0.00322411 0)
(0.20106 0.00304208 0)
(0.201113 0.00293974 0)
(0.199333 0.00275946 0)
(0.199226 0.00267738 0)
(0.196868 0.00249185 0)
(0.1966 0.0024289 0)
(0.193581 0.00223206 0)
(0.193215 0.00219337 0)
(0.189483 0.00198523 0)
(0.189128 0.00198002 0)
(0.184611 0.00176281 0)
(0.184403 0.00179274 0)
(0.179 0.00160406 0)
(0.195628 0.00724474 0)
(0.196505 0.00810326 0)
(0.197523 0.00864924 0)
(0.198961 0.00867107 0)
(0.20007 0.00816789 0)
(0.201085 0.00751432 0)
(0.201412 0.00698145 0)
(0.201873 0.0066083 0)
(0.201909 0.00624813 0)
(0.202356 0.00589323 0)
(0.202314 0.00552629 0)
(0.202748 0.0052208 0)
(0.202582 0.00492642 0)
(0.203022 0.00469143 0)
(0.202756 0.00444437 0)
(0.203232 0.00425261 0)
(0.202859 0.00403601 0)
(0.203378 0.0038794 0)
(0.20287 0.00368487 0)
(0.203425 0.00355681 0)
(0.202741 0.00337573 0)
(0.203316 0.00327164 0)
(0.202399 0.00309819 0)
(0.202971 0.00301786 0)
(0.201742 0.00284818 0)
(0.202274 0.00279111 0)
(0.200632 0.00261735 0)
(0.201072 0.00257935 0)
(0.198921 0.00239254 0)
(0.199247 0.00237442 0)
(0.196523 0.00217373 0)
(0.196749 0.00218314 0)
(0.193393 0.00197307 0)
(0.193542 0.00200967 0)
(0.18951 0.00183289 0)
(0.196 0.0068417 0)
(0.196754 0.00754782 0)
(0.197545 0.00801713 0)
(0.198749 0.00812808 0)
(0.199672 0.00781853 0)
(0.200667 0.00730593 0)
(0.201023 0.0068074 0)
(0.20153 0.00644634 0)
(0.201549 0.00611785 0)
(0.201998 0.00580854 0)
(0.201937 0.00546737 0)
(0.202386 0.00517683 0)
(0.202211 0.00488558 0)
(0.202662 0.0046591 0)
(0.202392 0.00441452 0)
(0.202881 0.00423094 0)
(0.202525 0.00401511 0)
(0.203069 0.00386587 0)
(0.202618 0.00367165 0)
(0.203224 0.00355181 0)
(0.20266 0.00337181 0)
(0.20333 0.0032776 0)
(0.202628 0.00310679 0)
(0.203356 0.00303867 0)
(0.202477 0.00287459 0)
(0.203239 0.00283282 0)
(0.202124 0.00266922 0)
(0.202864 0.00264812 0)
(0.201443 0.00247514 0)
(0.202096 0.0024713 0)
(0.200321 0.00228691 0)
(0.200841 0.0023057 0)
(0.198663 0.00211582 0)
(0.198998 0.00215384 0)
(0.196402 0.00200437 0)
(0.196408 0.00647737 0)
(0.197052 0.00706276 0)
(0.197675 0.00746493 0)
(0.198684 0.00761778 0)
(0.199447 0.00744588 0)
(0.200379 0.00707207 0)
(0.200757 0.00663349 0)
(0.201293 0.00628936 0)
(0.201329 0.00598097 0)
(0.20176 0.00571031 0)
(0.201707 0.00539978 0)
(0.202136 0.00512915 0)
(0.201986 0.00484433 0)
(0.202408 0.00462524 0)
(0.20217 0.00438388 0)
(0.202615 0.00420692 0)
(0.202306 0.00399278 0)
(0.202792 0.00384839 0)
(0.202413 0.00365455 0)
(0.20295 0.00353887 0)
(0.202497 0.00335913 0)
(0.20309 0.00326904 0)
(0.202555 0.00309912 0)
(0.203207 0.00303531 0)
(0.202582 0.00287431 0)
(0.203282 0.0028376 0)
(0.202552 0.00268211 0)
(0.203256 0.00266666 0)
(0.202394 0.00250793 0)
(0.203036 0.0025078 0)
(0.202016 0.00234282 0)
(0.202542 0.00236205 0)
(0.201326 0.00219791 0)
(0.201665 0.0022302 0)
(0.200255 0.00211396 0)
(0.196819 0.00614753 0)
(0.197362 0.00663472 0)
(0.197865 0.00697834 0)
(0.198704 0.00714651 0)
(0.199346 0.00706605 0)
(0.200182 0.00681171 0)
(0.20058 0.0064492 0)
(0.201117 0.00613389 0)
(0.201203 0.0058418 0)
(0.201599 0.00560028 0)
(0.201584 0.0053212 0)
(0.201966 0.0050741 0)
(0.201874 0.00480098 0)
(0.202237 0.00458914 0)
(0.202069 0.00435276 0)
(0.202435 0.00418099 0)
(0.202211 0.0039707 0)
(0.202597 0.00382953 0)
(0.202324 0.00363805 0)
(0.202737 0.00352411 0)
(0.202416 0.00334632 0)
(0.20286 0.00325699 0)
(0.202493 0.00308924 0)
(0.20297 0.00302488 0)
(0.202563 0.00286745 0)
(0.203069 0.00282867 0)
(0.202631 0.00268087 0)
(0.203137 0.00266211 0)
(0.202672 0.00251705 0)
(0.203128 0.00251188 0)
(0.202623 0.00236544 0)
(0.202998 0.00237763 0)
(0.202424 0.00223827 0)
(0.202663 0.0022593 0)
(0.202031 0.00217296 0)
(0.197216 0.00584861 0)
(0.19766 0.00625417 0)
(0.19808 0.00654615 0)
(0.198769 0.00671394 0)
(0.199323 0.00669175 0)
(0.200048 0.0065306 0)
(0.200461 0.0062479 0)
(0.200973 0.0059733 0)
(0.201126 0.00570108 0)
(0.201479 0.00548098 0)
(0.201521 0.00523082 0)
(0.201842 0.00500824 0)
(0.201825 0.00475224 0)
(0.202119 0.00454872 0)
(0.20204 0.00431965 0)
(0.202317 0.00415197 0)
(0.202194 0.00394767 0)
(0.202472 0.00380873 0)
(0.202316 0.00362188 0)
(0.2026 0.00350832 0)
(0.202414 0.00333458 0)
(0.202707 0.00324423 0)
(0.202495 0.0030807 0)
(0.202796 0.00301336 0)
(0.20257 0.00286116 0)
(0.202876 0.00281666 0)
(0.202653 0.00267709 0)
(0.202948 0.00265033 0)
(0.202739 0.00251796 0)
(0.202998 0.0025036 0)
(0.202791 0.00237316 0)
(0.203002 0.00237488 0)
(0.202775 0.00225638 0)
(0.202905 0.0022642 0)
(0.202674 0.00220002 0)
(0.197587 0.0055785 0)
(0.19794 0.00591452 0)
(0.198299 0.00616025 0)
(0.198858 0.00631762 0)
(0.199347 0.00633097 0)
(0.199962 0.00623761 0)
(0.200381 0.00602866 0)
(0.20085 0.00580212 0)
(0.201069 0.00555676 0)
(0.201381 0.00535473 0)
(0.201484 0.00512966 0)
(0.201746 0.00493012 0)
(0.2018 0.00469499 0)
(0.202031 0.00450183 0)
(0.202035 0.00428258 0)
(0.202239 0.00411874 0)
(0.202207 0.00392198 0)
(0.202397 0.00378495 0)
(0.20234 0.00360442 0)
(0.202524 0.00349081 0)
(0.202447 0.00332273 0)
(0.202625 0.00323066 0)
(0.202533 0.00307293 0)
(0.202704 0.00300172 0)
(0.202607 0.00285613 0)
(0.20277 0.00280472 0)
(0.202684 0.00267374 0)
(0.202833 0.00263775 0)
(0.202767 0.00251673 0)
(0.202894 0.00249268 0)
(0.202831 0.00237574 0)
(0.202935 0.00236673 0)
(0.202861 0.00226522 0)
(0.202919 0.00226088 0)
(0.202846 0.00221157 0)
(0.197929 0.00533549 0)
(0.198201 0.00561095 0)
(0.198512 0.00581424 0)
(0.198964 0.0059547 0)
(0.199401 0.00598764 0)
(0.199918 0.0059412 0)
(0.20033 0.0057945 0)
(0.200753 0.00561748 0)
(0.201017 0.0054055 0)
(0.2013 0.00522238 0)
(0.201452 0.00501934 0)
(0.201672 0.00484018 0)
(0.201778 0.00462728 0)
(0.201965 0.00444668 0)
(0.202031 0.00423965 0)
(0.202187 0.00408036 0)
(0.202219 0.00389216 0)
(0.202355 0.00375729 0)
(0.202366 0.00358421 0)
(0.202488 0.00347071 0)
(0.202482 0.00330938 0)
(0.202592 0.0032155 0)
(0.202574 0.0030646 0)
(0.202672 0.00298932 0)
(0.202651 0.00285123 0)
(0.202736 0.00279292 0)
(0.202723 0.00267048 0)
(0.202798 0.00262578 0)
(0.202795 0.00251477 0)
(0.202862 0.00248197 0)
(0.202854 0.00237683 0)
(0.202908 0.00235807 0)
(0.202888 0.00227078 0)
(0.202913 0.00225668 0)
(0.202887 0.0022173 0)
(0.198241 0.00511831 0)
(0.198444 0.00534026 0)
(0.198711 0.00550377 0)
(0.199081 0.00562318 0)
(0.199472 0.0056641 0)
(0.199912 0.00564848 0)
(0.200303 0.00555087 0)
(0.200685 0.00541988 0)
(0.200971 0.00524489 0)
(0.201236 0.00508348 0)
(0.201419 0.00490131 0)
(0.201616 0.00473991 0)
(0.201752 0.00454865 0)
(0.201916 0.00438209 0)
(0.202019 0.00418935 0)
(0.202153 0.00403598 0)
(0.202224 0.00385725 0)
(0.202334 0.00372503 0)
(0.202383 0.00356026 0)
(0.202477 0.0034472 0)
(0.202509 0.00329355 0)
(0.202588 0.00319795 0)
(0.20261 0.00305474 0)
(0.202675 0.00297538 0)
(0.202691 0.00284532 0)
(0.202744 0.00278065 0)
(0.202763 0.0026664 0)
(0.20281 0.00261411 0)
(0.20283 0.00251205 0)
(0.202876 0.00247157 0)
(0.202885 0.00237719 0)
(0.202922 0.00234996 0)
(0.202919 0.00227477 0)
(0.202932 0.00225352 0)
(0.202918 0.00222112 0)
(0.198524 0.00492331 0)
(0.198667 0.00509818 0)
(0.198893 0.00522473 0)
(0.199204 0.00532096 0)
(0.199554 0.00536175 0)
(0.199936 0.00536472 0)
(0.2003 0.00530389 0)
(0.200646 0.00521231 0)
(0.200934 0.00507438 0)
(0.201188 0.00493727 0)
(0.201387 0.00477639 0)
(0.201574 0.00463109 0)
(0.201725 0.00445996 0)
(0.201881 0.0043078 0)
(0.202003 0.00413081 0)
(0.20213 0.00398486 0)
(0.202222 0.00381672 0)
(0.202325 0.0036877 0)
(0.202394 0.00353206 0)
(0.202479 0.00341978 0)
(0.20253 0.00327469 0)
(0.202599 0.0031775 0)
(0.20264 0.00304268 0)
(0.202694 0.00295947 0)
(0.202728 0.00283756 0)
(0.202771 0.00276736 0)
(0.202803 0.00266084 0)
(0.202843 0.00260214 0)
(0.20287 0.00250825 0)
(0.202911 0.00246119 0)
(0.202926 0.0023765 0)
(0.202957 0.00234236 0)
(0.202962 0.00227732 0)
(0.202972 0.00225124 0)
(0.202963 0.00222395 0)
(0.198777 0.00474152 0)
(0.198867 0.00487658 0)
(0.199055 0.00497044 0)
(0.199324 0.00504369 0)
(0.199641 0.00507952 0)
(0.199982 0.00509228 0)
(0.200317 0.00505794 0)
(0.200633 0.00499807 0)
(0.20091 0.00489451 0)
(0.201154 0.00478285 0)
(0.201358 0.00464436 0)
(0.201541 0.00451472 0)
(0.2017 0.00436231 0)
(0.201853 0.00422406 0)
(0.201985 0.00406355 0)
(0.202113 0.00392631 0)
(0.202217 0.00376998 0)
(0.202322 0.00364487 0)
(0.202401 0.00349912 0)
(0.202486 0.00338813 0)
(0.202549 0.00325223 0)
(0.202616 0.00315393 0)
(0.202667 0.0030278 0)
(0.202719 0.00294145 0)
(0.202763 0.00282745 0)
(0.202805 0.00275273 0)
(0.202843 0.00265343 0)
(0.202883 0.00258957 0)
(0.202913 0.00250291 0)
(0.202953 0.00245078 0)
(0.202973 0.00237435 0)
(0.203001 0.00233507 0)
(0.203013 0.0022783 0)
(0.203022 0.00224932 0)
(0.203019 0.00222578 0)
(0.199004 0.00456205 0)
(0.199042 0.00466559 0)
(0.199194 0.00473289 0)
(0.199435 0.00478571 0)
(0.199728 0.00481459 0)
(0.200041 0.00483137 0)
(0.20035 0.00481539 0)
(0.20064 0.00477988 0)
(0.2009 0.00470626 0)
(0.201132 0.00461944 0)
(0.201333 0.00450415 0)
(0.201514 0.00439059 0)
(0.201676 0.0042561 0)
(0.20183 0.00413113 0)
(0.201967 0.00398708 0)
(0.202098 0.00385957 0)
(0.20221 0.00371605 0)
(0.202318 0.00359597 0)
(0.202407 0.00346062 0)
(0.202494 0.0033519 0)
(0.202565 0.00322545 0)
(0.202634 0.00312706 0)
(0.202692 0.0030095 0)
(0.202746 0.00292117 0)
(0.202796 0.00281466 0)
(0.20284 0.00273659 0)
(0.202883 0.00264377 0)
(0.202923 0.00257638 0)
(0.202958 0.00249566 0)
(0.202997 0.00244029 0)
(0.203021 0.00237056 0)
(0.203048 0.00232786 0)
(0.203066 0.00227758 0)
(0.203074 0.00224731 0)
(0.203079 0.00222648 0)
(0.199207 0.00437704 0)
(0.199192 0.00445731 0)
(0.199313 0.0045051 0)
(0.199533 0.00454179 0)
(0.199811 0.00456384 0)
(0.200106 0.00458129 0)
(0.200395 0.00457748 0)
(0.200662 0.0045599 0)
(0.200904 0.00451099 0)
(0.20112 0.00444699 0)
(0.201314 0.00435466 0)
(0.20149 0.00425796 0)
(0.201653 0.00414107 0)
(0.201806 0.00402914 0)
(0.201948 0.00390098 0)
(0.202082 0.00378397 0)
(0.202201 0.00365373 0)
(0.202313 0.00354013 0)
(0.20241 0.00341536 0)
(0.2025 0.00331022 0)
(0.202578 0.0031932 0)
(0.202649 0.00309612 0)
(0.202714 0.00298682 0)
(0.20277 0.00289793 0)
(0.202826 0.00279846 0)
(0.202872 0.00271864 0)
(0.20292 0.00263123 0)
(0.202962 0.00256231 0)
(0.203001 0.00248624 0)
(0.203039 0.00242929 0)
(0.203069 0.00236503 0)
(0.203094 0.0023205 0)
(0.203118 0.00227505 0)
(0.203127 0.00224476 0)
(0.20314 0.00222593 0)
(0.199389 0.00418631 0)
(0.199321 0.00425043 0)
(0.199412 0.00428537 0)
(0.199617 0.0043109 0)
(0.199886 0.00432747 0)
(0.200171 0.00434404 0)
(0.200445 0.00434773 0)
(0.200693 0.0043427 0)
(0.200917 0.00431302 0)
(0.201116 0.00426877 0)
(0.201299 0.00419777 0)
(0.201468 0.00411822 0)
(0.201629 0.00401859 0)
(0.201781 0.00391978 0)
(0.201926 0.00380655 0)
(0.202061 0.00370046 0)
(0.202187 0.00358334 0)
(0.202301 0.00347758 0)
(0.202406 0.00336336 0)
(0.202499 0.00326309 0)
(0.202584 0.00315524 0)
(0.202658 0.00306089 0)
(0.202729 0.00295931 0)
(0.202788 0.0028714 0)
(0.20285 0.00277819 0)
(0.202898 0.00269859 0)
(0.202952 0.0026155 0)
(0.202994 0.00254672 0)
(0.203039 0.00247463 0)
(0.203075 0.00241735 0)
(0.203112 0.00235751 0)
(0.203135 0.00231283 0)
(0.203166 0.00227081 0)
(0.203175 0.00224124 0)
(0.203197 0.002224 0)
(0.199553 0.00398707 0)
(0.199433 0.00404071 0)
(0.199495 0.00406836 0)
(0.199688 0.00408755 0)
(0.199953 0.0041008 0)
(0.200231 0.00411646 0)
(0.200497 0.0041248 0)
(0.20073 0.0041285 0)
(0.200937 0.0041134 0)
(0.201118 0.00408569 0)
(0.201288 0.00403375 0)
(0.201446 0.00397116 0)
(0.201603 0.00388846 0)
(0.201752 0.00380323 0)
(0.201899 0.00370425 0)
(0.202036 0.00360948 0)
(0.202166 0.00350509 0)
(0.202283 0.00340843 0)
(0.202395 0.00330478 0)
(0.20249 0.00321075 0)
(0.202583 0.00311173 0)
(0.202658 0.00302166 0)
(0.202736 0.00292713 0)
(0.202797 0.00284171 0)
(0.202865 0.00275386 0)
(0.202915 0.00267607 0)
(0.202975 0.00259682 0)
(0.203017 0.00252902 0)
(0.203068 0.00246057 0)
(0.203104 0.00240419 0)
(0.203147 0.00234759 0)
(0.203169 0.00230422 0)
(0.203207 0.00226497 0)
(0.203215 0.0022363 0)
(0.203247 0.00222051 0)
(0.199702 0.00377991 0)
(0.199531 0.00382672 0)
(0.199566 0.00385071 0)
(0.199748 0.00386704 0)
(0.20001 0.00387892 0)
(0.200287 0.00389429 0)
(0.200546 0.00390574 0)
(0.200768 0.00391566 0)
(0.200961 0.00391148 0)
(0.201125 0.00389738 0)
(0.20128 0.00386191 0)
(0.201426 0.00381548 0)
(0.201576 0.00374909 0)
(0.20172 0.00367791 0)
(0.201868 0.00359272 0)
(0.202004 0.00350966 0)
(0.202139 0.00341751 0)
(0.202258 0.00333093 0)
(0.202375 0.00323796 0)
(0.202473 0.00315157 0)
(0.202571 0.00306133 0)
(0.202648 0.0029771 0)
(0.202733 0.0028896 0)
(0.202795 0.00280803 0)
(0.202869 0.00272543 0)
(0.202921 0.0026504 0)
(0.202987 0.00257531 0)
(0.20303 0.00250927 0)
(0.203087 0.00244379 0)
(0.203122 0.00238952 0)
(0.203171 0.00233541 0)
(0.203193 0.00229377 0)
(0.203238 0.00225742 0)
(0.203246 0.0022295 0)
(0.203287 0.00221507 0)
(0.199837 0.00357228 0)
(0.199618 0.00361358 0)
(0.199627 0.00363512 0)
(0.199799 0.00365002 0)
(0.20006 0.00366135 0)
(0.200336 0.00367676 0)
(0.200593 0.00369027 0)
(0.200806 0.00370466 0)
(0.200986 0.00370857 0)
(0.201135 0.00370546 0)
(0.201275 0.00368382 0)
(0.201407 0.00365218 0)
(0.201548 0.00360111 0)
(0.201685 0.00354403 0)
(0.201832 0.00347236 0)
(0.201967 0.00340116 0)
(0.202105 0.00332087 0)
(0.202224 0.00324469 0)
(0.202347 0.00316244 0)
(0.202446 0.00308461 0)
(0.202551 0.00300315 0)
(0.202628 0.00292568 0)
(0.202718 0.00284549 0)
(0.202782 0.0027688 0)
(0.202863 0.00269176 0)
(0.202915 0.00262046 0)
(0.202987 0.00254981 0)
(0.203031 0.00248707 0)
(0.203095 0.0024242 0)
(0.203128 0.00237268 0)
(0.203184 0.00232145 0)
(0.203205 0.00228133 0)
(0.203258 0.00224796 0)
(0.203265 0.00222104 0)
(0.203316 0.00220765 0)
(0.199956 0.00337479 0)
(0.199694 0.00341063 0)
(0.199678 0.00342938 0)
(0.19984 0.00344267 0)
(0.200101 0.00345308 0)
(0.200378 0.00346808 0)
(0.200635 0.00348255 0)
(0.200842 0.00349976 0)
(0.201012 0.00350936 0)
(0.201146 0.00351465 0)
(0.201273 0.00350422 0)
(0.201389 0.00348535 0)
(0.20152 0.00344818 0)
(0.201648 0.0034046 0)
(0.201792 0.0033461 0)
(0.201924 0.00328675 0)
(0.202065 0.003218 0)
(0.202184 0.00315232 0)
(0.202311 0.00308056 0)
(0.20241 0.00301193 0)
(0.20252 0.00293912 0)
(0.202598 0.00286893 0)
(0.202693 0.00279595 0)
(0.202757 0.00272492 0)
(0.202844 0.00265319 0)
(0.202897 0.00258641 0)
(0.202976 0.00251978 0)
(0.203019 0.00246132 0)
(0.203089 0.00240154 0)
(0.203122 0.00235245 0)
(0.203185 0.00230476 0)
(0.203205 0.00226665 0)
(0.203265 0.00223589 0)
(0.203272 0.00221053 0)
(0.203332 0.00219829 0)
(0.200059 0.00318332 0)
(0.199755 0.00321487 0)
(0.199717 0.00323101 0)
(0.199871 0.00324245 0)
(0.200133 0.0032516 0)
(0.200412 0.00326574 0)
(0.20067 0.00328038 0)
(0.200874 0.00329915 0)
(0.201037 0.00331259 0)
(0.201158 0.00332409 0)
(0.201271 0.00332248 0)
(0.201373 0.0033144 0)
(0.201492 0.0032895 0)
(0.201609 0.00325872 0)
(0.201748 0.00321294 0)
(0.201876 0.00316579 0)
(0.202018 0.00310852 0)
(0.202137 0.00305387 0)
(0.202267 0.00299256 0)
(0.202366 0.00293395 0)
(0.202479 0.00287012 0)
(0.202557 0.00280804 0)
(0.202657 0.00274252 0)
(0.202721 0.0026783 0)
(0.202813 0.00261212 0)
(0.202867 0.00255065 0)
(0.202952 0.0024881 0)
(0.202995 0.0024339 0)
(0.203071 0.00237779 0)
(0.203103 0.00233098 0)
(0.203173 0.00228587 0)
(0.203193 0.00225044 0)
(0.203259 0.00222124 0)
(0.203267 0.00219759 0)
(0.203335 0.00218574 0)
(0.20015 0.00298281 0)
(0.199805 0.00301326 0)
(0.199745 0.00302905 0)
(0.19989 0.00304039 0)
(0.200154 0.0030495 0)
(0.200437 0.00306358 0)
(0.200699 0.00307849 0)
(0.200901 0.00309827 0)
(0.201059 0.00311409 0)
(0.201169 0.00312974 0)
(0.201271 0.00313438 0)
(0.201358 0.00313458 0)
(0.201465 0.00311971 0)
(0.201571 0.00310017 0)
(0.201703 0.00306627 0)
(0.201826 0.00303108 0)
(0.201968 0.00298551 0)
(0.202084 0.00294213 0)
(0.202217 0.00289172 0)
(0.202314 0.00284352 0)
(0.202431 0.00278954 0)
(0.202507 0.00273643 0)
(0.202611 0.00267929 0)
(0.202673 0.00262316 0)
(0.202771 0.00256397 0)
(0.202825 0.00250918 0)
(0.202916 0.00245213 0)
(0.202959 0.00240319 0)
(0.203041 0.00235169 0)
(0.203071 0.00230904 0)
(0.203148 0.00226655 0)
(0.203167 0.00223437 0)
(0.203241 0.00220723 0)
(0.203248 0.00218513 0)
(0.203324 0.00217364 0)
(0.200355 0.00248702 0)
(0.199909 0.00251817 0)
(0.199793 0.00254203 0)
(0.199916 0.00256418 0)
(0.200182 0.00258472 0)
(0.200474 0.00260787 0)
(0.200744 0.00263039 0)
(0.200944 0.00265513 0)
(0.201093 0.00267625 0)
(0.201181 0.00269676 0)
(0.201257 0.00270963 0)
(0.201313 0.00271975 0)
(0.201394 0.00271996 0)
(0.201473 0.00271752 0)
(0.20159 0.0027053 0)
(0.201697 0.00269215 0)
(0.201836 0.00267089 0)
(0.201947 0.00265025 0)
(0.202082 0.00262293 0)
(0.202174 0.00259587 0)
(0.202295 0.0025627 0)
(0.202367 0.00252914 0)
(0.202477 0.00249073 0)
(0.202536 0.00245313 0)
(0.202644 0.00241122 0)
(0.202696 0.00237297 0)
(0.202801 0.00233038 0)
(0.202842 0.00229455 0)
(0.202937 0.00225511 0)
(0.202964 0.00222267 0)
(0.203056 0.0021913 0)
(0.203074 0.00216424 0)
(0.203164 0.00214619 0)
(0.203169 0.00212703 0)
(0.203265 0.00212004 0)
(0.200381 0.00178515 0)
(0.199924 0.00182045 0)
(0.199797 0.00185934 0)
(0.199907 0.00190047 0)
(0.200159 0.00194101 0)
(0.200432 0.00198049 0)
(0.200682 0.00201675 0)
(0.200857 0.00205064 0)
(0.20098 0.00208031 0)
(0.201038 0.00210797 0)
(0.201089 0.00213149 0)
(0.201116 0.00215435 0)
(0.201176 0.00217322 0)
(0.201232 0.00219265 0)
(0.201334 0.00220736 0)
(0.201422 0.00222283 0)
(0.20155 0.00223186 0)
(0.201642 0.00224102 0)
(0.201769 0.0022422 0)
(0.201844 0.00224314 0)
(0.201959 0.00223596 0)
(0.202019 0.00222926 0)
(0.202131 0.00221549 0)
(0.202183 0.00220392 0)
(0.202298 0.00218547 0)
(0.202346 0.00217073 0)
(0.20246 0.00214842 0)
(0.202498 0.0021313 0)
(0.202606 0.00210887 0)
(0.202631 0.00209077 0)
(0.202739 0.0020744 0)
(0.202759 0.00205579 0)
(0.202869 0.00204723 0)
(0.202876 0.00203294 0)
(0.202994 0.0020291 0)
(0.200347 0.00124553 0)
(0.199963 0.00128804 0)
(0.199867 0.00134013 0)
(0.199967 0.00139614 0)
(0.200186 0.00145063 0)
(0.200409 0.00150091 0)
(0.200611 0.00154502 0)
(0.200736 0.00158399 0)
(0.200824 0.00161794 0)
(0.200852 0.00165021 0)
(0.200886 0.00168049 0)
(0.200899 0.00171267 0)
(0.200953 0.00174374 0)
(0.200996 0.00177774 0)
(0.201089 0.00180848 0)
(0.201158 0.00184109 0)
(0.201269 0.00186714 0)
(0.201335 0.00189373 0)
(0.201444 0.00191168 0)
(0.201497 0.00193025 0)
(0.201601 0.00194051 0)
(0.201646 0.00195253 0)
(0.201755 0.00195712 0)
(0.201799 0.00196437 0)
(0.201914 0.00196366 0)
(0.201954 0.00196627 0)
(0.202072 0.0019598 0)
(0.202103 0.00195772 0)
(0.20222 0.00194899 0)
(0.202242 0.00194351 0)
(0.202363 0.00193853 0)
(0.202379 0.00192942 0)
(0.202508 0.00192741 0)
(0.202513 0.00191792 0)
(0.202651 0.00191597 0)
(0.200334 0.000808453 0)
(0.200097 0.00085802 0)
(0.200058 0.00092137 0)
(0.200136 0.000988369 0)
(0.200289 0.00105105 0)
(0.200428 0.00110582 0)
(0.200552 0.00115189 0)
(0.200616 0.00119166 0)
(0.200667 0.00122733 0)
(0.200676 0.00126287 0)
(0.200707 0.00129878 0)
(0.200719 0.00133804 0)
(0.200773 0.00137766 0)
(0.200807 0.00142022 0)
(0.200886 0.00145994 0)
(0.200932 0.00150067 0)
(0.201022 0.00153538 0)
(0.201063 0.00157033 0)
(0.201152 0.00159846 0)
(0.201186 0.00162754 0)
(0.201279 0.00165053 0)
(0.201312 0.00167496 0)
(0.201415 0.00169343 0)
(0.201448 0.00171314 0)
(0.201559 0.00172575 0)
(0.201589 0.00174006 0)
(0.201705 0.00174607 0)
(0.201728 0.00175504 0)
(0.20185 0.00175755 0)
(0.201867 0.00176177 0)
(0.201996 0.00176577 0)
(0.202008 0.00176427 0)
(0.202148 0.00176826 0)
(0.202152 0.00176238 0)
(0.202303 0.00176306 0)
(0.200398 0.000589238 0)
(0.200398 0.000636414 0)
(0.200428 0.00069567 0)
(0.200454 0.000756803 0)
(0.200494 0.000812286 0)
(0.200513 0.000859657 0)
(0.200543 0.000899352 0)
(0.200549 0.000934492 0)
(0.200576 0.000967737 0)
(0.200581 0.00100243 0)
(0.200616 0.00103875 0)
(0.200629 0.00107839 0)
(0.200679 0.00111848 0)
(0.200699 0.00116056 0)
(0.200759 0.00120004 0)
(0.200779 0.00124004 0)
(0.200844 0.00127544 0)
(0.200863 0.0013115 0)
(0.200933 0.001343 0)
(0.200953 0.00137594 0)