# y+ ()        
# Time         	patch          	min            	max            	average        
100            	topWall	4.83459123e-02	4.28117423e-01	3.66701152e-01
100            	bottomWall	4.41358764e+00	1.09923298e+01	4.90934999e+00
200            	topWall	5.46578890e-02	5.22017106e-01	4.43603663e-01
200            	bottomWall	4.34343052e+00	1.09913533e+01	4.94037453e+00
300            	topWall	5.78113546e-02	5.84905876e-01	4.94262375e-01
300            	bottomWall	4.28549989e+00	1.09911889e+01	4.95862135e+00
400            	topWall	5.91890575e-02	6.26988322e-01	5.26833154e-01
400            	bottomWall	4.23849167e+00	1.09911528e+01	4.97043940e+00
500            	topWall	5.97620974e-02	6.55180263e-01	5.47353453e-01
500            	bottomWall	4.20290863e+00	1.09911531e+01	4.97919021e+00
600            	topWall	5.99228555e-02	6.73964076e-01	5.60302152e-01
600            	bottomWall	4.17951197e+00	1.09911630e+01	4.98638693e+00
700            	topWall	5.99092706e-02	6.86190289e-01	5.68393303e-01
700            	bottomWall	4.16642716e+00	1.09911743e+01	4.99256693e+00
800            	topWall	5.98261940e-02	6.93747878e-01	5.73278835e-01
800            	bottomWall	4.16120413e+00	1.09911844e+01	4.99794176e+00
900            	topWall	5.97263415e-02	6.97946141e-01	5.76015578e-01
900            	bottomWall	4.16180005e+00	1.09911923e+01	5.00266215e+00
1000           	topWall	5.96323889e-02	6.99767528e-01	5.77346920e-01
1000           	bottomWall	4.16634326e+00	1.09911986e+01	5.00686466e+00
1100           	topWall	5.95545447e-02	6.99926176e-01	5.77772784e-01
1100           	bottomWall	4.17377657e+00	1.09912033e+01	5.01061882e+00
1200           	topWall	5.94916104e-02	6.98960931e-01	5.77580922e-01
1200           	bottomWall	4.18377574e+00	1.09912067e+01	5.01390714e+00
1300           	topWall	5.94467581e-02	6.97363200e-01	5.77004543e-01
1300           	bottomWall	4.19575901e+00	1.09912093e+01	5.01669960e+00
1400           	topWall	5.94102460e-02	6.96160030e-01	5.76151491e-01
1400           	bottomWall	4.20899773e+00	1.09912111e+01	5.01898260e+00
1500           	topWall	5.93789506e-02	6.94798757e-01	5.75126965e-01
1500           	bottomWall	4.22265421e+00	1.09912124e+01	5.02077342e+00
1600           	topWall	5.93600879e-02	6.90651077e-01	5.74027305e-01
1600           	bottomWall	4.23624032e+00	1.09912135e+01	5.02211510e+00
1700           	topWall	5.93447184e-02	6.84491752e-01	5.72905625e-01
1700           	bottomWall	4.24913374e+00	1.09912142e+01	5.02305643e+00
1800           	topWall	5.93330208e-02	6.81849931e-01	5.71815927e-01
1800           	bottomWall	4.26114918e+00	1.09912148e+01	5.02365454e+00
1900           	topWall	5.93241247e-02	6.80631433e-01	5.70830897e-01
1900           	bottomWall	4.27229359e+00	1.09912152e+01	5.02396788e+00
2000           	topWall	5.93182005e-02	6.79866091e-01	5.70126294e-01
2000           	bottomWall	4.28058566e+00	1.09912155e+01	5.02405936e+00
2100           	topWall	5.93155564e-02	6.79488380e-01	5.69754143e-01
2100           	bottomWall	4.28427944e+00	1.09912156e+01	5.02402114e+00
2200           	topWall	5.93144446e-02	6.79366247e-01	5.69632263e-01
2200           	bottomWall	4.28414184e+00	1.09912156e+01	5.02394623e+00
2300           	topWall	5.93143378e-02	6.79360718e-01	5.69628976e-01
2300           	bottomWall	4.28251303e+00	1.09912155e+01	5.02388035e+00
2400           	topWall	5.93144764e-02	6.79383701e-01	5.69654822e-01
2400           	bottomWall	4.28103051e+00	1.09912155e+01	5.02384207e+00
2500           	topWall	5.93145869e-02	6.79402530e-01	5.69675839e-01
2500           	bottomWall	4.28009238e+00	1.09912155e+01	5.02382271e+00
2600           	topWall	5.93146424e-02	6.79412735e-01	5.69687445e-01
2600           	bottomWall	4.27959521e+00	1.09912155e+01	5.02381334e+00
2700           	topWall	5.93146639e-02	6.79417380e-01	5.69692877e-01
2700           	bottomWall	4.27935380e+00	1.09912155e+01	5.02380886e+00
2800           	topWall	5.93146734e-02	6.79419429e-01	5.69695376e-01
2800           	bottomWall	4.27923292e+00	1.09912155e+01	5.02380635e+00
2900           	topWall	5.93146752e-02	6.79420475e-01	5.69696712e-01
2900           	bottomWall	4.27916589e+00	1.09912155e+01	5.02380473e+00
3000           	topWall	5.93148182e-02	6.79423411e-01	5.69698804e-01
3000           	bottomWall	4.27912944e+00	1.09912170e+01	5.02383602e+00
3100           	topWall	5.93148306e-02	6.79424214e-01	5.69699221e-01
3100           	bottomWall	4.27910792e+00	1.09912166e+01	5.02383599e+00
3200           	topWall	5.93148146e-02	6.79424124e-01	5.69699393e-01
3200           	bottomWall	4.27909459e+00	1.09912165e+01	5.02383506e+00
3300           	topWall	5.93148640e-02	6.79423731e-01	5.69699538e-01
3300           	bottomWall	4.27908600e+00	1.09912165e+01	5.02383532e+00
3400           	topWall	5.93148998e-02	6.79423263e-01	5.69699666e-01
3400           	bottomWall	4.27908032e+00	1.09912165e+01	5.02383655e+00
3500           	topWall	5.93149220e-02	6.79422955e-01	5.69699782e-01
3500           	bottomWall	4.27907687e+00	1.09912165e+01	5.02383561e+00
3600           	topWall	5.93149349e-02	6.79422790e-01	5.69699894e-01
3600           	bottomWall	4.27907482e+00	1.09912165e+01	5.02383677e+00
3700           	topWall	5.93149516e-02	6.79422726e-01	5.69700005e-01
3700           	bottomWall	4.27907347e+00	1.09912165e+01	5.02383754e+00
3800           	topWall	5.93149547e-02	6.79422709e-01	5.69700090e-01
3800           	bottomWall	4.27907276e+00	1.09912165e+01	5.02383704e+00
3900           	topWall	5.93149606e-02	6.79422714e-01	5.69700165e-01
3900           	bottomWall	4.27907260e+00	1.09912165e+01	5.02383728e+00
4000           	topWall	5.93149664e-02	6.79422709e-01	5.69700221e-01
4000           	bottomWall	4.27907292e+00	1.09912165e+01	5.02383797e+00
4100           	topWall	5.93149627e-02	6.79422686e-01	5.69700262e-01
4100           	bottomWall	4.27907358e+00	1.09912165e+01	5.02383792e+00
4200           	topWall	5.93149584e-02	6.79422629e-01	5.69700270e-01
4200           	bottomWall	4.27907453e+00	1.09912165e+01	5.02383877e+00
4300           	topWall	5.93149605e-02	6.79422559e-01	5.69700254e-01
4300           	bottomWall	4.27907562e+00	1.09912165e+01	5.02383944e+00
4400           	topWall	5.93149611e-02	6.79422457e-01	5.69700227e-01
4400           	bottomWall	4.27907682e+00	1.09912166e+01	5.02383897e+00
4500           	topWall	5.93149598e-02	6.79422344e-01	5.69700186e-01
4500           	bottomWall	4.27907802e+00	1.09912166e+01	5.02383947e+00
4600           	topWall	5.93149575e-02	6.79422221e-01	5.69700123e-01
4600           	bottomWall	4.27907921e+00	1.09912167e+01	5.02384004e+00
4700           	topWall	5.93149563e-02	6.79422083e-01	5.69700052e-01
4700           	bottomWall	4.27908033e+00	1.09912166e+01	5.02383951e+00
4800           	topWall	5.93149544e-02	6.79421952e-01	5.69699974e-01
4800           	bottomWall	4.27908140e+00	1.09912167e+01	5.02383981e+00
4900           	topWall	5.93149544e-02	6.79421821e-01	5.69699890e-01
4900           	bottomWall	4.27908237e+00	1.09912166e+01	5.02384032e+00
5000           	topWall	5.93149500e-02	6.79421691e-01	5.69699804e-01
5000           	bottomWall	4.27908329e+00	1.09912167e+01	5.02383972e+00
