/*--------------------------------*- C++ -*----------------------------------*\
| =========                 |                                                 |
| \\      /  F ield         | OpenFOAM: The Open Source CFD Toolbox           |
|  \\    /   O peration     | Version:  5.x                                   |
|   \\  /    A nd           | Web:      www.OpenFOAM.org                      |
|    \\/     M anipulation  |                                                 |
\*---------------------------------------------------------------------------*/
FoamFile
{
    version     2.0;
    format      ascii;
    class       volScalarField;
    location    "0.7";
    object      p;
}
// * * * * * * * * * * * * * * * * * * * * * * * * * * * * * * * * * * * * * //

dimensions      [0 2 -2 0 0 0 0];

internalField   nonuniform List<scalar> 
21600
(
0.044262819
0.041677379
0.036699707
0.03200515
0.028434371
0.025821691
0.023696576
0.021659795
0.01948939
0.017105873
0.014516135
0.011781267
0.0090047198
0.0063252244
0.0039050046
0.0019071118
0.00045349174
-0.0004068783
-0.00070746457
-0.00055046329
-7.3982269e-05
0.00058316303
0.0013052909
0.0020089847
0.0026424926
0.0031795601
0.0036121564
0.0039445453
0.0041884665
0.0043590095
0.0044716341
0.0045404113
0.0045772846
0.0045918832
0.0045916786
0.0045822351
0.0045675544
0.0045503735
0.0045324813
0.0045149443
0.0044983373
0.0044828758
0.0044685648
0.0044552578
0.0044427487
0.0044307835
0.0044191194
0.0044075088
0.0043957446
0.0043836314
0.0043710239
0.0043577899
0.0043438465
0.0043291185
0.0043135755
0.0042971874
0.0042799638
0.0042619067
0.0042430528
0.004223424
0.0042030727
0.0041820307
0.0041603578
0.0041380879
0.0041152817
0.0040919707
0.0040682126
0.0040440332
0.0040194854
0.0039945882
0.0039693889
0.0039438995
0.0039181623
0.0038921827
0.0038659987
0.0038396099
0.0038130511
0.0037863171
0.0037594403
0.0037324119
0.0037052625
0.0036779803
0.0036505951
0.0036230922
0.0035955013
0.0035678055
0.0035400343
0.0035121687
0.0034842386
0.0034562229
0.003428152
0.0034000028
0.0033718061
0.003343537
0.0033152269
0.0032868489
0.0032584353
0.0032299569
0.0032014469
0.0031728743
0.003144273
0.00311561
0.0030869203
0.0030581688
0.0030293918
0.0030005518
0.0029716868
0.0029427569
0.0029138018
0.0028847791
0.0028557304
0.0028266108
0.0027974641
0.0027682427
0.0027389925
0.0027096633
0.0026803036
0.0026508598
0.0026213837
0.0025918183
0.0025622183
0.0025325233
0.0025027918
0.0024729591
0.0024430879
0.0024131092
0.0023830902
0.002352957
0.0023227819
0.0022924855
0.002262146
0.0022316778
0.0022011657
0.0021705172
0.0021398246
0.0021089874
0.0020781064
0.0020470724
0.0020159958
0.0019847573
0.0019534782
0.0019220279
0.00189054
0.0018588709
0.0018271686
0.0017952747
0.0017633533
0.0017312291
0.0016990849
0.0016667259
0.0016343561
0.0016017588
0.0015691622
0.0015363237
0.0015034999
0.0014704191
0.0014373704
0.0014040479
0.0013707774
0.0013372143
0.0013037288
0.0012699305
0.001236238
0.0012022092
0.0011683222
0.0011340738
0.0011000072
0.0010655493
0.0010313231
0.00099667293
0.00096231135
0.00092748766
0.00089302147
0.00085805041
0.00082351739
0.00078842939
0.00075387591
0.00071871058
0.00068419378
0.00064899854
0.00061458883
0.00057942386
0.000545208
0.00051014718
0.00047623382
0.00044137061
0.00040789549
0.00037334751
0.00034048376
0.00030640192
0.00027437311
0.00024095354
0.00021005582
0.00017755864
0.00014819749
0.00011697331
8.9732658e-05
6.024114e-05
3.60474e-05
8.5622371e-06
0.039755074
0.03856284
0.035253693
0.03140133
0.028045313
0.025409333
0.023259528
0.021264123
0.019185797
0.016914666
0.014439186
0.01181475
0.0091435096
0.0065637663
0.0042326679
0.0022963296
0.00086543285
-9.5590687e-06
-0.00035059758
-0.0002451453
0.00018008557
0.00079153804
0.0014740369
0.0021434495
0.0027488621
0.0032642464
0.0036807896
0.0040018273
0.0042379644
0.0044031683
0.0045120245
0.0045780113
0.0046126921
0.0046254543
0.0046236205
0.004612667
0.0045965496
0.004577984
0.0045587544
0.0045399295
0.0045220902
0.0045054573
0.0044900408
0.0044756958
0.0044622171
0.0044493493
0.0044368472
0.0044244585
0.004411972
0.0043991871
0.0043859545
0.0043721369
0.004357648
0.0043424082
0.0043263846
0.0043095435
0.0042918926
0.0042734309
0.0042541937
0.0042342004
0.0042135027
0.0041921303
0.0041701422
0.0041475709
0.0041244766
0.0041008894
0.0040768668
0.0040524333
0.0040276419
0.0040025103
0.0039770861
0.00395138
0.0039254346
0.0038992542
0.0038728772
0.003846302
0.0038195639
0.0037926567
0.0037656132
0.0037384234
0.0037111187
0.003683686
0.0036561559
0.0036285126
0.0036007864
0.0035729591
0.0035450613
0.0035170726
0.003489024
0.0034608928
0.0034327106
0.003404453
0.0033761519
0.0033477808
0.0033193725
0.0032908985
0.0032623924
0.0032338235
0.0032052265
0.0031765684
0.003147885
0.0031191412
0.0030903741
0.0030615461
0.003032696
0.0030037837
0.0029748495
0.0029458511
0.0029168305
0.0028877428
0.0028586321
0.0028294508
0.0028002454
0.0027709653
0.0027416595
0.0027122745
0.002682862
0.0026533651
0.002623839
0.0025942229
0.0025645755
0.0025348322
0.0025050556
0.0024751768
0.0024452628
0.0024152401
0.0023851804
0.002355005
0.0023247914
0.0022944547
0.0022640785
0.0022335717
0.0022030248
0.0021723392
0.0021416135
0.0021107408
0.0020798284
0.0020487603
0.0020176538
0.0019863824
0.001955075
0.0019235931
0.0018920783
0.0018603788
0.0018286509
0.0017967277
0.0017647821
0.0017326296
0.0017004625
0.0016680761
0.0016356846
0.0016030608
0.0015704437
0.0015375795
0.0015047364
0.0014716307
0.0014385638
0.0014052171
0.0013719294
0.0013383427
0.0013048411
0.00127102
0.0012373124
0.0012032612
0.0011693602
0.0011350899
0.0011010102
0.0010665309
0.0010322926
0.00099762154
0.00096324879
0.00092840456
0.00089392815
0.00085893692
0.00082439462
0.00078928676
0.00075472493
0.00071954003
0.00068501582
0.00064980127
0.0006153851
0.00058020104
0.00054597969
0.0005109
0.00047698212
0.00044210025
0.00040862159
0.00037405518
0.00034118893
0.00030708893
0.00027505867
0.00024162129
0.00021072326
0.00017820874
0.00014884856
0.00011760771
9.036979e-05
6.0861996e-05
3.667261e-05
9.1819118e-06
0.036530777
0.036054524
0.033942665
0.030915455
0.027843371
0.025176895
0.022937781
0.020920905
0.018901897
0.01674357
0.014410357
0.011945183
0.0094434961
0.0070328818
0.0048507337
0.0030208297
0.0016361422
0.00074246491
0.0003287072
0.00032914821
0.0006403624
0.0011459955
0.0017398576
0.0023396371
0.0028897168
0.0033613715
0.0037459936
0.0040461567
0.0042703719
0.0044299469
0.0045370387
0.0046033116
0.0046391531
0.0046532571
0.0046525777
0.0046424185
0.0046266835
0.0046081009
0.0045885059
0.0045690301
0.0045503236
0.0045326686
0.0045161311
0.0045006094
0.0044859351
0.0044718779
0.0044582146
0.0044447059
0.0044311524
0.0044173579
0.0044031773
0.004388472
0.004373156
0.0043571457
0.0043404069
0.004322901
0.0043046336
0.0042855984
0.0042658289
0.0042453394
0.0042241799
0.0042023754
0.004179984
0.0041570336
0.0041335842
0.0041096617
0.0040853239
0.0040605916
0.0040355183
0.0040101184
0.0039844404
0.0039584921
0.003932317
0.0039059167
0.0038793308
0.0038525552
0.0038256265
0.0037985359
0.0037713179
0.0037439599
0.0037164951
0.0036889077
0.0036612302
0.0036334443
0.0036055822
0.0035776231
0.0035495997
0.0035214889
0.0034933238
0.0034650794
0.0034367892
0.0034084261
0.0033800245
0.0033515551
0.0033230532
0.0032944875
0.003265894
0.0032372392
0.0032085604
0.0031798218
0.0031510619
0.0031222426
0.0030934037
0.0030645047
0.0030355871
0.0030066079
0.0029776104
0.0029485489
0.0029194687
0.0028903214
0.0028611546
0.002831917
0.0028026586
0.0027733252
0.0027439694
0.0027145338
0.0026850742
0.0026555294
0.0026259586
0.002596297
0.0025666074
0.0025368208
0.0025070043
0.0024770843
0.0024471325
0.0024170705
0.002386975
0.0023567622
0.0023265146
0.0022961421
0.0022657339
0.0022351929
0.0022046155
0.0021738972
0.0021431426
0.0021122386
0.0020812988
0.0020502006
0.0020190682
0.001987768
0.001956436
0.0019249263
0.0018933883
0.0018616621
0.0018299123
0.0017979633
0.0017659969
0.0017338195
0.0017016328
0.0016692223
0.0016368124
0.0016041653
0.0015715308
0.001538644
0.0015057845
0.0014726568
0.0014395746
0.0014062065
0.0013729045
0.001339297
0.001305782
0.0012719406
0.0012382205
0.0012041494
0.0011702369
0.0011359471
0.0011018568
0.0010673583
0.0010331103
0.00099842038
0.00096403885
0.00092917595
0.00089469168
0.00085968195
0.00082513272
0.00079000648
0.00075543864
0.00072023544
0.00068570618
0.00065047332
0.00061605306
0.00058085066
0.00054662619
0.00051152807
0.00047760807
0.00044270763
0.00040922788
0.0003746427
0.0003417764
0.00030765739
0.00027562814
0.00024217148
0.00021127549
0.0001787414
0.00014938426
0.00011812358
9.0889557e-05
6.1363477e-05
3.7156362e-05
9.6321753e-06
0.034243552
0.034031929
0.032608883
0.030247834
0.027521103
0.024921992
0.022635301
0.020590456
0.018615139
0.016566799
0.014388724
0.012105553
0.0097973014
0.0075738962
0.0055522105
0.0038370179
0.0025072254
0.0016043463
0.0011253028
0.0010224875
0.0012141312
0.0016022752
0.0020920887
0.0026055739
0.0030876915
0.0035077936
0.0038547093
0.0041287614
0.0043361238
0.0044856703
0.0045873269
0.0046509708
0.0046857194
0.0046994332
0.0046985608
0.0046881154
0.0046718586
0.004652463
0.0046317693
0.0046109435
0.0045906902
0.0045713465
0.0045530355
0.0045357013
0.0045192163
0.0045033758
0.0044879804
0.0044728082
0.0044576765
0.0044423951
0.0044268249
0.004410825
0.004394309
0.0043771866
0.0043594206
0.0043409639
0.0043218184
0.0043019692
0.0042814461
0.0042602552
0.0042384437
0.0042160293
0.0041930682
0.0041695821
0.0041456298
0.0041212319
0.004096446
0.0040712881
0.0040458123
0.0040200288
0.0039939872
0.0039676912
0.0039411862
0.0039144698
0.0038875836
0.0038605199
0.0038333174
0.0038059639
0.003778496
0.0037508978
0.0037232046
0.0036953975
0.0036675112
0.003639524
0.0036114707
0.0035833272
0.0035551284
0.0035268483
0.0034985223
0.0034701221
0.0034416838
0.0034131772
0.0033846392
0.0033560374
0.0033274096
0.0032987212
0.0032700113
0.0032412429
0.0032124562
0.0031836121
0.0031547521
0.0031258346
0.0030969026
0.0030679122
0.0030389079
0.0030098434
0.002980765
0.0029516237
0.002922468
0.002893246
0.0028640086
0.0028347009
0.0028053764
0.0027759772
0.0027465595
0.0027170621
0.0026875443
0.0026579412
0.0026283159
0.0025985993
0.0025688584
0.00253902
0.0025091552
0.0024791861
0.0024491889
0.0024190805
0.0023889422
0.0023586854
0.0023283974
0.0022979832
0.0022675368
0.0022369562
0.0022063428
0.0021755869
0.0021447983
0.0021138583
0.0020828865
0.0020517541
0.0020205913
0.0019892585
0.0019578978
0.0019263569
0.0018947918
0.0018630357
0.0018312603
0.0017992827
0.0017672921
0.0017350873
0.0017028778
0.0016704409
0.0016380094
0.0016053368
0.001572682
0.0015397708
0.0015068921
0.0014737408
0.0014406406
0.0014072497
0.0013739307
0.0013403011
0.0013067702
0.0012729072
0.0012391724
0.0012050803
0.001171154
0.0011368438
0.0011027406
0.0010682222
0.0010339623
0.00099925281
0.00096486028
0.0009299782
0.00089548383
0.00086045524
0.00082589679
0.00079075193
0.00075617574
0.00072095412
0.00068641735
0.00065116623
0.00061673927
0.00058151873
0.00054728835
0.00051217214
0.00047824697
0.00044332848
0.00040984421
0.00037524097
0.00034237068
0.0003082336
0.00027620067
0.00024272594
0.00021182618
0.0001792741
0.00014991236
0.00011863435
9.1392299e-05
6.1855601e-05
3.758518e-05
1.0019698e-05
0.032419093
0.032286152
0.031238233
0.029366884
0.027009997
0.024575472
0.02231652
0.020269074
0.01833315
0.016387685
0.014364147
0.012264973
0.010149285
0.0081073968
0.0062378385
0.0046304728
0.0033541997
0.0024478136
0.0019144695
0.0017207884
0.0018030181
0.0020798858
0.0024682276
0.0028960557
0.0033103168
0.0036789923
0.0039879497
0.0042347779
0.004423417
0.0045607707
0.004654975
0.0047143564
0.0047468108
0.0047593077
0.0047576972
0.0047466107
0.0047295909
0.004709197
0.0046872345
0.0046648759
0.0046428651
0.0046215865
0.0046012192
0.0045817554
0.0045631147
0.0045451271
0.0045276266
0.0045104122
0.0044933216
0.0044761736
0.0044588388
0.0044411757
0.0044231005
0.0044045176
0.0043853886
0.0043656585
0.0043453266
0.0043243692
0.0043028131
0.0042806556
0.0042579414
0.0042346796
0.0042109248
0.0041866909
0.0041620359
0.0041369733
0.0041115607
0.0040858079
0.0040597697
0.0040334507
0.0040069016
0.0039801211
0.0039531562
0.0039259998
0.0038986955
0.0038712313
0.0038436478
0.0038159288
0.0037881131
0.0037601808
0.0037321697
0.0037040567
0.0036758792
0.0036476117
0.0036192915
0.0035908908
0.0035624472
0.0035339307
0.0035053796
0.0034767618
0.0034481164
0.0034194094
0.0033906804
0.0033618935
0.0033330894
0.00330423
0.0032753571
0.0032464303
0.0032174928
0.0031885019
0.0031595021
0.0031304482
0.0031013865
0.0030722693
0.0030431445
0.003013962
0.0029847715
0.0029555203
0.0029262601
0.0028969356
0.0028676009
0.0028381975
0.0028087821
0.0027792934
0.0027497908
0.0027202096
0.0026906124
0.0026609309
0.0026312312
0.002601441
0.0025716305
0.0025417229
0.0025117928
0.0024817588
0.0024517003
0.0024215307
0.0023913349
0.0023610204
0.0023306784
0.0023002098
0.0022697126
0.0022390806
0.0022084194
0.0021776149
0.0021467813
0.0021157953
0.002084781
0.0020536051
0.0020224023
0.0019910282
0.0019596298
0.0019280497
0.001896449
0.0018646556
0.0018328466
0.0018008335
0.0017688113
0.0017365726
0.0017043332
0.001671864
0.0016394042
0.0016067009
0.0015740194
0.0015410787
0.0015081749
0.0014749953
0.0014418713
0.0014084533
0.001375112
0.0013414563
0.0013079042
0.0012740162
0.0012402614
0.0012061452
0.0011722001
0.0011378667
0.0011037458
0.0010692048
0.0010349283
0.0010001969
0.00096578876
0.00093088546
0.00089637639
0.00086132715
0.00082675488
0.00079158989
0.0007570007
0.00072175943
0.00068721039
0.00065194005
0.00061750147
0.00058226212
0.00054802062
0.00051288598
0.00047895004
0.0004440135
0.00041051854
0.00037589768
0.0003430164
0.00030886217
0.00027681735
0.00024332611
0.00021241248
0.00017984492
0.00015046512
0.00011917467
9.1902933e-05
6.2368656e-05
3.7973223e-05
1.0362707e-05
0.030843776
0.030722752
0.02988357
0.028360227
0.026349517
0.024143066
0.021984431
0.01997443
0.018084858
0.016232033
0.014349303
0.012421841
0.010486466
0.0086130127
0.0068834587
0.0053754917
0.0041505424
0.0032457005
0.0026689259
0.0023977785
0.0023831587
0.0025583991
0.0028516593
0.003197768
0.0035463662
0.0038647091
0.0041360735
0.0043553198
0.0045242266
0.0046479964
0.0047333038
0.0047871609
0.0048163434
0.0048269285
0.0048241201
0.0048121061
0.0047941579
0.0047726779
0.0047494062
0.0047254989
0.0047017243
0.0046785026
0.004656063
0.0046344408
0.0046136024
0.004593412
0.0045737383
0.0045544002
0.0045352567
0.0045161354
0.0044969189
0.0044774664
0.0044576994
0.0044375177
0.0044168846
0.0043957374
0.0043740754
0.0043518659
0.0043291346
0.0043058696
0.0042821146
0.0042578697
0.0042331887
0.004208077
0.0041825929
0.004156742
0.0041305826
0.0041041176
0.004077403
0.0040504369
0.0040232721
0.0039959013
0.003968374
0.0039406774
0.003912858
0.0038848982
0.0038568419
0.0038286677
0.0038004176
0.0037720667
0.003743656
0.0037151577
0.0036866125
0.00365799
0.0036293311
0.0036006031
0.0035718472
0.0035430288
0.0035141895
0.0034852929
0.0034563813
0.0034274163
0.0033984411
0.0033694154
0.0033403833
0.0033113025
0.0032822182
0.003253086
0.0032239522
0.0031947703
0.0031655881
0.0031363566
0.0031071251
0.0030778425
0.0030485597
0.0030192229
0.0029898851
0.0029604899
0.0029310923
0.0029016333
0.0028721701
0.002842641
0.0028131056
0.0027834992
0.0027538842
0.0027241928
0.0026944905
0.0026647056
0.0026349074
0.0026050204
0.0025751174
0.0025451189
0.0025151021
0.0024849827
0.0024548428
0.0024245929
0.0023943206
0.0023639306
0.0023335166
0.0023029769
0.002272412
0.002241713
0.0022109882
0.0021801205
0.0021492269
0.0021181814
0.0020871105
0.0020558783
0.0020246222
0.0019931949
0.0019617462
0.0019301158
0.0018984677
0.0018666267
0.0018347729
0.0018027147
0.0017706501
0.0017383687
0.0017060892
0.0016735795
0.0016410819
0.00160834
0.0015756227
0.0015426453
0.0015097077
0.0014764933
0.0014433372
0.0014098859
0.0013765143
0.0013428269
0.0013092461
0.0012753278
0.0012415458
0.0012074007
0.0011734297
0.0011390686
0.0011049231
0.0010703556
0.0010360558
0.001001299
0.00096686857
0.00093194083
0.00089741056
0.00086233781
0.00082774523
0.00079255764
0.00075794889
0.00072268587
0.00068811787
0.00065282662
0.00061836946
0.00058311003
0.0005488501
0.00051369623
0.00047974161
0.00044478676
0.00041127238
0.00037663424
0.00034373203
0.00030956179
0.00027749326
0.00024398773
0.00021304542
0.00018046643
0.00015104823
0.00011975378
9.2418989e-05
6.2905273e-05
3.831007e-05
1.0652704e-05
0.029429812
0.029301276
0.028592141
0.027322044
0.025608571
0.023647903
0.021639468
0.01970828
0.01787888
0.016110267
0.01435004
0.01257469
0.010801964
0.0090820074
0.007480978
0.0060655754
0.0048911575
0.0039935218
0.0033842106
0.0030490576
0.0029506236
0.0030347568
0.0032403206
0.0035093285
0.0037947082
0.0040637119
0.0042976536
0.0044889351
0.0046372629
0.0047462647
0.0048213535
0.0048684166
0.0048932292
0.0049010154
0.0048963211
0.0048828566
0.0048635858
0.0048407227
0.0048159186
0.0047902938
0.0047646276
0.004739364
0.0047147746
0.0046909305
0.004667841
0.0046454
0.004623509
0.0046020035
0.0045807631
0.0045596225
0.0045384772
0.0045171862
0.0044956783
0.0044738477
0.0044516611
0.0044290477
0.0044060077
0.0043824986
0.0043585463
0.0043341286
0.0043092891
0.0042840176
0.0042583685
0.0042323373
0.0042059835
0.0041793033
0.0041523571
0.0041251391
0.0040977082
0.0040700543
0.0040422336
0.0040142315
0.003986101
0.0039578225
0.0039294466
0.0039009491
0.0038723783
0.0038437062
0.0038149797
0.0037861673
0.0037573149
0.0037283885
0.0036994335
0.0036704136
0.0036413743
0.0036122771
0.0035831679
0.0035540062
0.0035248384
0.0034956223
0.003466405
0.0034371425
0.0034078827
0.0033785797
0.0033492822
0.0033199427
0.0032906108
0.0032612369
0.0032318719
0.0032024641
0.0031730657
0.0031436229
0.0031141892
0.0030847088
0.0030552365
0.0030257144
0.0029961991
0.0029666301
0.0029370661
0.0029074441
0.0028778247
0.0028481425
0.0028184605
0.0027887103
0.0027589576
0.002729131
0.0026992992
0.0026693873
0.0026394672
0.0026094606
0.002579443
0.0025493318
0.0025192071
0.0024889816
0.00245874
0.0024283902
0.002398022
0.0023675378
0.0023370333
0.0023064047
0.0022757544
0.0022449716
0.0022141661
0.0021832193
0.0021522495
0.0021211292
0.0020899864
0.0020586836
0.0020273594
0.0019958653
0.0019643522
0.0019326586
0.0019009495
0.0018690488
0.0018371372
0.0018050225
0.0017729031
0.0017405681
0.0017082368
0.0016756764
0.0016431296
0.0016103396
0.0015775756
0.0015445526
0.0015115707
0.001478313
0.0014451147
0.0014116223
0.0013782107
0.0013444843
0.0013108654
0.0012769099
0.0012430916
0.0012089112
0.0011749056
0.0011405107
0.0011063322
0.0010717328
0.0010374012
0.0010026139
0.00096815297
0.00093319626
0.00089863655
0.00086353619
0.00082891503
0.00079370123
0.00075906455
0.00072377666
0.00068918109
0.00065386633
0.00061938164
0.00058410009
0.00054981219
0.00051463771
0.00048065407
0.00044568027
0.00041213491
0.0003774798
0.00034454331
0.00031035857
0.00027825029
0.00024473376
0.00021374225
0.00018115821
0.0001516729
0.00012038713
9.294355e-05
6.347111e-05
3.859539e-05
1.0899877e-05
0.028139676
0.028002341
0.027385474
0.026306678
0.024838481
0.023111602
0.021277383
0.019457122
0.0177055
0.016017954
0.01436345
0.012719155
0.011089875
0.0095084829
0.0080260654
0.0066987196
0.0055759045
0.0046918223
0.0040604807
0.0036740067
0.0035042973
0.0035078649
0.0036334185
0.0038301748
0.00405485
0.0042754402
0.0044720143
0.0046349319
0.0047619653
0.0048552171
0.0049189307
0.004958
0.0049773175
0.0049813233
0.0049739278
0.0049583542
0.0049372378
0.0049125793
0.0048859195
0.004858324
0.0048305681
0.0048031066
0.0047762439
0.0047500781
0.0047246556
0.0046998943
0.0046757248
0.004651996
0.0046286071
0.0046053978
0.0045822765
0.0045591014
0.0045358088
0.0045122874
0.0044885077
0.0044643902
0.0044399367
0.0044150943
0.00438989
0.0043642899
0.0043383387
0.0043120148
0.0042853739
0.0042584005
0.004231156
0.0042036264
0.004175875
0.0041478859
0.0041197217
0.0040913633
0.0040628711
0.0040342217
0.0040054732
0.0039765976
0.0039476508
0.0039186005
0.003889501
0.0038603161
0.0038310987
0.0038018097
0.0037725012
0.0037431313
0.0037137518
0.0036843187
0.003654884
0.0036254015
0.0035959234
0.003566402
0.0035368899
0.0035073375
0.0034777984
0.0034482212
0.0034186602
0.0033890623
0.0033594827
0.0033298666
0.00330027
0.0032706365
0.0032410229
0.003211371
0.003181739
0.0031520665
0.003122413
0.0030927163
0.0030630371
0.0030333111
0.0030036008
0.0029738396
0.0029440917
0.0029142883
0.0028844954
0.0028546419
0.002824796
0.002794884
0.0027649766
0.0027349971
0.0027050189
0.0026749624
0.002644904
0.0026147606
0.0025846121
0.0025543715
0.0025241228
0.0024937749
0.0024634159
0.0024329501
0.0024024707
0.0023718767
0.0023412668
0.0023105342
0.002279784
0.0022489026
0.0022180023
0.002186962
0.0021559022
0.0021246933
0.002093465
0.0020620782
0.0020306729
0.0019990992
0.001967509
0.0019357398
0.0019039573
0.0018719849
0.0018400037
0.0018078208
0.0017756352
0.0017432355
0.0017108411
0.0016782194
0.0016456125
0.0016127641
0.0015799428
0.0015468645
0.0015138281
0.0014805178
0.0014472673
0.0014137249
0.0013802636
0.0013464898
0.0013128231
0.0012788225
0.0012449586
0.0012107355
0.001176686
0.0011422504
0.0011080297
0.0010733918
0.0010390194
0.0010041954
0.00096969509
0.00093470372
0.00090010556
0.00086497236
0.00083031349
0.00079506879
0.0007603948
0.00072507788
0.00069044501
0.0006551032
0.00062058065
0.00058527415
0.00055094717
0.00051575006
0.0004817251
0.00044673133
0.00041314106
0.00037846923
0.00034548208
0.00031128484
0.00027911669
0.00024559372
0.00021452692
0.00018194659
0.0001523578
0.00012109625
9.3489239e-05
6.4075992e-05
3.8843919e-05
1.1130601e-05
0.026955189
0.026814137
0.026270115
0.025339367
0.024070767
0.022552449
0.020895902
0.01920545
0.017547875
0.015943816
0.014383771
0.012852359
0.011348191
0.0098910931
0.0085185903
0.0072762098
0.0062069713
0.0053427313
0.0046989371
0.0042725624
0.0040431112
0.0039761882
0.0040293732
0.0041588415
0.0043254653
0.0044986752
0.0046580029
0.0047922457
0.0048974348
0.004974183
0.005025588
0.0050556239
0.0050684006
0.0050676593
0.0050567241
0.0050383461
0.0050148245
0.0049879283
0.0049590672
0.0049292321
0.0048991775
0.0048693548
0.0048400896
0.0048114984
0.0047836573
0.0047565025
0.0047299897
0.0047039786
0.0046783861
0.0046530556
0.0046279076
0.0046027992
0.0045776742
0.0045524156
0.0045269982
0.0045013333
0.0044754251
0.0044492097
0.0044227155
0.0043958969
0.0043688
0.0043413912
0.0043137281
0.0042857837
0.0042576217
0.0042292173
0.0042006369
0.0041718544
0.0041429364
0.004113854
0.0040846723
0.0040553586
0.0040259764
0.0039964887
0.0039669572
0.003937341
0.0039077005
0.003877991
0.0038482721
0.0038184959
0.0037887216
0.0037588985
0.0037290859
0.0036992308
0.0036693926
0.0036395165
0.0036096622
0.0035797731
0.0035499097
0.0035200136
0.0034901459
0.0034602467
0.003430378
0.003400478
0.0033706099
0.00334071
0.0033108423
0.0032809418
0.0032510733
0.0032211699
0.0031912977
0.003161388
0.0031315081
0.0031015873
0.0030716943
0.0030417565
0.0030118442
0.0029818826
0.0029519435
0.0029219503
0.0028919765
0.0028619431
0.0028319257
0.0028018431
0.002771773
0.0027416315
0.0027114991
0.0026812887
0.0026510838
0.0026207942
0.0025905064
0.0025601269
0.0025297458
0.0024992656
0.0024687807
0.0024381892
0.00240759
0.0023768763
0.0023461523
0.0023153057
0.0022844467
0.0022534567
0.0022224529
0.0021913093
0.0021601508
0.0021288433
0.0020975209
0.0020660401
0.002034545
0.0020028817
0.0019712058
0.0019393513
0.001907487
0.0018754331
0.0018433738
0.0018111133
0.001778853
0.0017463793
0.0017139135
0.0016812212
0.001648546
0.0016156303
0.0015827436
0.0015496012
0.0015165021
0.0014831306
0.0014498199
0.0014162191
0.0013827002
0.001348871
0.0013151487
0.001281095
0.0012471777
0.0012129043
0.0011788031
0.0011443194
0.0011100487
0.0010753653
0.0010409443
0.001006077
0.0009715291
0.00093649692
0.000901852
0.0008666802
0.00083197501
0.00079669415
0.00076197383
0.00072662315
0.00069194335
0.00065657045
0.0006219996
0.00058666485
0.00055228724
0.00051706519
0.0004829858
0.00044797095
0.0004143205
0.00037963242
0.00034657624
0.00031236913
0.00028011818
0.00024659452
0.00021542248
0.00018285604
0.00015312306
0.00012190078
9.4073629e-05
6.4728791e-05
3.9079944e-05
1.1373928e-05
0.025865311
0.025726872
0.025243838
0.024430641
0.023324027
0.021985568
0.020497263
0.018943814
0.017391913
0.015876615
0.01440562
0.012973727
0.011579012
0.01023306
0.0089622043
0.0078017838
0.0067877855
0.0059488492
0.0053009038
0.0048446334
0.0045658137
0.0044378108
0.0044260794
0.0044933451
0.0046048322
0.0047319696
0.0048543907
0.0049598201
0.0050427921
0.0051024925
0.0051408761
0.005161029
0.0051663506
0.0051599685
0.0051446849
0.005122814
0.0050963247
0.0050667454
0.0050353353
0.005002992
0.0049704301
0.0049380835
0.0049062862
0.0048751645
0.0048448166
0.0048151919
0.0047862671
0.0047579105
0.0047300544
0.0047025457
0.0046753154
0.0046482195
0.0046212086
0.0045941607
0.0045670541
0.004539792
0.0045123801
0.0044847447
0.0044569146
0.0044288338
0.0044005485
0.0043720147
0.0043432906
0.0043143386
0.0042852241
0.0042559122
0.0042264715
0.0041968664
0.0041671668
0.0041373345
0.0041074387
0.0040774379
0.0040474002
0.0040172802
0.0039871449
0.0039569449
0.0039267465
0.0038964967
0.0038662612
0.003835984
0.0038057305
0.0037754421
0.0037451844
0.0037148963
0.0036846442
0.0036543647
0.0036241249
0.0035938595
0.0035636365
0.0035333888
0.0035031852
0.003472957
0.003442774
0.0034125656
0.0033824029
0.0033522135
0.0033220695
0.0032918966
0.0032617683
0.0032316085
0.0032014918
0.0031713402
0.0031412297
0.0031110805
0.00308097
0.0030508162
0.0030206982
0.002990532
0.0029603984
0.0029302113
0.0029000532
0.0028698358
0.0028396437
0.0028093862
0.0027791504
0.0027488426
0.0027185527
0.0026881841
0.0026578295
0.0026273892
0.0025969589
0.0025664358
0.002535919
0.0025053018
0.0024746876
0.0024439654
0.0024132429
0.0023824043
0.0023515627
0.0023205967
0.0022896254
0.0022585214
0.0022274103
0.0021961576
0.0021648965
0.0021334847
0.0021020641
0.0020704834
0.0020388945
0.0020071356
0.0019753699
0.0019434237
0.0019114733
0.0018793317
0.0018471899
0.0018148454
0.0017825059
0.0017499517
0.0017174099
0.0016846406
0.0016518925
0.0016189028
0.0015859459
0.0015527327
0.0015195664
0.001486127
0.0014527512
0.0014190854
0.0013855039
0.0013516127
0.0013178297
0.0012837163
0.0012497405
0.0012154105
0.0011812522
0.0011467141
0.001112388
0.0010776529
0.0010431774
0.0010082609
0.00097365946
0.00093858076
0.0009038827
0.00086866688
0.00083390851
0.00079858653
0.00076381235
0.00072842344
0.00069368839
0.00065828057
0.000623652
0.00058828599
0.00055384695
0.00051859794
0.00048445143
0.0004494148
0.00041568893
0.00038098563
0.00034784168
0.000313628
0.00028127055
0.00024775245
0.00021644457
0.0001839016
0.00015398458
0.00012281197
9.471403e-05
6.5433609e-05
3.9330408e-05
1.1650418e-05
0.024861665
0.024731725
0.024301535
0.023584102
0.022609295
0.021423251
0.020087452
0.018669359
0.017229137
0.015807779
0.014424452
0.013083581
0.011786159
0.010539691
0.0093621946
0.0082799305
0.0073217204
0.0065122876
0.0058671512
0.0053896951
0.0050708273
0.0048905095
0.0048211117
0.0048314201
0.0048910384
0.0049737972
0.0050599687
0.0051366739
0.0051972356
0.0052395233
0.0052643649
0.0052739713
0.0052710758
0.0052582637
0.0052378831
0.005211859
0.0051818499
0.0051491437
0.0051148355
0.0050797128
0.0050444317
0.0050093946
0.0049749303
0.0049411672
0.004908217
0.0048760394
0.0048446266
0.0048138551
0.004783669
0.0047539193
0.0047245452
0.0046954026
0.004666447
0.0046375529
0.0046087002
0.0045797862
0.0045508163
0.004521709
0.0044924918
0.0044631001
0.0044335788
0.0044038751
0.004374046
0.0043440456
0.0043139387
0.0042836822
0.0042533452
0.0042228844
0.0041923707
0.0041617588
0.0041311199
0.0041004054
0.0040696863
0.0040389103
0.0040081478
0.003977343
0.0039465656
0.0039157566
0.0038849856
0.0038541903
0.0038234406
0.0037926714
0.0037619532
0.0037312184
0.0037005383
0.003669843
0.003639205
0.0036085521
0.0035779579
0.0035473485
0.0035167986
0.0034862322
0.0034557255
0.0034252005
0.0033947347
0.0033642483
0.0033338202
0.0033033684
0.0032729733
0.003242551
0.0032121834
0.0031817845
0.0031514378
0.0031210552
0.0030907218
0.0030603475
0.0030300192
0.0029996443
0.002969312
0.0029389271
0.0029085809
0.0028781759
0.0028478057
0.00281737
0.0027869651
0.002756488
0.0027260377
0.002695508
0.0026650009
0.002634407
0.0026038318
0.0025731621
0.0025425073
0.0025117504
0.0024810048
0.0024501489
0.0024193012
0.0023883349
0.0023573737
0.0023262855
0.0022952001
0.0022639791
0.0022327589
0.002201394
0.0021700287
0.0021385093
0.0021069889
0.0020753051
0.0020436206
0.0020117627
0.0019799054
0.0019478641
0.0019158259
0.0018835929
0.0018513669
0.0018189345
0.0017865142
0.0017538754
0.001721256
0.0016884055
0.0016555826
0.0016225146
0.0015894856
0.0015561973
0.0015229617
0.00148945
0.001456007
0.0014222715
0.0013886254
0.0013546675
0.0013208214
0.0012866436
0.0012526067
0.0012182154
0.0011839972
0.0011494
0.0011150153
0.0010802241
0.0010456907
0.0010107204
0.00097606164
0.00094093215
0.00090617661
0.00087091272
0.00083609622
0.00080072942
0.00076589567
0.00073046527
0.00069566829
0.00066022289
0.00062552871
0.00059012952
0.00055561958
0.0005203427
0.00048611757
0.00045105948
0.00041724407
0.00038252744
0.0003492781
0.00031506162
0.00028257559
0.00024906876
0.00021759744
0.0001850845
0.00015494994
0.00012382896
9.5422668e-05
6.6187806e-05
3.9617983e-05
1.1964999e-05
0.023937395
0.023821341
0.023438125
0.0228001
0.021933292
0.020875263
0.019674041
0.018383669
0.017055931
0.015731753
0.014436487
0.013181855
0.011972938
0.010816057
0.0097237283
0.0087148685
0.007811645
0.0070345371
0.0063978942
0.0059068444
0.0055563631
0.0053319395
0.0052119497
0.0051707109
0.0051820993
0.0052225939
0.0052735293
0.0053218536
0.0053599882
0.0053846481
0.0053955846
0.0053941468
0.0053824253
0.0053625154
0.00533637
0.0053055781
0.0052715167
0.0052352451
0.005197687
0.0051595083
0.0051212893
0.005083388
0.0050461145
0.0050095917
0.0049739365
0.0049391158
0.0049051323