/*--------------------------------*- C++ -*----------------------------------*\
| =========                 |                                                 |
| \\      /  F ield         | OpenFOAM: The Open Source CFD Toolbox           |
|  \\    /   O peration     | Version:  5.x                                   |
|   \\  /    A nd           | Web:      www.OpenFOAM.org                      |
|    \\/     M anipulation  |                                                 |
\*---------------------------------------------------------------------------*/
FoamFile
{
    version     2.0;
    format      ascii;
    class       surfaceScalarField;
    location    "0.7";
    object      phi;
}
// * * * * * * * * * * * * * * * * * * * * * * * * * * * * * * * * * * * * * //

dimensions      [0 3 -1 0 0 0 0];

internalField   nonuniform List<scalar> 
42870
(
7.8539017e-08
2.9351716e-09
-8.1474188e-08
7.4591359e-08
3.9476579e-09
7.042984e-08
4.1615184e-09
6.6320243e-08
4.1095972e-09
6.2252657e-08
4.0675861e-09
5.8183326e-08
4.0693312e-09
5.410429e-08
4.0790352e-09
5.0035081e-08
4.0692094e-09
4.6015556e-08
4.0195249e-09
4.2094845e-08
3.9207105e-09
3.8325832e-08
3.769013e-09
3.4763645e-08
3.562187e-09
3.1468858e-08
3.2947873e-09
2.8498033e-08
2.9708248e-09
2.5891771e-08
2.6062622e-09
2.3678022e-08
2.2137486e-09
2.1859316e-08
1.8187066e-09
2.041069e-08
1.4486258e-09
1.9285491e-08
1.1251995e-09
1.8426215e-08
8.5927576e-10
1.7773908e-08
6.5230651e-10
1.7274669e-08
4.9923922e-10
1.6882846e-08
3.918228e-10
1.6561945e-08
3.2090103e-10
1.6285479e-08
2.7646589e-10
1.6034582e-08
2.5089779e-10
1.5795937e-08
2.3864438e-10
1.5561213e-08
2.3472412e-10
1.532616e-08
2.3505311e-10
1.5089359e-08
2.3680111e-10
1.485112e-08
2.3823857e-10
1.4612637e-08
2.3848384e-10
1.4375455e-08
2.3718214e-10
1.4141116e-08
2.3433864e-10
1.3910994e-08
2.3012177e-10
1.3686185e-08
2.2480891e-10
1.3467511e-08
2.1867448e-10
1.3255508e-08
2.1200312e-10
1.3050489e-08
2.0501896e-10
1.2852558e-08
1.9793039e-10
1.2661683e-08
1.9087506e-10
1.2477704e-08
1.8397912e-10
1.2300398e-08
1.7730605e-10
1.2129477e-08
1.7092141e-10
1.1964637e-08
1.6483923e-10
1.180555e-08
1.5908747e-10
1.1651899e-08
1.5365105e-10
1.1503358e-08
1.4854099e-10
1.1359628e-08
1.4372947e-10
1.122041e-08
1.3921822e-10
1.1085438e-08
1.3497226e-10
1.0954447e-08
1.3099066e-10
1.082721e-08
1.2723652e-10
1.0703501e-08
1.2370963e-10
1.0583127e-08
1.2037346e-10
1.0465897e-08
1.1723006e-10
1.0351653e-08
1.1424433e-10
1.0240232e-08
1.1142128e-10
1.0131504e-08
1.0872769e-10
1.0025332e-08
1.061717e-10
9.9216103e-09
1.0372204e-10
9.8202205e-09
1.0138978e-10
9.7210752e-09
9.9145387e-11
9.6240727e-09
9.7002545e-11
9.5291396e-09
9.4933128e-11
9.4361866e-09
9.2953007e-11
9.3451515e-09
9.1035105e-11
9.2559544e-09
8.9197038e-11
9.1685419e-09
8.7412487e-11
9.0828415e-09
8.5700398e-11
8.9988065e-09
8.4034933e-11
8.9163704e-09
8.2436058e-11
8.8354922e-09
8.0878221e-11
8.75611e-09
7.9382111e-11
8.6781876e-09
7.7922361e-11
8.6016674e-09
7.6520169e-11
8.526517e-09
7.5150302e-11
8.4526827e-09
7.3834279e-11
8.3801357e-09
7.2547013e-11
8.3088254e-09
7.1310206e-11
8.2387265e-09
7.0098951e-11
8.1697915e-09
6.8934994e-11
8.1019978e-09
6.7793703e-11
8.035301e-09
6.6696781e-11
7.969681e-09
6.5619927e-11
7.9050964e-09
6.4584674e-11
7.8415292e-09
6.3567173e-11
7.7789405e-09
6.2588666e-11
7.7173147e-09
6.1625872e-11
7.6566151e-09
6.0699618e-11
7.5968278e-09
5.9787309e-11
7.5379186e-09
5.8909226e-11
7.479875e-09
5.8043578e-11
7.422665e-09
5.7209964e-11
7.3662775e-09
5.6387532e-11
7.3106825e-09
5.5595041e-11
7.2558698e-09
5.4812717e-11
7.2018114e-09
5.4058323e-11
7.1484981e-09
5.331331e-11
7.0959039e-09
5.2594278e-11
7.0440198e-09
5.1884053e-11
6.9928219e-09
5.11979e-11
6.9423017e-09
5.0520182e-11
6.8924371e-09
4.9864656e-11
6.8432197e-09
4.9217379e-11
6.7946293e-09
4.8590418e-11
6.7466576e-09
4.7971705e-11
6.6992862e-09
4.7371423e-11
6.6525066e-09
4.6779558e-11
6.6063024e-09
4.6204223e-11
6.5606648e-09
4.5637637e-11
6.5155791e-09
4.5085649e-11
6.4710362e-09
4.45429e-11
6.4270234e-09
4.4012787e-11
6.3835309e-09
4.349256e-11
6.3405479e-09
4.2982959e-11
6.2980639e-09
4.2484037e-11
6.2560702e-09
4.1993684e-11
6.2145552e-09
4.1514949e-11
6.1735125e-09
4.1042677e-11
6.1329294e-09
4.0583106e-11
6.0928016e-09
4.0127833e-11
6.0531151e-09
3.9686476e-11
6.0138679e-09
3.9247199e-11
5.9750448e-09
3.8823167e-11
5.9366458e-09
3.8398942e-11
5.8986544e-09
3.7991409e-11
5.861073e-09
3.7581364e-11
5.8238835e-09
3.7189578e-11
5.7870905e-09
3.6792917e-11
5.7506744e-09
3.641618e-11
5.7146422e-09
3.6032157e-11
5.6789724e-09
3.5669797e-11
5.6436747e-09
3.5297717e-11
5.6087256e-09
3.4949106e-11
5.5741372e-09
3.4588342e-11
5.5398843e-09
3.4252905e-11
5.5059815e-09
3.3902872e-11
5.4724014e-09
3.3580052e-11
5.4391612e-09
3.3240207e-11
5.4062318e-09
3.2929463e-11
5.3736324e-09
3.2599337e-11
5.3413323e-09
3.2300162e-11
5.3093529e-09
3.1979347e-11
5.2776617e-09
3.1691257e-11
5.2462823e-09
3.1379348e-11
5.2151805e-09
3.1101849e-11
5.1843819e-09
3.0798531e-11
5.1538508e-09
3.053113e-11
5.1236146e-09
3.02362e-11
5.0936362e-09
2.9978393e-11
5.0639447e-09
2.9691546e-11
5.0345018e-09
2.9442865e-11
5.0053377e-09
2.9164113e-11
4.9764137e-09
2.8924036e-11
4.9477605e-09
2.8653217e-11
4.9193394e-09
2.8421095e-11
4.891181e-09
2.815834e-11
4.8632472e-09
2.7933835e-11
4.8355679e-09
2.7679287e-11
4.8081066e-09
2.746134e-11
4.7808914e-09
2.7215184e-11
4.7538878e-09
2.7003622e-11
4.7271214e-09
2.6766408e-11
4.7005616e-09
2.6559818e-11
4.6742296e-09
2.6331981e-11
4.6480995e-09
2.6130062e-11
4.622187e-09
2.5912493e-11
4.5964734e-09
2.5713679e-11
4.5709661e-09
2.5507309e-11
4.5456553e-09
2.5310785e-11
4.5205383e-09
2.5117028e-11
4.4956172e-09
2.4921082e-11
4.4708757e-09
2.4741482e-11
4.446331e-09
2.4544652e-11
4.4219495e-09
2.4381495e-11
4.397768e-09
2.4181579e-11
4.3737305e-09
2.4037435e-11
4.3498983e-09
2.3832193e-11
4.3261877e-09
2.3710593e-11
4.3026908e-09
2.3496925e-11
4.2792886e-09
2.3402235e-11
4.2561119e-09
2.3176701e-11
4.2329973e-09
2.3114583e-11
4.2101247e-09
2.2872609e-11
4.1872742e-09
2.2850494e-11
4.1646876e-09
2.2586647e-11
4.1420732e-09
2.2614306e-11
4.1197517e-09
2.2321525e-11
4.0973394e-09
2.2412309e-11
4.0752578e-09
2.2081632e-11
4.0530036e-09
2.2254186e-11
4.0311298e-09
2.1873822e-11
4.0089743e-09
2.2155454e-11
3.9872651e-09
2.17092e-11
3.9651232e-09
2.2141895e-11
3.9435199e-09
2.1603355e-11
3.9212693e-09
2.225055e-11
3.8997242e-09
2.1545122e-11
2.3497891e-11
8.587168e-08
2.6012979e-09
-8.5537806e-08
8.6010535e-08
3.8088027e-09
8.565849e-08
4.5135634e-09
8.502486e-08
4.7432271e-09
8.4251396e-08
4.84105e-09
8.335629e-08
4.9644376e-09
8.2299412e-08
5.1359124e-09
8.1057837e-08
5.3107844e-09
7.9636824e-08
5.4405378e-09
7.8057142e-08
5.5003927e-09
7.6344121e-08
5.4820335e-09
7.4525197e-08
5.381111e-09
7.262777e-08
5.1922149e-09
7.068095e-08
4.9176442e-09
6.8719668e-08
4.5675447e-09
6.6777506e-08
4.1559106e-09
6.4886911e-08
3.7093015e-09
6.3074968e-08
3.2605685e-09
6.1359416e-08
2.8407521e-09
5.9747421e-08
2.471271e-09
5.8237737e-08
2.1619901e-09
5.6824513e-08
1.9124637e-09
5.5499755e-08
1.7165807e-09
5.4252907e-08
1.5677484e-09
5.3077043e-08
1.4523307e-09
5.1965646e-08
1.3622943e-09
5.0911014e-08
1.293276e-09
4.9906499e-08
1.2392401e-09
4.8946689e-08
1.1948628e-09
4.8027356e-08
1.1561342e-09
4.7145254e-08
1.1203408e-09
4.6297847e-08
1.0858902e-09
4.5483136e-08
1.0518941e-09
4.4699476e-08
1.0179983e-09
4.394549e-08
9.8410765e-10
4.3219944e-08
9.5035536e-10
4.2521701e-08
9.1691701e-10
4.1849653e-08
8.8405121e-10
4.1202714e-08
8.5195819e-10
4.0579782e-08
8.208624e-10
3.9979763e-08
7.908933e-10
3.940155e-08
7.6219259e-10
3.8844053e-08
7.3480335e-10
3.8306183e-08
7.0879043e-10
3.7786894e-08
6.8412909e-10
3.7285154e-08
6.6082696e-10
3.6799993e-08
6.3881196e-10
3.6330467e-08
6.1806679e-10
3.5875697e-08
5.9849927e-10
3.543484e-08
5.8007538e-10
3.5007121e-08
5.6269152e-10
3.4591801e-08
5.4631045e-10
3.418821e-08
5.3082763e-10
3.379571e-08
5.1620977e-10
3.3413726e-08
5.0235676e-10
3.3041713e-08
4.892429e-10
3.2679183e-08
4.7677501e-10
3.2325667e-08
4.6493663e-10
3.1980752e-08
4.5364272e-10
3.1644038e-08
4.4288607e-10
3.131517e-08
4.3258975e-10
3.0993805e-08
4.2275508e-10
3.0679638e-08
4.1331246e-10
3.037237e-08
4.0427054e-10
3.0071737e-08
3.9556602e-10
2.9777477e-08
3.8721344e-10
2.9489357e-08
3.7915466e-10
2.9207146e-08
3.7140866e-10
2.8930637e-08
3.6392163e-10
2.8659621e-08
3.5671556e-10
2.8393916e-08
3.4974014e-10
2.8133333e-08
3.4301934e-10
2.7877705e-08
3.3650581e-10
2.7626863e-08
3.3022445e-10
2.7380654e-08
3.2413062e-10
2.7138925e-08
3.1824936e-10
2.6901537e-08
3.1253864e-10
2.6668348e-08
3.0702293e-10
2.6439232e-08
3.0166291e-10
2.621406e-08
2.9648192e-10
2.5992716e-08
2.9144351e-10
2.5775081e-08
2.8656932e-10
2.5561049e-08
2.8182615e-10
2.5350512e-08
2.772335e-10
2.514337e-08
2.727617e-10
2.4939527e-08
2.6842754e-10
2.4738889e-08
2.6420539e-10
2.4541369e-08
2.6010878e-10
2.4346878e-08
2.5611657e-10
2.415534e-08
2.5223849e-10
2.3966668e-08
2.4845842e-10
2.3780796e-08
2.4478166e-10
2.3597642e-08
2.4119765e-10
2.3417145e-08
2.3770663e-10
2.3239229e-08
2.343042e-10
2.3063839e-08
2.3098485e-10
2.2890901e-08
2.2775096e-10
2.2720368e-08
2.2459052e-10
2.2552168e-08
2.2151343e-10
2.2386262e-08
2.1850036e-10
2.2222577e-08
2.1556946e-10
2.2061082e-08
2.1269327e-10
2.1901703e-08
2.0989898e-10
2.1744417e-08
2.0715016e-10
2.1589151e-08
2.0448379e-10
2.1435888e-08
2.0185358e-10
2.1284552e-08
1.9930726e-10
2.1135136e-08
1.9678767e-10
2.0987561e-08
1.9435421e-10
2.0841828e-08
1.9193787e-10
2.0697854e-08
1.8961072e-10
2.0555649e-08
1.8729082e-10
2.0415128e-08
1.8506398e-10
2.0276307e-08
1.8283426e-10
2.0139097e-08
1.8070227e-10
2.0003523e-08
1.785569e-10
1.9869492e-08
1.7651476e-10
1.9737038e-08
1.7444833e-10
1.9606061e-08
1.7249144e-10
1.9476605e-08
1.7049893e-10
1.9348565e-08
1.686231e-10
1.9221993e-08
1.6669982e-10
1.9096778e-08
1.6490124e-10
1.8972983e-08
1.6304282e-10
1.8850488e-08
1.6131792e-10
1.8729367e-08
1.5952023e-10
1.8609492e-08
1.5786577e-10
1.8490949e-08
1.5612495e-10
1.83736e-08
1.5453799e-10
1.8257543e-08
1.5285046e-10
1.8142631e-08
1.5132832e-10
1.8028972e-08
1.4969068e-10
1.7916411e-08
1.4823086e-10
1.7805069e-08
1.4663988e-10
1.7694778e-08
1.452401e-10
1.7585673e-08
1.4369279e-10
1.7477575e-08
1.4235102e-10
1.7370634e-08
1.4084453e-10
1.7264655e-08
1.3955887e-10
1.7159805e-08
1.3809046e-10
1.7055875e-08
1.3685917e-10
1.6953048e-08
1.3542634e-10
1.68511e-08
1.3424788e-10
1.6750231e-08
1.3284827e-10
1.6650201e-08
1.3172122e-10
1.6551228e-08
1.3035248e-10
1.6453054e-08
1.2927553e-10
1.6355917e-08
1.2793556e-10
1.6259541e-08
1.2690753e-10
1.6164183e-08
1.255944e-10
1.6069547e-08
1.2461412e-10
1.5975913e-08
1.2332579e-10
1.5882963e-08
1.2239243e-10
1.5791e-08
1.2112744e-10
1.5699684e-08
1.2023997e-10
1.5609341e-08
1.1899647e-10
1.5519608e-08
1.1815393e-10
1.5430835e-08
1.1693083e-10
1.5342636e-08
1.1613285e-10
1.5255387e-08
1.1492873e-10
1.5168675e-08
1.1417367e-10
1.5082902e-08
1.1298763e-10
1.499763e-08
1.1227583e-10
1.4913289e-08
1.1110718e-10
1.4829413e-08
1.1043648e-10
1.474646e-08
1.0928478e-10
1.4663934e-08
1.086556e-10
1.4582326e-08
1.0752085e-10
1.4501109e-08
1.0693104e-10
1.4420802e-08
1.0581368e-10
1.434085e-08
1.0526296e-10
1.4261803e-08
1.0416412e-10
1.4183074e-08
1.0365039e-10
1.4105243e-08
1.025717e-10
1.4027694e-08
1.0209376e-10
1.3951038e-08
1.0103823e-10
1.3874626e-08
1.0059344e-10
1.3799098e-08
9.9564871e-11
1.372378e-08
9.915088e-11
1.3649335e-08
9.8155093e-11
1.3575064e-08
9.7767999e-11
1.3501653e-08
9.6812892e-11
1.3428382e-08
9.6448423e-11
1.3355951e-08
9.5544877e-11
1.3283627e-08
9.5196805e-11
1.3212118e-08
9.4360133e-11
1.3140683e-08
9.4020893e-11
1.3070025e-08
9.3272234e-11
1.2999415e-08
9.2931513e-11
1.2929527e-08
9.230117e-11
1.2859662e-08
9.1945664e-11
1.2790439e-08
9.1477603e-11
1.2721223e-08
9.1089896e-11
1.2652528e-08
9.0850296e-11
1.258383e-08
9.0407701e-11
1.2515472e-08
9.0499248e-11
1.2447111e-08
8.9964625e-11
1.2378809e-08
9.0553042e-11
1.2310598e-08
8.9756018e-11
9.3650703e-11
8.9435439e-08
2.5349906e-09
-8.9369132e-08
8.9793498e-08
3.4507439e-09
9.0036409e-08
4.2706521e-09
9.011208e-08
4.6675564e-09
9.0122053e-08
4.8310766e-09
9.0118823e-08
4.9676682e-09
9.0103278e-08
5.1514575e-09
9.0044686e-08
5.369376e-09
8.9918738e-08
5.5664859e-09
8.9714113e-08
5.7050172e-09
8.9426742e-08
5.7694052e-09
8.9054633e-08
5.7532201e-09
8.8593629e-08
5.6532183e-09
8.8042618e-08
5.4686549e-09
8.7406611e-08
5.203552e-09
8.6693197e-08
4.8693249e-09
8.5915332e-08
4.4871664e-09
8.5090133e-08
4.0857673e-09
8.4235491e-08
3.6953941e-09
8.3366177e-08
3.3405849e-09
8.2492386e-08
3.0357817e-09
8.1619853e-08
2.7849961e-09
8.0751268e-08
2.5851657e-09
7.988931e-08
2.4297065e-09
7.9033686e-08
2.3079548e-09
7.8184066e-08
2.2119149e-09
7.7340678e-08
2.1366636e-09
7.6502994e-08
2.0769247e-09
7.5670383e-08
2.0274737e-09
7.4842451e-08
1.984066e-09
7.4019158e-08
1.9436336e-09
7.3200763e-08
1.9042856e-09
7.2387757e-08
1.8649003e-09
7.1580777e-08
1.8249775e-09
7.0780565e-08
1.7843203e-09
6.9987894e-08
1.7430259e-09
6.9203549e-08
1.7012623e-09
6.8428271e-08
1.6593297e-09
6.7662748e-08
1.6174804e-09
6.6907589e-08
1.5760215e-09
6.6163323e-08
1.53516e-09
6.5430383e-08
1.4951324e-09
6.4709124e-08
1.4560621e-09
6.3999811e-08
1.4181031e-09
6.3302637e-08
1.3813037e-09
6.2617718e-08
1.3457458e-09
6.1945116e-08
1.3114138e-09
6.1284828e-08
1.2783544e-09
6.0636807e-08
1.24652e-09
6.0000959e-08
1.2159238e-09
5.9377156e-08
1.1864947e-09
5.8765236e-08
1.1582297e-09
5.8165017e-08
1.1310467e-09
5.7576291e-08
1.1049354e-09
5.6998838e-08
1.0798103e-09
5.6432421e-08
1.0556596e-09
5.5876798e-08
1.0323987e-09
5.5331717e-08
1.0100176e-09
5.4796923e-08
9.8843603e-10
5.4272162e-08
9.6764701e-10
5.3757176e-08
9.4757631e-10
5.3251711e-08
9.2822032e-10
5.2755512e-08
9.0951135e-10
5.2268333e-08
8.9144894e-10
5.1789927e-08
8.7397205e-10
5.1320059e-08
8.5708235e-10
5.0858488e-08
8.4072535e-10
5.0404993e-08
8.2490362e-10
4.9959345e-08
8.0956931e-10
4.9521336e-08
7.9472449e-10
4.9090748e-08
7.8032775e-10
4.8667388e-08
7.6637973e-10
4.8251048e-08
7.5284548e-10
4.784155e-08
7.3972283e-10
4.7438697e-08
7.2698372e-10
4.7042324e-08
7.1462213e-10
4.6652245e-08
7.0261731e-10
4.626831e-08
6.9095822e-10
4.589034e-08
6.7963213e-10
4.55182e-08
6.6862197e-10
4.515172e-08
6.5792373e-10
4.4790776e-08
6.4751314e-10
4.4435206e-08
6.3739594e-10
4.40849e-08
6.2753971e-10
4.3739701e-08
6.1796075e-10
4.3399512e-08
6.0861722e-10
4.306418e-08
5.9953724e-10
4.273362e-08
5.9066824e-10
4.2407685e-08
5.8205134e-10
4.2086302e-08
5.7362192e-10
4.1769325e-08
5.6543538e-10
4.1456693e-08
5.5741359e-10
4.1148263e-08
5.4962762e-10
4.0843986e-08
5.4198427e-10
4.0543718e-08
5.3457178e-10
4.0247423e-08
5.2728023e-10
3.9954957e-08
5.202166e-10
3.9666295e-08
5.1325245e-10
3.9381293e-08
5.0651528e-10
3.9099937e-08
4.9985623e-10
3.8822082e-08
4.9342513e-10
3.8547724e-08
4.8705068e-10
3.8276716e-08
4.8090709e-10
3.8009068e-08
4.7479843e-10
3.7744626e-08
4.6892536e-10
3.7483415e-08
4.6306511e-10
3.7225275e-08
4.574471e-10
3.6970244e-08
4.5181918e-10
3.6718156e-08
4.4644201e-10
3.6469062e-08
4.4103153e-10
3.6222791e-08
4.3588218e-10
3.5979406e-08
4.3067528e-10
3.5738728e-08
4.2574181e-10
3.5500837e-08
4.2072561e-10
3.5265542e-08
4.1599712e-10
3.5032939e-08
4.1115957e-10
3.4802828e-08
4.0662604e-10
3.4575321e-08
4.0195589e-10
3.4350204e-08
3.9760813e-10
3.4127608e-08
3.9309483e-10
3.3907307e-08
3.8892447e-10
3.3689448e-08
3.845581e-10
3.3473792e-08
3.8055748e-10
3.3260506e-08
3.7632873e-10
3.3049333e-08
3.7249079e-10
3.2840463e-08
3.6839079e-10
3.263362e-08
3.6470906e-10
3.2429015e-08
3.6072945e-10
3.2226355e-08
3.5719816e-10
3.2025874e-08
3.5333109e-10
3.1827258e-08
3.49945e-10
3.1630765e-08
3.4618291e-10
3.1436059e-08
3.429372e-10
3.1243426e-08
3.3927288e-10
3.1052503e-08
3.361632e-10
3.0863606e-08
3.3258983e-10
3.0676344e-08
3.2961241e-10
3.0491066e-08
3.2612342e-10
3.030735e-08
3.2327482e-10
3.0125576e-08
3.198638e-10
2.9945294e-08
3.1714098e-10
2.9766919e-08
3.138019e-10
2.9589965e-08
3.1120231e-10
2.9414883e-08
3.0792937e-10
2.9241154e-08
3.0545073e-10
2.9069268e-08
3.0223807e-10
2.8898665e-08
2.9987854e-10
2.872988e-08
2.9672072e-10
2.8562309e-08
2.9447878e-10
2.8396533e-08
2.9137044e-10
2.8231902e-08
2.8924471e-10
2.8069048e-08
2.8618046e-10
2.790727e-08
2.8417047e-10
2.7747252e-08
2.8114557e-10
2.7588241e-08
2.7925041e-10
2.7430978e-08
2.7625943e-10
2.7274653e-08
2.7447898e-10
2.7120066e-08
2.7151779e-10
2.6966346e-08
2.6985257e-10
2.6814359e-08
2.6691592e-10
2.6663168e-08
2.6536523e-10
2.6513706e-08
2.6244916e-10
2.6364967e-08
2.6101522e-10
2.6217959e-08
2.5811523e-10
2.6071598e-08
2.5679709e-10
2.5926973e-08
2.5390959e-10
2.5782919e-08
2.527103e-10
2.5640608e-08
2.4983152e-10
2.5498788e-08
2.487508e-10
2.5358724e-08
2.45878e-10
2.5219068e-08
2.449187e-10
2.5081183e-08
2.4204948e-10
2.4943621e-08
2.4121223e-10
2.4807848e-08
2.3834505e-10
2.4672309e-08
2.3763237e-10
2.453858e-08
2.3476732e-10
2.4404993e-08
2.3418009e-10
2.427324e-08
2.3131842e-10
2.4141532e-08
2.3085862e-10
2.4011683e-08
2.280043e-10
2.3881778e-08
2.2767236e-10
2.3753759e-08
2.2483252e-10
2.3625578e-08
2.2462906e-10
2.3499308e-08
2.2181527e-10
2.3372766e-08
2.2173899e-10
2.3248156e-08
2.1896994e-10
2.3123158e-08
2.1901855e-10
2.3000108e-08
2.163224e-10
2.2876549e-08
2.1649077e-10
2.2754939e-08
2.1391112e-10
2.2632693e-08
2.1419108e-10
2.2512376e-08
2.1179531e-10
2.2391291e-08
2.1217405e-10
2.2272072e-08
2.1006983e-10
2.2151953e-08
2.1052647e-10
2.2033557e-08
2.0889576e-10
2.1914155e-08
2.0936592e-10
2.1796115e-08
2.0859367e-10
2.1677214e-08
2.0865688e-10
2.1335158e-10
9.3192103e-08
2.5359068e-09
-9.319302e-08
9.3413702e-08
3.2291452e-09
9.3696286e-08
3.9880682e-09
9.3899432e-08
4.4644103e-09
9.4024873e-08
4.7056357e-09
9.4140835e-08
4.8517063e-09
9.4286557e-08
5.0057354e-09
9.4457434e-08
5.1984984e-09
9.4634064e-08
5.3898567e-09
9.4798439e-08
5.5406414e-09
9.4939382e-08
5.6284624e-09
9.5049905e-08
5.6426969e-09
9.5120674e-08
5.5824497e-09
9.5142291e-08
5.4470379e-09
9.5107432e-08
5.2384108e-09
9.5010781e-08
4.9659762e-09
9.4851763e-08
4.6461844e-09
9.4635382e-08
4.3021479e-09
9.4371101e-08
3.9596755e-09
9.4069795e-08
3.6418909e-09
9.3741267e-08
3.364309e-09
9.3392642e-08
3.1336212e-09
9.3028926e-08
2.9488822e-09
9.2654109e-08
2.8045234e-09
9.226937e-08
2.6926936e-09
9.1875207e-08
2.6060784e-09
9.1472635e-08
2.5392353e-09
9.1062046e-08
2.4875142e-09
9.0643182e-08
2.4463373e-09
9.0215515e-08
2.4117327e-09
8.9778567e-08
2.3805826e-09
8.9332038e-08
2.3508138e-09
8.8875843e-08
2.3210953e-09
8.8410077e-08
2.2907443e-09
8.7934994e-08
2.259403e-09
8.745098e-08
2.2270396e-09
8.6958525e-08
2.1937175e-09
8.6458193e-08
2.1596621e-09
8.5950598e-08
2.125075e-09
8.5436385e-08
2.0902343e-09
8.4916209e-08
2.0553366e-09
8.4390723e-08
2.0206186e-09
8.3860567e-08
1.9862179e-09
8.3326366e-08
1.9523036e-09
8.2788721e-08
1.9189492e-09
8.2248209e-08
1.8862579e-09
8.1705375e-08
1.8542477e-09
8.1160746e-08
1.8229835e-09
8.0614812e-08
1.7924535e-09
8.0068048e-08
1.7626881e-09
7.9520889e-08
1.733653e-09
7.8973761e-08
1.7053583e-09
7.8427048e-08
1.6777593e-09
7.7881129e-08
1.6508546e-09
7.7336342e-08
1.6245974e-09
7.6793021e-08
1.5989801e-09
7.6251462e-08
1.5739583e-09
7.5711958e-08
1.5495218e-09
7.5174761e-08
1.5256323e-09
7.4640131e-08
1.5022777e-09
7.4108279e-08
1.4794285e-09
7.3579428e-08
1.4570705e-09
7.3053756e-08
1.4351839e-09
7.2531453e-08
1.4137519e-09
7.201266e-08
1.3927647e-09
7.1497541e-08
1.3722017e-09
7.0986203e-08
1.3520635e-09
7.0478783e-08
1.3323235e-09
6.9975359e-08
1.3129934e-09
6.9476044e-08
1.2940389e-09
6.8980889e-08
1.275483e-09
6.8489987e-08
1.2572819e-09
6.8003361e-08
1.2394706e-09
6.752109e-08
1.2219941e-09
6.7043173e-08
1.2049003e-09
6.6569674e-08
1.1881211e-09
6.6100573e-08
1.1717186e-09
6.5635921e-08
1.1556101e-09
6.517568e-08
1.1398731e-09
6.4719894e-08
1.1244085e-09
6.4268506e-08
1.1093111e-09
6.3821556e-08
1.0944632e-09
6.3378973e-08
1.0799792e-09
6.2940791e-08
1.0657211e-09
6.2506928e-08
1.0518244e-09
6.2077416e-08
1.038129e-09
6.1652159e-08
1.0247938e-09
6.1231194e-08
1.0116342e-09
6.081441e-08
9.9883512e-10
6.0401847e-08
9.8618503e-10
5.9993385e-08
9.7389744e-10
5.9589067e-08
9.6173132e-10
5.9188763e-08
9.4993146e-10
5.8792523e-08
9.3822459e-10
5.8400205e-08
9.2688977e-10
5.8011867e-08
9.1561844e-10
5.7627356e-08
9.0472706e-10
5.724674e-08
8.9386852e-10
5.6869855e-08
8.8340014e-10
5.6496779e-08
8.7293273e-10
5.6127336e-08
8.6286804e-10
5.5761615e-08
8.5277108e-10
5.5399431e-08
8.4309194e-10
5.5040883e-08
8.333458e-10
5.4685773e-08
8.2403512e-10
5.4334218e-08
8.1462103e-10
5.3986002e-08
8.0566287e-10
5.3641258e-08
7.9656297e-10
5.3299758e-08
7.8794234e-10
5.296165e-08
7.7913965e-10
5.2626689e-08
7.7084251e-10
5.2295044e-08
7.6232077e-10
5.1966451e-08
7.5433405e-10
5.1641099e-08
7.4607782e-10
5.1318707e-08
7.3838943e-10
5.0999483e-08
7.3038391e-10
5.0683126e-08
7.2298257e-10
5.0369868e-08
7.1521363e-10
5.0059388e-08
7.0808891e-10
4.9751939e-08
7.0054303e-10
4.9447178e-08
6.9368531e-10
4.9145387e-08
6.8634953e-10
4.8846195e-08
6.7975001e-10
4.8549911e-08
6.7261188e-10
4.825614e-08
6.6626238e-10
4.7965221e-08
6.5930983e-10
4.7676727e-08
6.5320288e-10
4.7391032e-08
6.4642429e-10
4.7107677e-08
6.4055323e-10
4.6827071e-08
6.3393748e-10
4.6548719e-08
6.2829637e-10
4.627307e-08
6.2183256e-10
4.5999591e-08
6.1641592e-10
4.572877e-08
6.1009343e-10
4.5460037e-08
6.0489647e-10
4.5193922e-08
5.9870504e-10
4.492981e-08
5.9372376e-10
4.4668281e-08
5.8765333e-10
4.4408671e-08
5.8288417e-10
4.415161e-08
5.7692476e-10
4.3896386e-08
5.7236477e-10
4.3643682e-08
5.6650673e-10
4.339273e-08
5.6215374e-10
4.3144272e-08
5.5638758e-10
4.2897483e-08
5.5223986e-10
4.2653165e-08
5.4655583e-10
4.2410431e-08
5.426123e-10
4.2170151e-08
5.3700114e-10
4.1931368e-08
5.3326141e-10
4.1695025e-08
5.2771367e-10
4.1460092e-08
5.241775e-10
4.1227589e-08
5.1868361e-10
4.0996407e-08
5.153525e-10
4.0767649e-08
5.0990358e-10
4.0540121e-08
5.0677821e-10
4.0315017e-08
5.01364e-10
4.0091049e-08
4.9844683e-10
3.9869508e-08
4.9305915e-10
3.9649007e-08
4.9035329e-10
3.9430942e-08
4.8498134e-10
3.9213818e-08
4.8248898e-10
3.8999142e-08
4.7712453e-10
3.8785306e-08
4.7485177e-10
3.8573937e-08
4.6948438e-10
3.83633e-08
4.6743377e-10
3.8155155e-08
4.6205505e-10
3.794763e-08
4.6023462e-10
3.7742627e-08
4.5483466e-10
3.7538129e-08
4.5324863e-10
3.7336188e-08
4.4781933e-10
3.713463e-08
4.464766e-10
3.693567e-08
4.4100929e-10
3.6736966e-08
4.3991631e-10
3.6540908e-08
4.3440367e-10
3.634497e-08
4.3357009e-10
3.6151731e-08
4.2800614e-10
3.5958471e-08
4.2744017e-10
3.5767969e-08
4.218205e-10
3.5577295e-08
4.2153247e-10
3.5389444e-08
4.1585576e-10
3.5201261e-08
4.1585488e-10
3.5015969e-08
4.1012413e-10
3.4830178e-08
4.1042054e-10
3.4647349e-08
4.0464462e-10
3.4463841e-08
4.052469e-10
3.4283366e-08
3.994449e-10
3.4102023e-08
4.003609e-10
3.392378e-08
3.9456589e-10
3.3744471e-08
3.9580002e-10
3.3568313e-08
3.9006892e-10
3.3390883e-08
3.9162074e-10
3.321663e-08
3.8604889e-10
3.3040896e-08
3.8790762e-10
3.2868306e-08
3.8266032e-10
3.2694043e-08
3.8478867e-10
3.2522763e-08
3.8017641e-10
3.2349712e-08
3.8241633e-10
3.2179115e-08
3.7919053e-10
3.2006971e-08
3.8080111e-10
3.8494083e-10
9.7108679e-08
2.5414164e-09
-9.7114189e-08
9.7236698e-08
3.1011262e-09
9.7480598e-08
3.744168e-09
9.7711601e-08
4.2334074e-09
9.7878992e-08
4.5382447e-09
9.8013285e-08
4.7174137e-09
9.8163866e-08
4.8551543e-09
9.8349417e-08
5.0129471e-09
9.8559568e-08
5.1797064e-09
9.8778997e-08
5.3212117e-09
9.8995302e-08
5.4121575e-09
9.9199878e-08
5.4381208e-09
9.9386168e-08
5.3961598e-09
9.9546972e-08
5.2862342e-09
9.9674382e-08
5.1110002e-09
9.9761588e-08
4.8787701e-09
9.9804707e-08
4.603066e-09
9.9804055e-08
4.3027999e-09
9.9764353e-08
3.9993777e-09
9.9693181e-08
3.7130626e-09
9.959859e-08
3.4588998e-09
9.9487359e-08
3.244852e-09
9.9364596e-08
3.0716461e-09
9.9233835e-08
2.9352842e-09
9.9096758e-08
2.8297705e-09
9.8954155e-08
2.7486818e-09
9.880687e-08
2.6865201e-09
9.8655417e-08
2.6389664e-09
9.8499651e-08
2.6021034e-09
9.8338923e-08
2.5724607e-09
9.817238e-08
2.5471254e-09
9.7999195e-08
2.5239993e-09
9.7818648e-08
2.5016425e-09
9.7630163e-08
2.4792296e-09
9.7433288e-08
2.4562781e-09
9.7227703e-08
2.4326239e-09
9.7013192e-08
2.4082286e-09
9.6789646e-08
2.3832086e-09
9.6557025e-08
2.3576954e-09
9.6315373e-08
2.3318866e-09
9.6064769e-08
2.3059408e-09
9.5805349e-08
2.2800381e-09
9.5537264e-08
2.2543032e-09
9.5260704e-08
2.2288635e-09
9.4975859e-08
2.2037948e-09
9.4682949e-08
2.179168e-09
9.4382179e-08
2.155017e-09
9.4073791e-08
2.1313722e-09
9.3758e-08
2.1082437e-09
9.343506e-08
2.0856288e-09
9.3105191e-08
2.0635214e-09
9.2768655e-08
2.041895e-09
9.2425675e-08
2.0207385e-09
9.207652e-08
2.0000099e-09
9.1721416e-08
1.9797014e-09
9.1360636e-08
1.9597604e-09
9.0994407e-08
1.9401875e-09
9.0623006e-08
1.9209222e-09
9.024666e-08
1.9019782e-09
8.986565e-08
1.8832876e-09
8.9480199e-08
1.8648799e-09
8.909059e-08
1.8466795e-09
8.869704e-08
1.8287336e-09
8.8299835e-08
1.8109576e-09
8.7899182e-08
1.7934173e-09
8.7495366e-08
1.7760174e-09
8.7088587e-08
1.7588433e-09
8.6679124e-08
1.7417861e-09
8.6267165e-08
1.7249524e-09
8.5852987e-08
1.7082167e-09
8.5436762e-08
1.6917076e-09
8.5018763e-08
1.6752809e-09
8.4599146e-08
1.6590882e-09
8.4178176e-08
1.6429637e-09
8.3755992e-08
1.6270839e-09
8.3332855e-08
1.6112584e-09
8.2908883e-08
1.5956908e-09
8.248433e-08
1.5801632e-09
8.2059294e-08
1.5649083e-09
8.1634025e-08
1.549678e-09
8.1208599e-08
1.5347372e-09
8.0783258e-08
1.5198036e-09
8.035806e-08
1.5051776e-09
7.9933241e-08
1.4905402e-09
7.9508835e-08
1.4762298e-09
7.9085077e-08
1.4618873e-09
7.8661978e-08
1.4478927e-09
7.8239769e-08
1.4338432e-09
7.781844e-08
1.4201644e-09
7.7398219e-08
1.4064054e-09
7.6979075e-08
1.3930418e-09
7.6561236e-08
1.3795704e-09
7.6144646e-08
1.3665211e-09
7.5729537e-08
1.3533338e-09
7.531583e-08
1.3405975e-09
7.4903758e-08
1.3276903e-09
7.4493219e-08
1.3152654e-09
7.4084454e-08
1.3026338e-09
7.3677336e-08
1.2905185e-09
7.3272111e-08
1.2781576e-09
7.2868629e-08
1.2663497e-09
7.2467146e-08
1.254254e-09
7.2067487e-08
1.2427511e-09
7.1669918e-08
1.2309148e-09
7.1274239e-08
1.2197142e-09
7.0880729e-08
1.2081309e-09
7.0489162e-08
1.1972299e-09
7.0099833e-08
1.1858927e-09
6.9712487e-08
1.1752883e-09
6.9327436e-08
1.1641901e-09
6.89444e-08
1.1538791e-09
6.8563708e-08
1.1430123e-09
6.8185051e-08
1.1329914e-09
6.7808781e-08
1.1223481e-09
6.7434556e-08
1.1126144e-09
6.7062753e-08
1.1021864e-09
6.6692999e-08
1.0927367e-09
6.6325697e-08
1.0825154e-09
6.5960439e-08
1.0733468e-09
6.5597659e-08
1.0633235e-09
6.5236911e-08
1.0544331e-09
6.4878661e-08
1.044599e-09
6.4522427e-08
1.0359842e-09
6.4168709e-08
1.0263301e-09
6.3816983e-08
1.0179886e-09
6.3467787e-08
1.0085051e-09
6.3120556e-08
1.0004347e-09
6.2775868e-08
9.9111214e-10
6.243311e-08
9.8331113e-10
6.2092907e-08
9.7414003e-10
6.1754597e-08
9.6660722e-10
6.1418851e-08
9.5757763e-10
6.1084955e-08
9.5031196e-10
6.0753635e-08
9.4141372e-10
6.0424117e-08
9.3441467e-10
6.0097184e-08
9.2563761e-10
5.9772003e-08
9.1890531e-10
5.9449417e-08
9.10239e-10
5.9128527e-08
9.0377393e-10
5.8810245e-08
8.9520753e-10
5.8493599e-08
8.8901075e-10
5.8179572e-08
8.8053342e-10
5.7867119e-08
8.746068e-10
5.7557299e-08
8.6620751e-10
5.7248986e-08
8.6055332e-10
5.6943321e-08
8.5222027e-10
5.6639092e-08
8.4684156e-10
5.633753e-08
8.3856317e-10
5.6037327e-08
8.3346392e-10
5.5739813e-08
8.2522795e-10
5.5443578e-08
8.2041211e-10
5.5150056e-08
8.1220584e-10
5.4857729e-08
8.0767986e-10
5.4568141e-08
7.9949108e-10
5.4279659e-08
7.9526027e-10
5.3993949e-08
7.8707437e-10
5.3709249e-08
7.831465e-10
5.3427357e-08
7.749517e-10
5.3146374e-08
7.7133557e-10
5.286824e-08
7.6311541e-10
5.2590911e-08
7.5981875e-10
5.2316474e-08
7.5156084e-10
5.2042729e-08
7.4859671e-10
5.177193e-08
7.4028408e-10
5.1501702e-08
7.3766126e-10
5.1234477e-08
7.2928043e-10
5.0967696e-08
7.2701503e-10
5.0703982e-08
7.1854895e-10
5.0440578e-08
7.1665265e-10
5.018031e-08
7.0808708e-10
4.9920209e-08
7.0657798e-10
4.9663322e-08
6.9789673e-10
4.9406448e-08
6.967902e-10
4.9152872e-08
6.8797898e-10
4.8899147e-08
6.8729515e-10
4.8648813e-08
6.7834039e-10
4.8398155e-08
6.7809799e-10
4.8150987e-08
6.689883e-10
4.7903311e-08
6.6920933e-10
4.765923e-08
6.5993658e-10
4.7414442e-08
6.6064224e-10
4.7173362e-08
6.5120418e-10
4.6931366e-08
6.5241709e-10
4.6693191e-08
6.4281909e-10
4.6453878e-08
6.4456021e-10
4.6218501e-08
6.34822e-10
4.5981751e-08
6.3711071e-10
4.5749045e-08
6.272722e-10
4.5514723e-08
6.30122e-10
4.5284533e-08
6.2025851e-10
4.5052482e-08
6.2367241e-10
4.4824612e-08
6.1391859e-10
4.4594644e-08
6.1787594e-10
4.4368826e-08
6.0847798e-10
4.4140716e-08
6.1289863e-10
4.3916552e-08
6.0434004e-10
4.3690037e-08
6.0893194e-10
4.3466843e-08
6.0238469e-10
4.3241451e-08
6.0619225e-10
6.0833938e-10
1.0116438e-07
2.5422265e-09
-1.0116519e-07
1.0124995e-07
3.0155508e-09
1.014451e-07
3.5490262e-09
1.0166482e-07
4.0136839e-09
1.0185434e-07
4.3487203e-09
1.0200809e-07
4.5636664e-09
1.021578e-07
4.7054421e-09
1.0233121e-07
4.8395404e-09
1.0253156e-07
4.9793548e-09
1.0274773e-07
5.1050402e-09
1.0296683e-07
5.1930633e-09
1.0317857e-07
5.2263732e-09
1.0337691e-07
5.1978205e-09
1.035564e-07
5.1067435e-09
1.0371081e-07
4.956595e-09
1.0383464e-07
4.754942e-09
1.0392408e-07
4.5136287e-09
1.0397845e-07
4.2484262e-09
1.0400069e-07
3.9771353e-09
1.0399665e-07
3.7170991e-09
1.0397334e-07
3.4822126e-09
1.0393729e-07
3.2809002e-09
1.0389352e-07
3.1154175e-09
1.0384537e-07
2.9834335e-09
1.0379489e-07
2.8802502e-09
1.0374325e-07
2.8003244e-09
1.0369129e-07
2.7384791e-09
1.0363965e-07
2.6906043e-09
1.0358848e-07
2.6532792e-09
1.0353742e-07
2.6235239e-09
1.0348577e-07
2.5987661e-09
1.0343278e-07
2.5769922e-09
1.0337766e-07
2.5567594e-09
1.0331975e-07
2.5371397e-09
1.0325844e-07
2.5175887e-09
1.0319324e-07
2.4978282e-09
1.031237e-07
2.4777679e-09
1.0304949e-07
2.4574189e-09
1.0297031e-07
2.4368802e-09
1.0288593e-07
2.4162584e-09
1.0279617e-07
2.3957037e-09
1.0270089e-07
2.3753199e-09
1.0259995e-07
2.3552446e-09
1.0249327e-07
2.3355387e-09
1.0238076e-07
2.3163069e-09
1.0226237e-07
2.2975585e-09
1.0213802e-07
2.2793694e-09
1.0200768e-07