/*--------------------------------*- C++ -*----------------------------------*\
| =========                 |                                                 |
| \\      /  F ield         | OpenFOAM: The Open Source CFD Toolbox           |
|  \\    /   O peration     | Version:  5.x                                   |
|   \\  /    A nd           | Web:      www.OpenFOAM.org                      |
|    \\/     M anipulation  |                                                 |
\*---------------------------------------------------------------------------*/
FoamFile
{
    version     2.0;
    format      ascii;
    class       volVectorField;
    location    "0.7";
    object      U;
}
// * * * * * * * * * * * * * * * * * * * * * * * * * * * * * * * * * * * * * //

dimensions      [0 1 -1 0 0 0 0];

internalField   nonuniform List<vector> 
21600
(
(0.94294644 0.0081606059 0)
(0.8963458 0.01224738 0)
(0.85187886 0.01393772 0)
(0.80676477 0.014109204 0)
(0.76015528 0.013756638 0)
(0.71223627 0.013399852 0)
(0.66362189 0.01313019 0)
(0.61494919 0.012849551 0)
(0.56676143 0.01244047 0)
(0.51957105 0.011837292 0)
(0.47390397 0.011016753 0)
(0.43037273 0.009983414 0)
(0.38963873 0.0087433738 0)
(0.3524925 0.0073249413 0)
(0.31952773 0.0057452122 0)
(0.29119791 0.0040869569 0)
(0.26765613 0.0025018873 0)
(0.24869344 0.0011532313 0)
(0.23379447 0.00014786238 0)
(0.22229005 -0.00049796987 0)
(0.21349565 -0.00084260223 0)
(0.20676531 -0.00097222973 0)
(0.20154366 -0.00096262494 0)
(0.19735457 -0.00086240857 0)
(0.19383942 -0.00071197271 0)
(0.19073683 -0.00054484045 0)
(0.18785598 -0.0003825446 0)
(0.18506756 -0.00023863581 0)
(0.18229974 -0.00011993273 0)
(0.17951781 -2.7491303e-05 0)
(0.17671681 4.1109349e-05 0)
(0.17390404 8.9787136e-05 0)
(0.17109774 0.00012261494 0)
(0.16831463 0.00014336942 0)
(0.16557402 0.00015521356 0)
(0.16288863 0.00016075311 0)
(0.16027192 0.00016195782 0)
(0.15772979 0.00016034624 0)
(0.15526948 0.00015696067 0)
(0.15289114 0.00015257156 0)
(0.15059757 0.00014764192 0)
(0.14838512 0.0001425163 0)
(0.1462541 0.00013735622 0)
(0.14419879 0.00013230494 0)
(0.14221848 0.00012739339 0)
(0.14030651 0.00012268011 0)
(0.13846208 0.00011814147 0)
(0.13667827 0.00011381672 0)
(0.13495463 0.0001096746 0)
(0.13328426 0.00010574674 0)
(0.1316673 0.00010199502 0)
(0.13009702 9.844831e-05 0)
(0.12857427 9.506468e-05 0)
(0.12709246 9.1870826e-05 0)
(0.12565318 8.8821722e-05 0)
(0.12424998 8.5943224e-05 0)
(0.12288511 8.3188898e-05 0)
(0.12155223 8.0585251e-05 0)
(0.12025423 7.8085747e-05 0)
(0.11898476 7.5718455e-05 0)
(0.11774733 7.3437461e-05 0)
(0.11653549 7.1272783e-05 0)
(0.11535335 6.9179415e-05 0)
(0.11419429 6.7189345e-05 0)
(0.11306297 6.5258478e-05 0)
(0.11195255 6.3420572e-05 0)
(0.11086822 6.1632296e-05 0)
(0.10980284 5.9928877e-05 0)
(0.10876216 5.8267547e-05 0)
(0.10773867 5.6684685e-05 0)
(0.10673867 5.5137889e-05 0)
(0.10575424 5.3664393e-05 0)
(0.10479225 5.2222016e-05 0)
(0.10384434 5.0848598e-05 0)
(0.10291795 4.9502089e-05 0)
(0.10200423 4.8220742e-05 0)
(0.10111123 4.6962597e-05 0)
(0.10022956 4.5766176e-05 0)
(0.099367935 4.4589611e-05 0)
(0.098516357 4.3471574e-05 0)
(0.097684242 4.2370298e-05 0)
(0.096860952 4.132453e-05 0)
(0.096056638 4.0292732e-05 0)
(0.095259972 3.931366e-05 0)
(0.09448189 3.834599e-05 0)
(0.093710314 3.7428394e-05 0)
(0.092957019 3.6519843e-05 0)
(0.09220912 3.5658877e-05 0)
(0.091479286 3.4804834e-05 0)
(0.090753758 3.3996058e-05 0)
(0.090046164 3.3192314e-05 0)
(0.089341802 3.2431683e-05 0)
(0.088655324 3.1674409e-05 0)
(0.087971012 3.0958247e-05 0)
(0.087304616 3.024397e-05 0)
(0.086639319 2.9568949e-05 0)
(0.085992048 2.8894532e-05 0)
(0.085344803 2.8257645e-05 0)
(0.084715774 2.7620245e-05 0)
(0.084085683 2.7018754e-05 0)
(0.083474079 2.6415785e-05 0)
(0.082860304 2.5847208e-05 0)
(0.082265364 2.5276326e-05 0)
(0.081667119 2.4738413e-05 0)
(0.081088141 2.4197478e-05 0)
(0.080504687 2.3688164e-05 0)
(0.079941016 2.317521e-05 0)
(0.079371658 2.2692607e-05 0)
(0.078822686 2.2205837e-05 0)
(0.078266768 2.1748218e-05 0)
(0.077731929 2.1285974e-05 0)
(0.077188829 2.0851738e-05 0)
(0.076667597 2.0412483e-05 0)
(0.076136726 2.000017e-05 0)
(0.075628612 1.9582497e-05 0)
(0.075109411 1.9190764e-05 0)
(0.07461396 1.8793352e-05 0)
(0.074105894 1.8420945e-05 0)
(0.073622684 1.8042576e-05 0)
(0.073125242 1.7688355e-05 0)
(0.072653881 1.7327903e-05 0)
(0.072166576 1.6990811e-05 0)
(0.0717067 1.6647218e-05 0)
(0.071229061 1.6326284e-05 0)
(0.070780336 1.5998556e-05 0)
(0.070311908 1.5692878e-05 0)
(0.069874024 1.5380081e-05 0)
(0.069414371 1.508883e-05 0)
(0.068987045 1.4790095e-05 0)
(0.06853574 1.4512518e-05 0)
(0.068118711 1.4227034e-05 0)
(0.067675341 1.3962434e-05 0)
(0.067268374 1.3689416e-05 0)
(0.066832533 1.3437155e-05 0)
(0.066435414 1.3175858e-05 0)
(0.066006705 1.293536e-05 0)
(0.065619244 1.2685086e-05 0)
(0.065197275 1.2455823e-05 0)
(0.064819304 1.2215901e-05 0)
(0.064403688 1.1997391e-05 0)
(0.064035061 1.1767158e-05 0)
(0.063625411 1.1558986e-05 0)
(0.063266004 1.1337815e-05 0)
(0.062861936 1.1139625e-05 0)
(0.062511648 1.0926913e-05 0)
(0.062112776 1.0738358e-05 0)
(0.061771527 1.0533494e-05 0)
(0.061377461 1.0354302e-05 0)
(0.061045197 1.015669e-05 0)
(0.060655543 9.9866881e-06 0)
(0.060332231 9.7957154e-06 0)
(0.059946587 9.6346419e-06 0)
(0.059632221 9.4497375e-06 0)
(0.059250174 9.297587e-06 0)
(0.058944772 9.118148e-06 0)
(0.0585659 8.9747737e-06 0)
(0.058269508 8.8000938e-06 0)
(0.057893374 8.665564e-06 0)
(0.057606064 8.495195e-06 0)
(0.057232209 8.3695835e-06 0)
(0.056954087 8.2025478e-06 0)
(0.056582039 8.0859417e-06 0)
(0.05631324 7.9219117e-06 0)
(0.055942494 7.8146455e-06 0)
(0.055683187 7.6524354e-06 0)
(0.055313219 7.5547387e-06 0)
(0.055063611 7.3939424e-06 0)
(0.054693857 7.3063297e-06 0)
(0.054454195 7.1457077e-06 0)
(0.054084058 7.0686817e-06 0)
(0.05385463 6.9075079e-06 0)
(0.053483467 6.8418435e-06 0)
(0.053264609 6.6788426e-06 0)
(0.052891729 6.6253354e-06 0)
(0.052683827 6.4594132e-06 0)
(0.05230848 6.4192523e-06 0)
(0.052111975 6.2488969e-06 0)
(0.051733345 6.2233439e-06 0)
(0.051548738 6.04706e-06 0)
(0.051165932 6.0378328e-06 0)
(0.050993787 5.8536632e-06 0)
(0.050605822 5.8628037e-06 0)
(0.050446775 5.6686556e-06 0)
(0.050052562 5.6987421e-06 0)
(0.049907325 5.4919398e-06 0)
(0.049505648 5.5462545e-06 0)
(0.049375012 5.3237233e-06 0)
(0.048964503 5.4064552e-06 0)
(0.048849346 5.1643014e-06 0)
(0.048428445 5.281031e-06 0)
(0.048329731 5.0143921e-06 0)
(0.047896631 5.1727396e-06 0)
(0.047815415 4.8752143e-06 0)
(0.047367964 5.0862076e-06 0)
(0.047305405 4.7486917e-06 0)
(0.046840899 5.0296962e-06 0)
(0.046798381 4.6352965e-06 0)
(0.046313029 5.0161171e-06 0)
(0.046293317 4.5317438e-06 0)
(0.045777626 5.4108559e-06 0)
(0.97305516 0.015504764 0)
(0.9718671 0.02270338 0)
(0.9704606 0.026284458 0)
(0.96745978 0.027305082 0)
(0.96185747 0.02731669 0)
(0.95336458 0.027255778 0)
(0.94216347 0.027363242 0)
(0.9285998 0.027518544 0)
(0.91297329 0.027533686 0)
(0.89556179 0.027288145 0)
(0.87658889 0.026719666 0)
(0.85632279 0.025803822 0)
(0.83503781 0.024519989 0)
(0.81312477 0.022864447 0)
(0.79093711 0.020845482 0)
(0.76886952 0.018527181 0)
(0.7472918 0.016041241 0)
(0.72647729 0.013556515 0)
(0.70661088 0.011236764 0)
(0.68777743 0.0091969053 0)
(0.67002597 0.0074892591 0)
(0.65333927 0.0061102046 0)
(0.63769375 0.0050281237 0)
(0.62300613 0.0041978692 0)
(0.60919465 0.0035776571 0)
(0.59617817 0.0031314021 0)
(0.58387026 0.002821019 0)
(0.57218019 0.002608309 0)
(0.56103929 0.0024594166 0)
(0.55038406 0.0023484571 0)
(0.54017419 0.0022576648 0)
(0.53036947 0.0021761766 0)
(0.5209487 0.0020977833 0)
(0.511885 0.0020195656 0)
(0.50316735 0.0019403948 0)
(0.49477477 0.0018604213 0)
(0.48670068 0.0017802209 0)
(0.47892572 0.0017007625 0)
(0.4714448 0.0016228669 0)
(0.4642383 0.0015474114 0)
(0.45730161 0.0014749336 0)
(0.45061433 0.001405956 0)
(0.4441724 0.0013406506 0)
(0.43795485 0.0012792158 0)
(0.43195859 0.0012215519 0)
(0.42616249 0.0011676519 0)
(0.4205649 0.0011172575 0)
(0.41514491 0.001070261 0)
(0.40990259 0.0010263408 0)
(0.40481737 0.00098535715 0)
(0.39989127 0.00094697741 0)
(0.3951041 0.00091107474 0)
(0.39045989 0.00087733751 0)
(0.38593875 0.00084566986 0)
(0.38154673 0.00081579036 0)
(0.37726411 0.0007876372 0)
(0.37309885 0.0007609597 0)
(0.36903122 0.0007357283 0)
(0.36507105 0.00071172047 0)
(0.36119837 0.00068893491 0)
(0.35742481 0.00066717326 0)
(0.35372994 0.00064645762 0)
(0.35012713 0.00062660938 0)
(0.34659533 0.00060766907 0)
(0.3431496 0.00058947373 0)
(0.33976806 0.00057207782 0)
(0.33646747 0.00055533043 0)
(0.33322494 0.0005392961 0)
(0.33005894 0.00052383318 0)
(0.32694546 0.0005090131 0)
(0.32390468 0.0004947014 0)
(0.32091131 0.00048097397 0)
(0.31798732 0.00046770212 0)
(0.31510599 0.0004549643 0)
(0.31229116 0.00044263676 0)
(0.30951455 0.00043079912 0)
(0.30680196 0.00041933214 0)
(0.30412338 0.00040831553 0)
(0.30150671 0.00039763448 0)
(0.29892006 0.00038736797 0)
(0.29639352 0.00037740569 0)
(0.2938932 0.00036782506 0)
(0.29145151 0.00035852063 0)
(0.28903237 0.00034956776 0)
(0.28667068 0.00034086609 0)
(0.28432801 0.00033248832 0)
(0.28204188 0.00032433955 0)
(0.27977132 0.0003164892 0)
(0.27755667 0.00030884824 0)
(0.27535421 0.00030148221 0)
(0.2732073 0.00029430837 0)
(0.27106925 0.00028738777 0)
(0.26898663 0.00028064435 0)
(0.26690956 0.00027413408 0)
(0.26488805 0.000267788 0)
(0.26286878 0.00026165638 0)
(0.26090546 0.00025567779 0)
(0.25894104 0.0002498962 0)
(0.25703319 0.00024425814 0)
(0.25512088 0.00023880067 0)
(0.253266 0.00023347876 0)
(0.25140322 0.00022832193 0)
(0.24959899 0.00022329403 0)
(0.24778335 0.00021841645 0)
(0.24602761 0.00021366243 0)
(0.24425683 0.00020904463 0)
(0.24254759 0.00020454613 0)
(0.24081956 0.00020017029 0)
(0.23915496 0.00019591051 0)
(0.23746766 0.00019176028 0)
(0.23584598 0.00018772384 0)
(0.23419753 0.00018378422 0)
(0.23261716 0.00017995699 0)
(0.23100576 0.00017621418 0)
(0.22946521 0.00017258316 0)
(0.22788915 0.00016902447 0)
(0.22638704 0.00016557771 0)
(0.22484471 0.00016219142 0)
(0.22337975 0.00015891788 0)
(0.22186958 0.00015569315 0)
(0.22044059 0.00015258266 0)
(0.21896109 0.0001495095 0)
(0.21756697 0.00014655266 0)
(0.21611672 0.0001436218 0)
(0.21475644 0.00014080982 0)
(0.21333407 0.00013801265 0)
(0.2120067 0.00013533743 0)
(0.21061087 0.00013266596 0)
(0.20931556 0.00013011998 0)
(0.20794497 0.00012756687 0)
(0.20668093 0.00012514316 0)
(0.20533434 0.00012270152 0)
(0.20410085 0.00012039352 0)
(0.20277702 0.00011805695 0)
(0.20157345 0.00011585856 0)
(0.20027118 0.00011362117 0)
(0.19909694 0.00011152671 0)
(0.19781505 0.00010938298 0)
(0.19666965 0.00010738711 0)
(0.19540695 0.00010533189 0)
(0.19428995 0.00010342958 0)
(0.19304528 0.00010145816 0)
(0.1919563 9.9644688e-05 0)
(0.1907285 9.7752709e-05 0)
(0.18966725 9.6023657e-05 0)
(0.18845514 9.4206968e-05 0)
(0.18742139 9.2558108e-05 0)
(0.18622379 9.0812959e-05 0)
(0.18521737 8.9240276e-05 0)
(0.1840331 8.7563326e-05 0)
(0.18305392 8.6062951e-05 0)
(0.18188176 8.4450806e-05 0)
(0.18092981 8.3019193e-05 0)
(0.17976851 8.1469268e-05 0)
(0.17884385 8.0102857e-05 0)
(0.17769214 7.8612304e-05 0)
(0.17679492 7.7307511e-05 0)
(0.17565147 7.5874275e-05 0)
(0.17478192 7.4628296e-05 0)
(0.17364536 7.3250281e-05 0)
(0.17280381 7.2058979e-05 0)
(0.17167269 7.0734467e-05 0)
(0.17085956 6.9595739e-05 0)
(0.16973238 6.8323551e-05 0)
(0.1689482 6.7232879e-05 0)
(0.16782337 6.6011899e-05 0)
(0.16706877 6.4967239e-05 0)
(0.1659446 6.3797023e-05 0)
(0.16522035 6.2793952e-05 0)
(0.16409504 6.1674327e-05 0)
(0.16340202 6.0710126e-05 0)
(0.16227364 5.9641648e-05 0)
(0.1616129 5.8712031e-05 0)
(0.16047937 5.7695557e-05 0)
(0.15985209 5.679699e-05 0)
(0.15871117 5.5834572e-05 0)
(0.15811871 5.4962333e-05 0)
(0.15696796 5.4056475e-05 0)
(0.15641187 5.320609e-05 0)
(0.15524862 5.2360789e-05 0)
(0.15473065 5.1526526e-05 0)
(0.15355197 5.0747075e-05 0)
(0.15307408 4.9922964e-05 0)
(0.15187675 4.9216571e-05 0)
(0.15144115 4.8395108e-05 0)
(0.15022156 4.7771669e-05 0)
(0.14983071 4.6944391e-05 0)
(0.14858485 4.6417235e-05 0)
(0.1482415 4.5573613e-05 0)
(0.1469648 4.5161391e-05 0)
(0.14667198 4.4288643e-05 0)
(0.14535923 4.4017794e-05 0)
(0.14512028 4.3099859e-05 0)
(0.14376534 4.3009483e-05 0)
(0.14358397 4.2025496e-05 0)
(0.14217932 4.2175137e-05 0)
(0.14205984 4.1095054e-05 0)
(0.14059538 4.1562552e-05 0)
(0.14054448 4.0334791e-05 0)
(0.13900435 4.2868579e-05 0)
(0.97638483 0.015439286 0)
(0.97674504 0.020971323 0)
(0.9786253 0.024704586 0)
(0.98119205 0.026460792 0)
(0.98344801 0.02713321 0)
(0.98482185 0.027563149 0)
(0.98516662 0.028127829 0)
(0.98457224 0.028807887 0)
(0.98315939 0.029430308 0)
(0.98099171 0.029833088 0)
(0.97806028 0.029910094 0)
(0.97431663 0.029594947 0)
(0.96970783 0.0288485 0)
(0.96420028 0.027651834 0)
(0.95780396 0.026028998 0)
(0.95056649 0.024051374 0)
(0.9425985 0.021842994 0)
(0.93401971 0.019559955 0)
(0.92498238 0.017361107 0)
(0.91561631 0.015369339 0)
(0.90606546 0.013654132 0)
(0.89642951 0.012229422 0)
(0.88680841 0.011073644 0)
(0.87724332 0.010144906 0)
(0.86777145 0.0094015131 0)
(0.85840085 0.0088093416 0)
(0.84913104 0.0083352533 0)
(0.83993814 0.0079474804 0)
(0.83081742 0.0076178425 0)
(0.8217501 0.0073244961 0)
(0.81274146 0.0070520882 0)
(0.80378085 0.0067912795 0)
(0.79488182 0.006536759 0)
(0.78603874 0.0062862634 0)
(0.7772703 0.0060390256 0)
(0.76857277 0.0057955097 0)
(0.7599672 0.005556448 0)
(0.75144919 0.0053230167 0)
(0.74304019 0.0050961459 0)
(0.73473352 0.0048769007 0)
(0.72655004 0.0046659119 0)
(0.7184801 0.0044638622 0)
(0.71054372 0.0042709698 0)
(0.70272813 0.0040875293 0)
(0.69505269 0.0039134098 0)
(0.68750166 0.0037486193 0)
(0.68009414 0.0035928028 0)
(0.67281168 0.0034457887 0)
(0.66567345 0.0033070652 0)
(0.6586585 0.0031763464 0)
(0.65178652 0.0030530453 0)
(0.64503425 0.0029368393 0)
(0.63842224 0.0028271325 0)
(0.63192512 0.0027236154 0)
(0.62556458 0.00262572 0)
(0.61931322 0.0025331748 0)
(0.6131942 0.0024454581 0)
(0.60717812 0.0023623475 0)
(0.60128984 0.0022833751 0)
(0.59549797 0.0022083699 0)
(0.5898293 0.0021369182 0)
(0.58425042 0.0020688965 0)
(0.57879021 0.0020039417 0)
(0.57341318 0.0019419712 0)
(0.56815052 0.0018826664 0)
(0.56296453 0.0018259778 0)
(0.55788888 0.001771625 0)
(0.55288354 0.0017195836 0)
(0.54798485 0.0016696056 0)
(0.54315029 0.0016216844 0)
(0.53841904 0.0015755998 0)
(0.53374593 0.0015313567 0)
(0.52917316 0.001488759 0)
(0.52465273 0.001447818 0)
(0.52023003 0.0014083592 0)
(0.51585404 0.001370396 0)
(0.51157357 0.0013337742 0)
(0.50733432 0.0012985058 0)
(0.50318875 0.0012644561 0)
(0.49907905 0.0012316331 0)
(0.49506155 0.0011999215 0)
(0.49107468 0.0011693227 0)
(0.48717888 0.0011397408 0)
(0.48330857 0.0011111687 0)
(0.47952856 0.0010835307 0)
(0.47576893 0.0010568087 0)
(0.4720992 0.0010309482 0)
(0.46844477 0.0010059183 0)
(0.46488017 0.00098168666 0)
(0.46132582 0.00095820738 0)
(0.45786157 0.00093547133 0)
(0.45440249 0.00091341576 0)
(0.45103412 0.00089205591 0)
(0.44766579 0.00087131013 0)
(0.44438915 0.0008512193 0)
(0.44110733 0.00083168083 0)
(0.43791854 0.00081276261 0)
(0.43471925 0.00079433903 0)
(0.43161466 0.00077650648 0)
(0.42849414 0.00075911429 0)
(0.42547038 0.0007422889 0)
(0.42242507 0.00072585247 0)
(0.41947897 0.00070996315 0)
(0.41650552 0.00069441378 0)
(0.41363412 0.00067939589 0)
(0.41072936 0.00066467095 0)
(0.40792988 0.0006504657 0)
(0.40509078 0.00063650805 0)
(0.40236065 0.00062306179 0)
(0.39958435 0.00060981906 0)
(0.39692114 0.00059708266 0)
(0.3942049 0.00058450678 0)
(0.39160636 0.00057243529 0)
(0.38894757 0.00056048216 0)
(0.3864116 0.00054903434 0)
(0.38380776 0.00053766327 0)
(0.38133239 0.00052680112 0)
(0.3787811 0.00051597461 0)
(0.37636451 0.0005056633 0)
(0.37386348 0.00049534672 0)
(0.37150396 0.0004855541 0)
(0.36905096 0.00047571542 0)
(0.36674694 0.00046641187 0)
(0.36433982 0.00045702139 0)
(0.36208984 0.00044817942 0)
(0.35972653 0.00043920949 0)
(0.35752926 0.0004308037 0)
(0.35520772 0.0004222287 0)
(0.35306192 0.00041423566 0)
(0.35078019 0.00040603182 0)
(0.34868474 0.00039842984 0)
(0.34644088 0.00039057491 0)
(0.34439476 0.00038334372 0)
(0.34218687 0.00037581693 0)
(0.34018917 0.00036893775 0)
(0.33801537 0.00036171981 0)
(0.33606529 0.00035517529 0)
(0.33392373 0.0003482481 0)
(0.33202056 0.000342022 0)
(0.32990939 0.00033536855 0)
(0.32805252 0.00032944571 0)
(0.3259699 0.00032305024 0)
(0.32415885 0.00031741666 0)
(0.32210293 0.00031126437 0)
(0.3203373 0.0003059069 0)
(0.31830621 0.00029998372 0)
(0.31658572 0.00029489012 0)
(0.31457758 0.00028918307 0)
(0.31290206 0.00028434185 0)
(0.31091495 0.00027883876 0)
(0.30928434 0.00027423905 0)
(0.30731631 0.00026892822 0)
(0.30573068 0.0002645603 0)
(0.30377971 0.00025943136 0)
(0.30223924 0.00025528552 0)
(0.30030326 0.000250328 0)
(0.29880829 0.00024639533 0)
(0.29688513 0.00024160044 0)
(0.29543612 0.00023787319 0)
(0.29352355 0.0002332318 0)
(0.29212111 0.00022970083 0)
(0.29021677 0.00022520524 0)
(0.28886168 0.00022186479 0)
(0.28696311 0.00021750763 0)
(0.28565632 0.00021434853 0)
(0.2837609 0.00021012337 0)
(0.28250353 0.00020714076 0)
(0.28060848 0.00020304175 0)
(0.27940188 0.00020022728 0)
(0.27750425 0.00019624966 0)
(0.27634997 0.00019359815 0)
(0.27444657 0.00018973808 0)
(0.27334639 0.00018724207 0)
(0.27143382 0.00018349662 0)
(0.27038979 0.00018115041 0)
(0.26846435 0.00017751855 0)
(0.2674788 0.00017531477 0)
(0.26553648 0.00017179656 0)
(0.26461206 0.00016972875 0)
(0.26264848 0.00016632684 0)
(0.26178815 0.00016438695 0)
(0.25979852 0.0001611066 0)
(0.25900563 0.00015928664 0)
(0.25698468 0.00015613669 0)
(0.25626297 0.0001544268 0)
(0.25420484 0.00015142146 0)
(0.25355848 0.00014981089 0)
(0.25145666 0.00014697115 0)
(0.25089028 0.00014544672 0)
(0.24873747 0.00014280433 0)
(0.24825618 0.00014135059 0)
(0.24604407 0.00013895307 0)
(0.24565347 0.00013755183 0)
(0.24337251 0.00013547194 0)
(0.24307866 0.00013410346 0)
(0.24071754 0.00013245202 0)
(0.240527 0.00013109387 0)
(0.23807198 0.00013005779 0)
(0.23799141 0.00012848974 0)
(0.23542893 0.00013172226 0)
(0.97896712 0.014900572 0)
(0.97910439 0.018983377 0)
(0.98047274 0.02234349 0)
(0.98279891 0.024441705 0)
(0.98548443 0.02555209 0)
(0.98799375 0.026232142 0)
(0.99011156 0.026881301 0)
(0.99186979 0.027610159 0)
(0.99341195 0.028330457 0)
(0.99483734 0.028892832 0)
(0.99617207 0.02917039 0)
(0.99734955 0.029078134 0)
(0.99827194 0.028570387 0)
(0.99880682 0.02763572 0)
(0.99884966 0.02630503 0)
(0.99830453 0.024649823 0)
(0.99713614 0.022777519 0)
(0.99533151 0.020819663 0)
(0.99294288 0.018909073 0)
(0.99003458 0.017156041 0)
(0.98671755 0.015628678 0)
(0.98308354 0.014352015 0)
(0.97923958 0.01331476 0)
(0.97524541 0.012487538 0)
(0.97116286 0.011832024 0)
(0.9670045 0.011310021 0)
(0.96279122 0.010888645 0)
(0.9585032 0.010540443 0)
(0.95414749 0.010242278 0)
(0.94969891 0.0099760117 0)
(0.94516697 0.0097280123 0)
(0.94052864 0.0094893017 0)
(0.93579904 0.0092541398 0)
(0.93095834 0.0090196529 0)
(0.92602752 0.0087844341 0)
(0.92098928 0.0085484935 0)
(0.91586941 0.0083122273 0)
(0.9106516 0.0080766848 0)
(0.90536501 0.0078427704 0)
(0.89999284 0.0076116823 0)
(0.89456656 0.0073842407 0)
(0.88906784 0.0071614184 0)
(0.88352988 0.0069437417 0)
(0.87793218 0.0067318655 0)
(0.87230943 0.0065260131 0)
(0.86663866 0.0063265645 0)
(0.86095606 0.0061335186 0)
(0.85523598 0.005947056 0)
(0.84951616 0.0057670017 0)
(0.84376816 0.0055933871 0)
(0.83803144 0.005425931 0)
(0.83227465 0.0052645813 0)
(0.82653914 0.0051090096 0)
(0.82079055 0.0049591258 0)
(0.81507233 0.0048145913 0)
(0.80934697 0.0046753033 0)
(0.8036602 0.0045409343 0)
(0.79797124 0.0044113827 0)
(0.79232832 0.0042863438 0)
(0.78668722 0.0041657233 0)
(0.78109887 0.0040492455 0)
(0.77551548 0.0039368243 0)
(0.7699909 0.0038282148 0)
(0.76447356 0.0037233371 0)
(0.7590205 0.0036219772 0)
(0.75357617 0.0035240573 0)
(0.74820102 0.0034293937 0)
(0.74283536 0.0033379063 0)
(0.73754331 0.0032494409 0)
(0.73226078 0.0031639108 0)
(0.72705587 0.0030811907 0)
(0.72185987 0.0030011832 0)
(0.71674515 0.0029237925 0)
(0.71163812 0.0028489067 0)
(0.70661574 0.00277646 0)
(0.70159927 0.0027063234 0)
(0.69667061 0.0026384624 0)
(0.69174556 0.0025727275 0)
(0.68691133 0.0025091178 0)
(0.68207794 0.0024474606 0)
(0.67733829 0.0023877907 0)
(0.67259627 0.0023299096 0)
(0.66795088 0.0022738902 0)
(0.6632995 0.0022195049 0)
(0.65874767 0.0021668674 0)
(0.65418586 0.002115718 0)
(0.64972659 0.0020662139 0)
(0.64525298 0.0020180602 0)
(0.64088504 0.0019714605 0)
(0.63649804 0.0019260819 0)
(0.63222002 0.0018821766 0)
(0.62791786 0.0018393702 0)
(0.62372821 0.001797967 0)
(0.61950902 0.0017575469 0)
(0.6154061 0.0017184697 0)
(0.61126787 0.0016802659 0)
(0.60724999 0.0016433537 0)
(0.60319069 0.0016072104 0)
(0.59925613 0.001572316 0)
(0.59527364 0.0015380903 0)
(0.59142066 0.0015050787 0)
(0.58751286 0.0014726397 0)
(0.58373974 0.0014413876 0)
(0.57990449 0.0014106151 0)
(0.57620954 0.0013810092 0)
(0.57244469 0.0013517924 0)
(0.56882622 0.0013237287 0)
(0.56512964 0.0012959656 0)
(0.56158605 0.0012693485 0)
(0.55795559 0.0012429451 0)
(0.5544853 0.0012176865 0)
(0.55091886 0.001192556 0)
(0.54752035 0.0011685747 0)
(0.54401582 0.0011446365 0)
(0.54068765 0.0011218578 0)
(0.53724295 0.0010990375 0)
(0.53398372 0.0010773921 0)
(0.53059678 0.0010556205 0)
(0.52740519 0.0010350444 0)
(0.52407396 0.0010142573 0)
(0.52094876 0.0009946916 0)
(0.5176712 0.00097482916 0)
(0.51461124 0.00095621907 0)
(0.51138532 0.00093722571 0)
(0.50838949 0.00091952044 0)
(0.5052132 0.00090134411 0)
(0.50228052 0.00088449647 0)
(0.49915184 0.00086708863 0)
(0.49628138 0.00085105506 0)
(0.4931983 0.00083437047 0)
(0.49038924 0.00081911053 0)
(0.48734975 0.00080310665 0)
(0.48460133 0.00078858254 0)
(0.48160341 0.0007732194 0)
(0.47891499 0.00075939607 0)
(0.4759566 0.00074463633 0)
(0.47332764 0.00073148138 0)
(0.47040671 0.00071728984 0)
(0.46783676 0.00070477296 0)
(0.46495122 0.00069111632 0)
(0.46243992 0.00067920928 0)
(0.45958766 0.00066605643 0)
(0.45713477 0.0006547332 0)
(0.45431363 0.00064205475 0)
(0.45191904 0.00063129093 0)
(0.44912681 0.0006190587 0)
(0.44679051 0.0006088317 0)
(0.44402491 0.00059701954 0)
(0.44174704 0.00058730837 0)
(0.43900574 0.00057589125 0)
(0.43678655 0.00056667603 0)
(0.43406713 0.00055563009 0)
(0.43190703 0.00054689345 0)
(0.42920698 0.00053619672 0)
(0.42710652 0.00052792112 0)
(0.42442322 0.00051755156 0)
(0.42238314 0.00050972184 0)
(0.41971383 0.00049966032 0)
(0.41773501 0.00049226254 0)
(0.41507681 0.00048248884 0)
(0.41316037 0.00047550832 0)
(0.41051024 0.00046600525 0)
(0.40865746 0.00045943191 0)
(0.40601216 0.00045018174 0)
(0.40422457 0.0004440017 0)
(0.40158068 0.00043498911 0)
(0.39986004 0.0004291946 0)
(0.39721389 0.00042040417 0)
(0.39556223 0.00041498332 0)
(0.3929099 0.00040640193 0)
(0.39132954 0.00040134768 0)
(0.38866681 0.00039296282 0)
(0.38716038 0.00038826556 0)
(0.3844827 0.00038006653 0)
(0.38305317 0.00037571963 0)
(0.38035562 0.00036769794 0)
(0.37900635 0.0003636931 0)
(0.37628355 0.00035584213 0)
(0.3750183 0.00035217292 0)
(0.37226443 0.00034448952 0)
(0.37108741 0.00034114806 0)
(0.36829605 0.00033363308 0)
(0.36721196 0.00033061219 0)
(0.36437609 0.00032327174 0)
(0.36339016 0.00032056254 0)
(0.36050203 0.00031341103 0)
(0.35962003 0.00031100407 0)
(0.35667105 0.00030406661 0)
(0.35589935 0.00030194987 0)
(0.35287998 0.00029526893 0)
(0.3522255 0.00029342786 0)
(0.34912507 0.0002870722 0)
(0.34859527 0.00028548838 0)
(0.34540178 0.00027957104 0)
(0.3450044 0.00027821948 0)
(0.34170435 0.00027293621 0)
(0.34144679 0.00027173995 0)
(0.33802559 0.00026757518 0)
(0.33791237 0.00026592237 0)
(0.33435956 0.00026798414 0)
(0.98103337 0.014583182 0)
(0.98110851 0.017839234 0)
(0.98211135 0.020813123 0)
(0.98395269 0.023052766 0)
(0.98630055 0.024476648 0)
(0.98872511 0.025363698 0)
(0.99097106 0.02604408 0)
(0.9929847 0.026700247 0)
(0.99487255 0.027334009 0)
(0.99674035 0.027842568 0)
(0.99866258 0.028106095 0)
(1.0006156 0.028036436 0)
(1.0025438 0.027588325 0)
(1.0043329 0.026757367 0)
(1.0058908 0.025577656 0)
(1.0071064 0.024116635 0)
(1.0079245 0.02246746 0)
(1.00829 0.020739799 0)
(1.0082196 0.019043709 0)
(1.0077308 0.017473417 0)
(1.0069081 0.016091858 0)
(1.0058126 0.014927256 0)
(1.0045465 0.013976445 0)
(1.0031575 0.013217101 0)
(1.0017178 0.012616235 0)
(1.0002326 0.012138977 0)
(0.99873692 0.01175479 0)
(0.99720458 0.011439295 0)
(0.99565444 0.011172601 0)
(0.9940497 0.010938986 0)
(0.99240815 0.010725957 0)
(0.99069077 0.010524621 0)
(0.98891891 0.010328721 0)
(0.98705385 0.010134638 0)
(0.98512218 0.0099402221 0)
(0.98308607 0.0097448176 0)
(0.98097745 0.0095482849 0)
(0.97875875 0.0093512213 0)
(0.9764666 0.0091542071 0)
(0.97406267 0.0089581601 0)
(0.9715876 0.008763734 0)
(0.96900137 0.00857174 0)
(0.96634822 0.008382648 0)
(0.96358584 0.0081970265 0)
(0.96076181 0.0080151159 0)
(0.95783112 0.0078372496 0)
(0.9548447 0.0076634774 0)
(0.95175449 0.0074939487 0)
(0.94861483 0.0073285868 0)
(0.94537435 0.0071674156 0)
(0.94209097 0.0070102872 0)
(0.9387098 0.0068571485 0)
(0.93529251 0.0067078274 0)
(0.93178044 0.0065622294 0)
(0.92823921 0.0064201888 0)
(0.92460619 0.0062815896 0)
(0.92095116 0.0061462913 0)
(0.91720725 0.0060141664 0)
(0.91344865 0.0058851106 0)
(0.90960399 0.0057589886 0)
(0.9057521 0.0056357379 0)
(0.90181682 0.0055152148 0)
(0.8978819 0.005397401 0)
(0.89386608 0.0052821404 0)
(0.8898583 0.0051694596 0)
(0.88577187 0.0050591846 0)
(0.88170123 0.0049513865 0)
(0.87755389 0.0048458674 0)
(0.87343012 0.0047427427 0)
(0.86923129 0.0046417841 0)
(0.8650638 0.0045431518 0)
(0.86082252 0.0044465814 0)
(0.85662034 0.0043522787 0)
(0.85234519 0.0042599377 0)
(0.8481169 0.0041698117 0)
(0.84381602 0.0040815483 0)
(0.83956971 0.0039954509 0)
(0.83525071 0.0039111162 0)
(0.83099396 0.0038289009 0)
(0.82666391 0.0037483462 0)
(0.82240378 0.0036698664 0)
(0.81806919 0.0035929431 0)
(0.81381221 0.0035180526 0)
(0.80947906 0.003444612 0)
(0.80523121 0.0033731641 0)
(0.80090493 0.0033030575 0)
(0.79667169 0.0032349062 0)
(0.79235717 0.0031679856 0)
(0.78814351 0.0031029869 0)
(0.78384513 0.003039107 0)
(0.77965554 0.0029771194 0)
(0.7753772 0.0029161378 0)
(0.77121573 0.0028570236 0)
(0.76696085 0.0027988016 0)
(0.76283111 0.0027424272 0)
(0.75860268 0.0026868305 0)
(0.75450789 0.0026330668 0)
(0.7503085 0.0025799656 0)
(0.74625153 0.0025286886 0)
(0.74208336 0.0024779579 0)
(0.73806673 0.0024290485 0)
(0.73393164 0.0023805685 0)
(0.72995758 0.0023339129 0)
(0.72585709 0.0022875688 0)
(0.72192756 0.0022430584 0)
(0.71786289 0.0021987406 0)
(0.7139796 0.0021562719 0)
(0.70995169 0.0021138755 0)
(0.70611614 0.0020733503 0)
(0.70212571 0.0020327754 0)
(0.6983392 0.0019941004 0)
(0.69438671 0.001955252 0)
(0.69065039 0.001918339 0)
(0.68673609 0.001881127 0)
(0.68305097 0.0018458925 0)
(0.67917494 0.0018102311 0)
(0.67554188 0.0017765962 0)
(0.67170402 0.0017424037 0)
(0.66812381 0.0017102937 0)
(0.66432383 0.0016774927 0)
(0.66079717 0.0016468375 0)
(0.65703465 0.0016153546 0)
(0.65356216 0.001586088 0)
(0.64983654 0.0015558535 0)
(0.6464188 0.0015279131 0)
(0.64272938 0.0014988605 0)
(0.63936694 0.0014721875 0)
(0.63571288 0.0014442541 0)
(0.63240625 0.0014187935 0)
(0.62878662 0.0013919197 0)
(0.62553632 0.0013676199 0)
(0.62195005 0.0013417489 0)
(0.61875659 0.0013185612 0)
(0.6152025 0.001293639 0)
(0.61206641 0.0012715177 0)
(0.6085432 0.001247493 0)
(0.60546505 0.0012263956 0)
(0.60197132 0.0012032195 0)
(0.59895171 0.0011831059 0)
(0.59548592 0.0011607317 0)
(0.5925255 0.0011415644 0)
(0.58908603 0.0011199476 0)
(0.58618551 0.0011016919 0)
(0.58277058 0.0010807903 0)
(0.57993075 0.0010634133 0)
(0.57653849 0.0010431858 0)
(0.57376023 0.0010266572 0)
(0.5703886 0.0010070651 0)
(0.56767289 0.00099135678 0)
(0.56431972 0.00097236263 0)
(0.56166766 0.00095744776 0)
(0.55833064 0.00093901552 0)
(0.55574345 0.00092487104 0)
(0.5524201 0.00090696703 0)
(0.54989914 0.00089356932 0)
(0.54658679 0.00087615908 0)
(0.54413361 0.00086348836 0)
(0.54082941 0.00084654211 0)
(0.5384457 0.00083457997 0)
(0.5351466 0.00081806474 0)
(0.53283427 0.00080679244 0)
(0.52953698 0.00079068095 0)
(0.52729816 0.0007800857 0)
(0.52399913 0.00076434782 0)
(0.52183619 0.00075441257 0)
(0.51853162 0.00073902288 0)
(0.51644718 0.0007297386 0)
(0.51313294 0.00071466988 0)
(0.51112994 0.00070602283 0)
(0.50780157 0.00069125186 0)
(0.50588327 0.00068323489 0)
(0.50253592 0.00066873812 0)
(0.50070593 0.0006613412 0)
(0.49733435 0.00064709797 0)
(0.49559667 0.00064031554 0)
(0.49219514 0.00062630737 0)
(0.49055421 0.00062013217 0)
(0.48711649 0.00060634339 0)
(0.48557721 0.00060077103 0)
(0.48209646 0.00058719015 0)
(0.48066425 0.00058221503 0)
(0.47713301 0.00056883626 0)
(0.47581382 0.00056445387 0)
(0.47222388 0.0005512786 0)
(0.47102428 0.0005474827 0)
(0.46736661 0.00053452438 0)
(0.46629374 0.00053130767 0)
(0.46255842 0.00051859569 0)
(0.46162006 0.00051594667 0)
(0.45779615 0.0005035372 0)
(0.45700059 0.00050143823 0)
(0.45307604 0.00048943003 0)
(0.452432 0.00048785059 0)
(0.44839359 0.00047641982 0)
(0.44790972 0.0004752959 0)
(0.44374319 0.00046478615 0)
(0.44342705 0.00046389828 0)
(0.43911795 0.00045521829 0)
(0.43897293 0.00045358437 0)
(0.43451125 0.00045268723 0)
(0.98279946 0.014417719 0)
(0.98287192 0.01715827 0)
(0.98367407 0.019789201 0)
(0.98516386 0.021986041 0)
(0.98716139 0.02356842 0)
(0.98935518 0.024610773 0)
(0.99151087 0.025335297 0)
(0.9935062 0.025929413 0)
(0.99538591 0.026456791 0)
(0.99721665 0.026871029 0)
(0.99908603 0.027080262 0)
(1.000989 0.027002291 0)
(1.0029093 0.026590867 0)
(1.0047524 0.025841127 0)
(1.0064573 0.024784065 0)
(1.0079186 0.0234795 0)
(1.0090977 0.022007461 0)
(1.0099282 0.020459735 0)
(1.0104281 0.01892843 0)
(1.0105889 0.017494471 0)
(1.0104888 0.016215909 0)
(1.0101611 0.015123016 0)
(1.0097096 0.014219235 0)
(1.0091633 0.013488809 0)
(1.0086067 0.012904602 0)
(1.0080337 0.012436449 0)
(1.007498 0.012056875 0)
(1.0069628 0.011743813 0)
(1.0064661 0.011479604 0)
(1.0059575 0.011250287 0)