/*--------------------------------*- C++ -*----------------------------------*\
| =========                 |                                                 |
| \\      /  F ield         | OpenFOAM: The Open Source CFD Toolbox           |
|  \\    /   O peration     | Version:  5.x                                   |
|   \\  /    A nd           | Web:      www.OpenFOAM.org                      |
|    \\/     M anipulation  |                                                 |
\*---------------------------------------------------------------------------*/
FoamFile
{
    version     2.0;
    format      ascii;
    class       volScalarField;
    location    "0.8";
    object      p;
}
// * * * * * * * * * * * * * * * * * * * * * * * * * * * * * * * * * * * * * //

dimensions      [0 2 -2 0 0 0 0];

internalField   nonuniform List<scalar> 
21600
(
0.018502599
0.016046354
0.012693181
0.0099129329
0.007718886
0.0057857724
0.0039630631
0.0023215095
0.0010328969
0.00021951942
-0.00013176177
-0.00014001397
4.6104244e-05
0.00030573476
0.00056211005
0.00077617492
0.00093592199
0.0010454819
0.0011159225
0.0011591665
0.0011851831
0.0012012492
0.0012121609
0.0012207752
0.0012285922
0.0012362526
0.0012439102
0.0012514799
0.0012587924
0.0012656772
0.0012720003
0.001277673
0.0012826508
0.0012869242
0.0012905101
0.0012934422
0.0012957649
0.0012975258
0.0012987739
0.0012995547
0.0012999109
0.0012998795
0.0012994938
0.0012987817
0.001297768
0.0012964729
0.0012949149
0.001293109
0.0012910694
0.0012888076
0.0012863352
0.0012836614
0.0012807962
0.0012777471
0.0012745229
0.0012711303
0.001267577
0.0012638687
0.0012600125
0.001256013
0.0012518768
0.0012476078
0.0012432119
0.0012386923
0.0012340545
0.001229301
0.0012244368
0.0012194639
0.0012143872
0.0012092079
0.0012039307
0.0011985564
0.0011930894
0.0011875301
0.0011818827
0.0011761473
0.0011703279
0.0011644243
0.0011584403
0.0011523753
0.0011462332
0.001140013
0.0011337186
0.0011273486
0.0011209069
0.0011143918
0.0011078072
0.0011011511
0.0010944274
0.001087634
0.0010807747
0.001073847
0.0010668549
0.0010597955
0.0010526731
0.0010454843
0.0010382335
0.0010309171
0.0010235396
0.0010160971
0.0010085943
0.0010010269
0.00099339966
0.00098570813
0.00097795734
0.00097014231
0.00096226841
0.00095433024
0.0009463335
0.00093827232
0.00093015278
0.00092196853
0.00091372607
0.00090541852
0.00089705289
0.00088862164
0.00088013239
0.00087157692
0.00086296351
0.00085428316
0.00084554497
0.00083673902
0.00082787533
0.00081894295
0.000809953
0.00080089332
0.00079177631
0.00078258841
0.00077334354
0.0007640265
0.000754653
0.00074520589
0.00073570302
0.00072612495
0.00071649205
0.00070678219
0.00069701868
0.00068717627
0.00067728174
0.00066730612
0.00065728031
0.00064717096
0.00063701381
0.00062677036
0.00061648206
0.00060610435
0.00059568541
0.00058517351
0.00057462478
0.00056397904
0.00055330179
0.00054252291
0.00053171891
0.00052080798
0.00050987959
0.00049883815
0.00048778842
0.00047661856
0.00046545133
0.00045415577
0.00044287581
0.000431458
0.00042007118
0.00040853541
0.00039704888
0.00038540049
0.00037382296
0.00036206849
0.00035041052
0.0003385579
0.00032683217
0.00031489102
0.00030311284
0.00029109486
0.00027928275
0.00026720209
0.00025537833
0.00024325184
0.00023144297
0.0002192908
0.00020752939
0.00019537663
0.00018370269
0.00017157981
0.00016004234
0.0001479865
0.00013664654
0.00012470373
0.00011363718
0.00010186422
9.1167841e-05
7.963528e-05
6.9433928e-05
5.8229405e-05
4.8690422e-05
3.7925233e-05
2.9287827e-05
1.9088613e-05
1.1744641e-05
2.1255569e-06
0.015978431
0.014656545
0.01220304
0.0097242097
0.0076037013
0.005756284
0.0040554689
0.0025284546
0.0013088839
0.00050197802
0.00011652655
6.2391101e-05
0.00020519558
0.00042729999
0.00065370616
0.00084513784
0.00098895613
0.001087915
0.0011514231
0.0011900444
0.0012128189
0.0012264398
0.0012353616
0.0012422575
0.0012485394
0.0012548102
0.0012612066
0.0012676332
0.0012739121
0.0012798633
0.0012853422
0.0012902499
0.0012945322
0.0012981706
0.0013011745
0.001303571
0.0013053989
0.0013067011
0.0013075228
0.0013079063
0.0013078913
0.0013075125
0.0013068011
0.0013057832
0.0013044819
0.001302916
0.0013011029
0.0012990561
0.0012967889
0.0012943119
0.0012916357
0.0012887688
0.0012857202
0.0012824971
0.0012791076
0.0012755576
0.0012718545
0.0012680034
0.001264011
0.0012598816
0.0012556213
0.0012512337
0.0012467243
0.0012420961
0.0012373543
0.001232501
0.0012275413
0.0012224768
0.001217312
0.0012120482
0.0012066897
0.0012012373
0.0011956952
0.0011900636
0.0011843466
0.0011785441
0.0011726601
0.0011666941
0.0011606499
0.0011545269
0.0011483288
0.0011420546
0.0011357079
0.0011292874
0.0011227969
0.0011162345
0.0011096043
0.001102904
0.0010961376
0.0010893026
0.0010824032
0.0010754366
0.0010684068
0.0010613108
0.001054153
0.0010469298
0.0010396456
0.0010322968
0.0010248879
0.0010174148
0.0010098824
0.0010022861
0.0009946309
0.00098691208
0.00097913487
0.00097129404
0.00096339515
0.00095543256
0.00094741217
0.00093932785
0.00093118592
0.00092297972
0.00091471605
0.00090638767
0.00089800191
0.00088955088
0.00088104254
0.00087246825
0.00086383672
0.00085513847
0.00084638307
0.00083756007
0.00082868003
0.0008197314
0.00081072591
0.00080165072
0.00079251894
0.00078331623
0.00077405731
0.00076472613
0.00075533926
0.00074587863
0.00073636303
0.00072677203
0.00071712701
0.00070740476
0.00069762973
0.00068777544
0.00067786994
0.00066788292
0.00065784667
0.00064772637
0.0006375593
0.00062730532
0.00061700758
0.00060661973
0.00059619182
0.00058567015
0.00057511289
0.00056445773
0.00055377239
0.00054298441
0.00053217273
0.00052125299
0.00051031734
0.00049926736
0.00048821075
0.00047703262
0.00046585889
0.00045455529
0.0004432692
0.00043184357
0.00042045098
0.00040890759
0.00039741564
0.00038575981
0.00037417722
0.00036241546
0.00035075277
0.00033889302
0.00032716291
0.00031521476
0.00030343253
0.00029140767
0.00027959185
0.0002675044
0.00025567728
0.0002435441
0.0002317322
0.00021957342
0.00020780933
0.00019565003
0.00018397375
0.0001718444
0.00016030496
0.00014824272
0.00013690115
0.00012495203
0.00011388426
0.00010210509
9.14079e-05
7.9869261e-05
6.9667567e-05
5.8457151e-05
4.8918378e-05
3.8147554e-05
2.9511147e-05
1.9306467e-05
1.1965066e-05
2.344437e-06
0.014308898
0.01352942
0.011751046
0.0096082653
0.0075929648
0.0058257715
0.004258406
0.0028798267
0.0017540031
0.00095568412
0.00050951335
0.00036648634
0.00042668477
0.00058454821
0.00076206007
0.00091945029
0.0010421301
0.001129293
0.0011866565
0.0012220389
0.0012428405
0.0012549133
0.0012623374
0.001267659
0.0012722846
0.001276864
0.001281594
0.0012864295
0.0012912273
0.001295825
0.0013000819
0.0013038941
0.0013071978
0.0013099628
0.0013121864
0.0013138838
0.0013150832
0.0013158182
0.0013161255
0.0013160405
0.0013155971
0.0013148249
0.0013137511
0.0013123981
0.0013107861
0.0013089315
0.0013068494
0.0013045515
0.0013020497
0.0012993526
0.0012964701
0.0012934091
0.0012901781
0.0012867829
0.001283231
0.0012795275
0.0012756793
0.0012716906
0.0012675679
0.0012633146
0.0012589367
0.0012544371
0.0012498212
0.0012450914
0.0012402527
0.001235307
0.001230259
0.00122511
0.0012198644
0.0012145232
0.0012090906
0.0012035671
0.0011979568
0.0011922598
0.0011864799
0.001180617
0.0011746749
0.001168653
0.0011625552
0.0011563803
0.0011501324
0.00114381
0.001137417
0.0011309517
0.001124418
0.001117814
0.0011111435
0.0011044042
0.0010976002
0.0010907288
0.0010837943
0.0010767935
0.0010697308
0.0010626029
0.0010554141
0.0010481609
0.0010408478
0.0010334707
0.0010260346
0.0010185349
0.0010109768
0.0010033555
0.00099567615
0.00098793371
0.00098013372
0.00097227058
0.0009643502
0.00095636651
0.00094832581
0.00094022153
0.0009320604
0.00092383529
0.00091555346
0.00090720715
0.0008988042
0.00089033615
0.00088181152
0.00087322106
0.00086457409
0.00085586048
0.00084709043
0.0008382528
0.00082935887
0.0008203963
0.00081137762
0.00080228915
0.00079314484
0.00078392946
0.00077465865
0.00076531535
0.00075591718
0.00074644497
0.00073691864
0.00072731655
0.00071766134
0.00070792846
0.00069814374
0.00068827926
0.00067836457
0.00066836776
0.00065832278
0.00064819306
0.0006380177
0.00062775466
0.00061744907
0.00060705248
0.00059661712
0.000586087
0.00057552271
0.00056485938
0.00055416738
0.00054337148
0.00053255353
0.00052162611
0.00051068454
0.00049962709
0.00048856493
0.0004773795
0.00046620057
0.00045488985
0.00044359891
0.0004321663
0.0004207692
0.00040921895
0.00039772285
0.00038606025
0.00037447385
0.00036270541
0.00035103926
0.00033917288
0.00032743966
0.00031548491
0.00030369995
0.00029166848
0.00027985029
0.00026775623
0.00025592713
0.00024378727
0.00023197379
0.00021980826
0.00020804301
0.00019587686
0.00018419987
0.00017206352
0.00016052385
0.00014845444
0.00013711315
0.00012515665
0.00011408971
0.00010230292
9.1607183e-05
8.0060632e-05
6.9861081e-05
5.8642411e-05
4.9106584e-05
3.832711e-05
2.9694617e-05
1.9480911e-05
1.2141161e-05
2.5092165e-06
0.013141955
0.012572014
0.011238105
0.0094341866
0.0075883958
0.0059257676
0.0044785529
0.0032312639
0.0022010664
0.0014312963
0.00094818432
0.00072943267
0.00070633628
0.00079269533
0.00091668393
0.0010360255
0.0011324537
0.0012019441
0.0012475278
0.0012749291
0.0012900659
0.0012978225
0.0013016869
0.0013038697
0.0013056099
0.0013074877
0.0013096873
0.0013121825
0.001314847
0.0013175218
0.0013200586
0.0013223374
0.0013242753
0.0013258218
0.001326955
0.0013276728
0.0013279882
0.0013279215
0.0013274987
0.0013267457
0.0013256891
0.0013243521
0.0013227568
0.0013209212
0.0013188619
0.0013165918
0.0013141236
0.0013114662
0.0013086294
0.00130562
0.0013024458
0.0012991122
0.0012956261
0.0012919919
0.0012882159
0.001284302
0.001280256
0.0012760812
0.001271783
0.0012673643
0.0012628302
0.0012581829
0.0012534273
0.0012485651
0.001243601
0.0012385361
0.001233375
0.0012281183
0.0012227704
0.0012173317
0.0012118063
0.0012061941
0.0012004993
0.0011947214
0.0011888644
0.0011829275
0.0011769148
0.0011708251
0.0011646624
0.0011584253
0.0011521177
0.0011457379
0.0011392899
0.0011327716
0.0011261871
0.001119534
0.0011128164
0.0011060317
0.0010991841
0.0010922705
0.0010852953
0.0010782553
0.0010711548
0.0010639902
0.0010567663
0.0010494788
0.0010421328
0.0010347238
0.0010272569
0.0010197273
0.0010121403
0.0010044909
0.00099678458
0.00098901575
0.00098119042
0.00097330246
0.00096535826
0.00095735121
0.00094928811
0.0009411618
0.00093297957
0.00092473368
0.00091643196
0.00090806601
0.00089964429
0.00089115766
0.00088261531
0.00087400727
0.00086534356
0.00085661327
0.00084782739
0.00083897394
0.00083006503
0.00082108744
0.00081205458
0.00080295182
0.00079379407
0.00078456509
0.00077528155
0.0007659253
0.00075651506
0.00074703049
0.00073749272
0.00072787883
0.00071821277
0.00070846862
0.00069867361
0.00068879834
0.00067887388
0.00066886673
0.0006588125
0.00064867286
0.00063848873
0.00062821616
0.00061790226
0.00060749649
0.00059705328
0.00058651432
0.00057594259
0.00056527072
0.0005545717
0.00054376755
0.00053294297
0.00052200755
0.00051105974
0.00049999453
0.0004889265
0.00047773352
0.00046654909
0.000455231
0.00044393492
0.00043249511
0.00042109323
0.00040953591
0.00039803538
0.00038636583
0.00037477536
0.00036300006
0.00035133019
0.00033945701
0.00032772042
0.00031575893
0.00030397095
0.00029193275
0.00028011192
0.00026801112
0.00025617973
0.00024403311
0.00023221773
0.00022004536
0.0002082786
0.00019610554
0.00018442743
0.00017228405
0.00016074368
0.00014866708
0.00013732552
0.00012536165
0.0001142949
0.0001025005
9.1805419e-05
8.0251013e-05
7.0052573e-05
5.8825771e-05
4.929147e-05
3.8503632e-05
2.9872784e-05
1.9651191e-05
1.2303598e-05
2.6590413e-06
0.012208408
0.011721661
0.010668179
0.0091765327
0.0075449518
0.0060155805
0.0046792916
0.003539945
0.0025949819
0.0018628554
0.0013637701
0.0010902192
0.00099728861
0.0010187062
0.0010919202
0.0011742283
0.0012440154
0.0012943461
0.0013261791
0.0013436808
0.0013515455
0.0013537268
0.0013530531
0.0013513075
0.0013494833
0.0013480443
0.0013471374
0.0013467354
0.0013467217
0.0013469429
0.0013472475
0.0013475045
0.0013476152
0.0013475113
0.0013471528
0.0013465201
0.00134561
0.0013444282
0.0013429878
0.0013413033
0.0013393916
0.0013372674
0.0013349457
0.0013324381
0.0013297562
0.001326908
0.0013239023
0.0013207444
0.001317441
0.0013139957
0.0013104142
0.0013066994
0.0013028564
0.0012988875
0.0012947975
0.0012905884
0.001286265
0.0012818289
0.0012772848
0.001272634
0.001267881
0.0012630268
0.0012580759
0.0012530287
0.0012478896
0.0012426589
0.0012373407
0.0012319348
0.0012264454
0.0012208721
0.0012152189
0.001209485
0.0012036745
0.0011977862
0.0011918242
0.0011857871
0.0011796788
0.0011734977
0.0011672479
0.0011609272
0.00115454
0.0011480837
0.0011415628
0.0011349743
0.0011283228
0.0011216052
0.001114826
0.0011079819
0.0011010774
0.001094109
0.0010870814
0.0010799906
0.0010728416
0.00106563
0.001058361
0.00105103
0.0010436422
0.0010361926
0.0010286869
0.0010211195
0.0010134965
0.0010058118
0.00099807178
0.00099027007
0.00098241325
0.00097449453
0.0009665209
0.00095848504
0.00095039438
0.00094224105
0.000934033
0.00092576172
0.00091743578
0.00090904596
0.00090060149
0.00089209239
0.00088352865
0.00087489942
0.00086621557
0.0008574653
0.00084866045
0.00083978812
0.00083086133
0.00082186588
0.00081281615
0.00080369648
0.00079452282
0.0007852778
0.00077597922
0.00076660775
0.00075718331
0.00074768427
0.00073813307
0.00072850542
0.00071882666
0.0007090694
0.00069926238
0.00068937461
0.00067943879
0.0006694197
0.00065935472
0.00064920367
0.00063900937
0.00062872587
0.00061840235
0.00060798611
0.00059753379
0.00058698479
0.00057640445
0.00056572292
0.00055501577
0.00054420232
0.00053337006
0.00052242566
0.00051147062
0.00050039673
0.00048932189
0.0004781205
0.00046692968
0.00045560342
0.00044430135
0.00043285358
0.00042144609
0.00040988102
0.00039837526
0.00038669812
0.00037510279
0.00036332005
0.00035164568
0.00033976518
0.00032802446
0.00031605573
0.00030426397
0.00029221861
0.00028039435
0.00026828642
0.00025645196
0.00024429823
0.00023248012
0.00022030064
0.0002085315
0.00019635128
0.00018467113
0.00017252053
0.00016097844
0.00014889454
0.00013755157
0.00012558029
0.00011451239
0.00010271047
9.2014433e-05
8.0452366e-05
7.0253043e-05
5.901849e-05
4.9483063e-05
3.868764e-05
3.0054311e-05
1.9827131e-05
1.2457612e-05
2.8009839e-06
0.011412739
0.010967524
0.010099153
0.0088680212
0.0074620944
0.0060859228
0.0048574351
0.0038071327
0.002933781
0.0022418702
0.0017418266
0.0014314031
0.0012827619
0.00124738
0.001273253
0.0013198807
0.0013636418
0.0013949918
0.0014129017
0.0014201297
0.001420308
0.0014165602
0.0014110886
0.0014052388
0.00139973
0.0013948792
0.0013907711
0.00138736
0.0013845319
0.0013821395
0.0013800326
0.0013780752
0.0013761581
0.0013741991
0.001372144
0.0013699578
0.0013676234
0.0013651329
0.0013624877
0.0013596911
0.0013567507
0.0013536727
0.001350465
0.0013471327
0.0013436822
0.0013401165
0.0013364402
0.0013326548
0.0013287637
0.0013247674
0.0013206691
0.0013164688
0.0013121697
0.0013077717
0.001303278
0.0012986884
0.0012940064
0.0012892318
0.0012843683
0.0012794155
0.0012743772
0.0012692528
0.0012640461
0.0012587564
0.0012533877
0.0012479387
0.0012424136
0.001236811
0.0012311348
0.0012253836
0.0012195614
0.0012136663
0.0012077026
0.001201668
0.0011955668
0.0011893965
0.0011831615
0.0011768591
0.0011704937
0.0011640624
0.0011575696
0.001151012
0.0011443944
0.0011377132
0.0011309732
0.0011241704
0.0011173099
0.0011103875
0.0011034082
0.0010963677
0.0010892712
0.001082114
0.0010749014
0.0010676285
0.0010603008
0.001052913
0.0010454709
0.0010379687
0.0010304127
0.0010227965
0.0010151267
0.0010073967
0.00099961332
0.00099176939
0.00098387226
0.0009759142
0.00096790302
0.00095983046
0.0009517048
0.00094351719
0.00093527645
0.00092697311
0.00091861662
0.00091019677
0.00090172372
0.00089318647
0.00088459597
0.00087594031
0.00086723138
0.00085845626
0.00084962788
0.00084073217
0.00083178327
0.0008227658
0.0008136953
0.00080455485
0.00079536165
0.00078609702
0.00077678005
0.00076739004
0.00075794828
0.0007484317
0.00073886417
0.0007292199
0.00071952575
0.00070975272
0.00069993118
0.00069002844
0.00068007891
0.0006700456
0.00065996767
0.00064980308
0.00063959656
0.00062930015
0.00061896509
0.00060853654
0.00059807332
0.00058751254
0.00057692192
0.00056622912
0.00055551226
0.000544688
0.00053384659
0.00052289181
0.00051192814
0.00050084426
0.00048976129
0.00047855028
0.00046735179
0.00045601625
0.00044470697
0.00043325022
0.00042183596
0.00041026218
0.00039875007
0.00038706446
0.00037546319
0.00036367218
0.00035199227
0.00034010369
0.0003283578
0.00031638116
0.00030458459
0.00029253145
0.00028070273
0.00026858714
0.00025674855
0.00024458723
0.0002327653
0.00022057829
0.00020880561
0.00019661791
0.00018493447
0.00017277641
0.00016123124
0.00014913987
0.00013779395
0.00012581519
0.00011474436
0.00010293496
9.2235833e-05
8.0666331e-05
7.0463403e-05
5.9221603e-05
4.9681328e-05
3.887948e-05
3.0237573e-05
2.0008283e-05
1.2598175e-05
2.9309708e-06
0.010717702
0.010303188
0.009567305
0.0085439324
0.0073475067
0.0061307074
0.0050109398
0.0040396943
0.0032269192
0.0025732739
0.0020813058
0.0017486011
0.0015575424
0.0014739398
0.0014564837
0.0014689939
0.0014874862
0.0015003511
0.0015045806
0.0015015022
0.001493762
0.0014837706
0.0014731978
0.0014630004
0.0014536342
0.0014452569
0.0014378698
0.0014313913
0.0014256976
0.0014206413
0.001416072
0.0014118481
0.0014078505
0.0014039834
0.0014001776
0.0013963832
0.0013925687
0.001388713
0.0013848052
0.0013808378
0.0013768091
0.0013727166
0.0013685614
0.001364342
0.0013600599
0.001355713
0.0013513023
0.0013468252
0.0013422826
0.0013376716
0.0013329933
0.001328245
0.0013234281
0.00131854
0.0013135827
0.0013085538
0.0013034558
0.0012982865
0.0012930488
0.0012877405
0.0012823647
0.0012769194
0.0012714079
0.0012658279
0.0012601832
0.0012544712
0.0012486957
0.0012428542
0.0012369506
0.0012309821
0.0012249528
0.0012188598
0.0012127072
0.001206492
0.0012002184
0.0011938831
0.0011874905
0.001181037
0.0011745273
0.0011679574
0.0011613323
0.0011546476
0.0011479085
0.0011411105
0.0011342587
0.0011273484
0.0011203851
0.0011133636
0.0011062896
0.0010991577
0.0010919737
0.001084732
0.0010774387
0.0010700876
0.0010626853
0.0010552251
0.0010477139
0.0010401446
0.0010325245
0.0010248461
0.0010171169
0.001009329
0.0010014905
0.00099359276
0.00098564429
0.00097763618
0.00096957723
0.00096145801
0.00095328785
0.0009450567
0.00093677449
0.00092843048
0.00092003528
0.00091157741
0.00090306821
0.00089449537
0.00088587106
0.00087718206
0.00086844151
0.00085963511
0.00085077712
0.00084185205
0.00083287541
0.00082383034
0.00081473381
0.00080556742
0.00079634979
0.00078706072
0.00077772081
0.00076830776
0.00075884444
0.00074930613
0.00073971833
0.00073005353
0.0007203403
0.00071054787
0.00070070837
0.00069078726
0.00068082082
0.00067077011
0.00066067625
0.00065049516
0.00064027362
0.00062996154
0.00061961232
0.00060916887
0.0005986923
0.00058811734
0.00057751413
0.00056680781
0.00055607908
0.00054524192
0.00053438931
0.00052342221
0.00051244797
0.0005013523
0.00049025937
0.00047903705
0.00046782918
0.00045648278
0.00044516465
0.00043369745
0.00042227486
0.00041069101
0.00039917104
0.00038747571
0.00037586704
0.00036406663
0.00035237975
0.00034048205
0.0003287296
0.00031674408
0.00030494133
0.00029287955
0.00028104498
0.00026892095
0.00025707682
0.00024490724
0.00023308003
0.00022088492
0.00020910717
0.00019691152
0.00018522314
0.00017305724
0.00016150717
0.00014940811
0.00013805717
0.00012607086
0.00011499467
0.00010317791
9.2472728e-05
8.089617e-05
7.0685835e-05
5.9437636e-05
4.9887184e-05
3.9080889e-05
3.0421435e-05
2.0195216e-05
1.2721266e-05
3.0473478e-06
0.010105032
0.0097189614
0.0090841978
0.008224182
0.0072088374
0.006145521
0.0051354388
0.0042398799
0.003481212
0.002862938
0.002383872
0.0020397805
0.0018181877
0.0016952108
0.0016393233
0.0016198879
0.0016140947
0.0016090712
0.0015999926
0.0015867194
0.0015709258
0.0015544002
0.0015383879
0.001523535
0.0015100698
0.0014979927
0.0014872069
0.0014775773
0.001468956
0.0014611858
0.0014541112
0.0014475831
0.0014414713
0.0014356656
0.0014300815
0.001424653
0.0014193343
0.00141409
0.0014088975
0.0014037377
0.0013985997
0.0013934721
0.001388349
0.0013832223
0.0013780881
0.0013729393
0.0013677732
0.0013625832
0.0013573672
0.0013521192
0.001346838
0.0013415182
0.0013361594
0.0013307569
0.0013253111
0.0013198176
0.0013142779
0.0013086879
0.0013030496
0.0012973592
0.0012916194
0.0012858263
0.0012799832
0.0012740861
0.0012681385
0.0012621366
0.0012560843
0.0012499774
0.0012438202
0.0012376084
0.0012313465
0.0012250301
0.0012186638
0.0012122432
0.0012057731
0.0011992487
0.0011926751
0.0011860474
0.0011793709
0.0011726402
0.0011658612
0.001159028
0.0011521467
0.0011452114
0.0011382282
0.0011311908
0.0011241058
0.0011169666
0.0011097799
0.0011025388
0.0010952504
0.0010879074
0.0010805172
0.0010730721
0.0010655797
0.0010580321
0.0010504372
0.0010427866
0.0010350887
0.0010273345
0.0010195329
0.0010116745
0.0010037685
0.00099580494
0.0009877936
0.00097972405
0.00097160646
0.00096342985
0.00095520495
0.00094692015
0.00093858681
0.00093019262
0.00092174962
0.00091324476
0.00090469086
0.00089607398
0.00088740785
0.00087867755
0.00086989782
0.00086105268
0.00085215798
0.00084319652
0.00083418546
0.00082510619
0.00081597738
0.0008067788
0.00079753087
0.00078821152
0.00077884315
0.00076940157
0.0007599115
0.0007503463
0.00074073335
0.00073104318
0.0007213063
0.00071148991
0.00070162815
0.0006916844
0.00068169701
0.00067162488
0.00066151129
0.00065130992
0.00064106979
0.0006307385
0.00062037177
0.00060991009
0.00059941702
0.00058882476
0.00057820597
0.00056748322
0.0005567398
0.00054588701
0.00053502054
0.00052403855
0.00051305124
0.00050194137
0.0004908361
0.00047960023
0.0004683807
0.00045702135
0.00044569222
0.00043421263
0.00042277963
0.0004111839
0.0003996541
0.00038794737
0.00037632939
0.00036451801
0.0003528223
0.00034091405
0.0003291532
0.00031715752
0.00030534677
0.00029327516
0.00028143293
0.0002692994
0.00025744789
0.00024526912
0.00023343472
0.00022123071
0.00020944589
0.00019724162
0.00018554615
0.00017337191
0.00016181455
0.00014970747
0.00013834879
0.00012635482
0.00011527005
0.00010344614
9.2730918e-05
8.1147948e-05
7.0924994e-05
5.9671821e-05
5.0103739e-05
3.9296178e-05
3.0606663e-05
2.0390514e-05
1.2825822e-05
3.1520022e-06
0.0095623218
0.009203859
0.0086500188
0.0079182836
0.0070537502
0.0061302419
0.0052280936
0.0044079885
0.0037009176
0.0031160065
0.0026522556
0.002304348
0.0020621319
0.001908399
0.0018196954
0.001771208
0.0017424485
0.001720207
0.0016982271
0.0016749594
0.0016510995
0.0016278574
0.0016061377
0.0015863556
0.0015685607
0.0015526112
0.0015383064
0.0015254422
0.0015138319
0.001503298
0.0014936739
0.0014848
0.0014765349
0.0014687536
0.0014613563
0.0014542607
0.0014474065
0.0014407443
0.0014342393
0.0014278614
0.0014215902
0.0014154055
0.0014092943
0.0014032414
0.001397238
0.0013912714
0.0013853352
0.0013794183
0.001373516
0.0013676185
0.0013617227
0.00135582
0.0013499085
0.0013439807
0.0013380358
0.0013320672
0.0013260754
0.0013200541
0.0013140048
0.0013079217
0.0013018072
0.0012956555
0.0012894697
0.0012832442
0.0012769826
0.0012706793
0.0012643384
0.0012579543
0.0012515315
0.0012450642
0.0012385573
0.0012320049
0.0012254124
0.0012187736
0.0012120942
0.0012053677
0.0011986003
0.0011917852
0.0011849288
0.0011780243
0.0011710782
0.0011640835
0.001157047
0.0011499613
0.0011428337
0.0011356564
0.001128437
0.0011211673
0.0011138553
0.0011064926
0.0010990874
0.0010916308
0.0010841316
0.0010765804
0.0010689863
0.0010613395
0.0010536496
0.0010459063
0.0010381195
0.0010302785
0.0010223938
0.0010144541
0.0010064703
0.00099843056
0.0009903464
0.00098220542
0.00097401961
0.00096577599
0.00095748715
0.00094913946
0.00094074615
0.00093229288
0.00092379364
0.00091523327
0.00090662657
0.00089795751
0.0008892418
0.00088046241
0.00087163612
0.00086274477
0.00085380632
0.00084480134
0.00083574915
0.00082662888
0.00081746139
0.00080822417
0.00079893984
0.00078958403
0.00078018141
0.00077070543
0.00076118312
0.00075158543
0.00074194212
0.00073222125
0.00072245576
0.00071261036
0.00070272164
0.00069275045
0.00068273764
0.00067263954
0.00066250198
0.00065227601
0.00064201327
0.00063165868
0.00062127061
0.00061078685
0.00060027363
0.00058966041
0.00057902261
0.00056827996
0.00055751859
0.00054664688
0.00053576345
0.00052476348
0.00051376014
0.00050263316
0.00049151273
0.00048026056
0.00046902669
0.00045765181
0.00044630909
0.00043481468
0.00042336881
0.00041175893
0.00040021691
0.00038849665
0.00037686705
0.00036504275
0.00035333595
0.00034141532
0.00032964387
0.00031763633
0.00030581538
0.00029373242
0.00028188032
0.00026973591
0.00025787476
0.00024568557
0.00023384166
0.00022162769
0.00020983332
0.00019761956
0.0001859143
0.00017373109
0.00016216343
0.00015004794
0.00013867805
0.00012667636
0.00011557888
0.00010374818
9.3017738e-05
8.1429405e-05
7.1186957e-05
5.9931027e-05
5.03354e-05
3.9531168e-05
3.0795345e-05
2.0597655e-05
1.2913364e-05
3.2490974e-06
0.0090793415
0.0087473257
0.0082598677
0.0076302548
0.0068896093
0.006088955
0.0052893793
0.0045446337
0.0038889756
0.0033368323
0.0028898141
0.0025431249
0.002287995
0.0021113321
0.0019957013
0.0019216512
0.001871637
0.0018329703
0.0017985129
0.001765501
0.0017336753
0.0017036734
0.0016761007
0.0016512019
0.0016288985
0.0016089331
0.001591005
0.0015748332
0.0015601801
0.0015468372
0.0015346208
0.0015233583
0.0015128965
0.0015030963
0.0014938431
0.0014850392
0.0014766098
0.0014684914
0.0014606379
0.0014530076
0.0014455712
0.0014382993
0.0014311722
0.0014241676
0.0014172713
0.001410465
0.0014037385
0.0013970762
0.0013904705
0.0013839078
0.0013773827
0.0013708835
0.0013644067
0.0013579417
0.001351487
0.001345033
0.0013385795
0.0013321178
0.0013256491
0.0013191653
0.0013126684
0.0013061508
0.0012996154
0.0012930548
0.0012864726
0.0012798616
0.001273226
0.0012665585
0.0012598641
0.0012531352
0.0012463776
0.0012395834
0.0012327587
0.0012258958
0.0012190012
0.0012120666
0.0012050993
0.0011980908
0.0011910485
0.0011839637
0.0011768445
0.0011696816
0.0011624836
0.001155241
0.0011479625
0.0011406385
0.001133278
0.001125871
0.0011184271
0.0011109357
0.0011034069
0.0010958297
0.0010882146
0.0010805501
0.0010728474
0.0010650942
0.0010573022
0.0010494589
0.0010415763
0.0010336413
0.0010256665
0.0010176382
0.0010095697
0.0010014467
0.00099328279
0.00098506327
0.00097680244
0.00096848477
0.00096012529
0.00095170775
0.0009432479
0.00093472873
0.00092616677
0.00091754418
0.00090887836
0.00090015053
0.00089137907
0.00088254417
0.00087366529
0.00086472146
0.00085573338
0.00084667878
0.00083757975
0.00082841254
0.00081920083
0.00080991919
0.00080059312
0.00079119526
0.00078175321
0.00077223741
0.00076267784
0.00075304243
0.00074336391
0.0007336073
0.00072380854
0.00071392924
0.00070400909
0.00069400575
0.00068396321
0.00067383461
0.00066366895
0.00065341404
0.00064312472
0.00063274264
0.00062232943
0.00061181955
0.00060128255
0.00059064451
0.0005799842
0.00056921796
0.00055843528
0.00054754114
0.00053663753
0.00052561621
0.00051459374
0.00050344644
0.00049230788
0.00048103637
0.0004697853
0.00045839198
0.00044703293
0.00043552094
0.00042405954
0.0004124329
0.00040087607
0.00038913984
0.00037749609
0.00036565655
0.00035393619
0.00034200103
0.00033021652
0.00031819513
0.00030636152
0.00029426537
0.00028240091
0.00027024396
0.00025837061
0.00024616953
0.0002343134
0.00022208822
0.00021028141
0.00019805714
0.00018633892
0.00017414597
0.00016256443
0.00015044013
0.00013905483
0.00012704547
0.00011593016
0.00010409335
9.3341223e-05
8.1749129e-05
7.1478528e-05
6.0223007e-05
5.058738e-05
3.9792416e-05
3.0990732e-05
2.0820355e-05
1.2987839e-05
3.3443423e-06
0.0086473226
0.0083401954
0.0079081335
0.0073614197
0.0067225943
0.0060277474
0.0053225163
0.0046514042
0.0040475387
0.0035286463
0.0030996608
0.0027576646
0.0024953872
0.0023024373
0.002165588
0.0020698242
0.0020006632
0.0019465737
0.0019001307
0.0018576728
0.001818075
0.0017814021
0.0017479646
0.0017178679
0.0016909473
0.0016668625
0.0016452289
0.001625689
0.0016079474
0.0015917565
0.0015769094
0.0015632179
0.0015505166
0.0015386531
0.0015274997
0.0015169435
0.0015068961
0.0014972804
0.0014880386
0.0014791181
0.0014704804
0.0014620874
0.0014539125
0.001445926
0.0014381086
0.0014304364
0.001422895
0.0014154642
0.0014081335
0.0014008852
0.0013937121
0.0013865985
0.0013795398
0.0013725222
0.0013655429
0.0013585898
0.0013516618
0.0013447478
0.0013378485
0.0013309533
0.0013240642
0.0013171713
0.0013102777
0.0013033737
0.0012964634
0.0012895373
0.0012826003
0.0012756429
0.0012686709
0.0012616747
0.0012546609
0.0012476195
0.0012405579
0.0012334661
0.0012263518
0.0012192047
0.0012120334
0.0012048272
0.0011975951
0.0011903262
0.00118303
0.0011756953
0.0011683322
0.0011609289
0.0011534961
0.0011460217
0.0011385168
0.0011309688
0.0011233895
0.0011157657
0.0011081099
0.0011004083
0.0010926738
0.0010848924
0.0010770773
0.001069214
0.0010613164
0.0010533692
0.001045387
0.001037354
0.0010292854
0.0010211646
0.0010130075
0.001004797
0.00099654957
0.00098824732
0.00097990754
0.00097151158
0.00096307748
0.0009545858
0.0009460554
0.00093746597
0.00092883727
0.00092014808
0.0009114191
0.0009026281
0.00089379684
0.00088490199
0.00087596648
0.00086696574
0.00085792402
0.00084881538
0.00083966551
0.00083044696
0.00082118707
0.00081185664
0.00080248489
0.00079304065
0.00078355529
0.00077399537
0.00076439474
0.00075471737
0.00074499991
0.00073520337
0.00072536767
0.00071545037
0.00070549517
0.00069545564
0.00068537987
0.00067521681
0.0006650196
0.00065473187
0.00064441261
0.00063399926
0.00062355764
0.00061301796
0.00060245399
0.00059178755
0.00058110164
0.00057030832
0.00055950132
0.00054858135
0.00053765464
0.00052660869
0.00051556426
0.00050439346
0.00049323402
0.00048194009
0.00047066914
0.00045925443
0.00044787643
0.00043634403
0.00042486453
0.00041321843
0.00040164428
0.00038988949
0.00037822911
0.00036637189
0.0003546355
0.0003426835
0.00033088345
0.00031884606
0.00030699727
0.00029488595
0.00028300653
0.00027083524
0.00025894697
0.00024673241
0.00023486116
0.0002226234