/*--------------------------------*- C++ -*----------------------------------*\
| =========                 |                                                 |
| \\      /  F ield         | OpenFOAM: The Open Source CFD Toolbox           |
|  \\    /   O peration     | Version:  5.x                                   |
|   \\  /    A nd           | Web:      www.OpenFOAM.org                      |
|    \\/     M anipulation  |                                                 |
\*---------------------------------------------------------------------------*/
FoamFile
{
    version     2.0;
    format      ascii;
    class       surfaceScalarField;
    location    "0.8";
    object      phi;
}
// * * * * * * * * * * * * * * * * * * * * * * * * * * * * * * * * * * * * * //

dimensions      [0 3 -1 0 0 0 0];

internalField   nonuniform List<scalar> 
42870
(
3.6477864e-08
3.0076822e-09
-3.9485547e-08
3.267018e-08
3.8076847e-09
2.8879259e-08
3.790921e-09
2.528264e-08
3.5966184e-09
2.1876932e-08
3.4057082e-09
1.8729678e-08
3.1472544e-09
1.5966534e-08
2.763144e-09
1.3680745e-08
2.2857888e-09
1.189123e-08
1.7895144e-09
1.0564801e-08
1.3264296e-09
9.6156304e-09
9.4917035e-10
8.9446621e-09
6.7096828e-10
8.4647359e-09
4.7992626e-10
8.1088622e-09
3.5587369e-10
7.829503e-09
2.7935914e-10
7.5935898e-09
2.359132e-10
7.3807672e-09
2.1282258e-10
7.1805577e-09
2.0020952e-10
6.9887181e-09
1.9183962e-10
6.8042652e-09
1.8445294e-10
6.6275667e-09
1.7669842e-10
6.4592865e-09
1.6828021e-10
6.2998975e-09
1.5938903e-10
6.149528e-09
1.5036945e-10
6.0079799e-09
1.4154813e-10
5.8748143e-09
1.3316559e-10
5.7494506e-09
1.2536369e-10
5.6312441e-09
1.1820656e-10
5.5195479e-09
1.1169614e-10
5.4137512e-09
1.0579677e-10
5.313299e-09
1.0045218e-10
5.2176977e-09
9.5601253e-11
5.1265152e-09
9.1182576e-11
5.0393738e-09
8.7141363e-11
4.955946e-09
8.3427826e-11
4.8759451e-09
8.0000864e-11
4.799121e-09
7.6824127e-11
4.725252e-09
7.3869e-11
4.6541421e-09
7.1109852e-11
4.5856149e-09
6.8527268e-11
4.5195119e-09
6.6102991e-11
4.4556881e-09
6.3823724e-11
4.3940123e-09
6.1675887e-11
4.3343622e-09
5.965006e-11
4.2766267e-09
5.7735526e-11
4.2207013e-09
5.5925325e-11
4.1664908e-09
5.421051e-11
4.1139051e-09
5.2585772e-11
4.0628617e-09
5.1043317e-11
4.0132827e-09
4.9579052e-11
3.9650966e-09
4.8186055e-11
3.9182354e-09
4.6861229e-11
3.8726371e-09
4.5598296e-11
3.8282421e-09
4.4395007e-11
3.7849965e-09
4.3245626e-11
3.7428478e-09
4.214866e-11
3.701749e-09
4.1098801e-11
3.6616538e-09
4.0095229e-11
3.6225208e-09
3.9132979e-11
3.584309e-09
3.8211814e-11
3.546982e-09
3.732704e-11
3.510503e-09
3.6478928e-11
3.4748401e-09
3.5662972e-11
3.4399601e-09
3.4879904e-11
3.4058348e-09
3.4125344e-11
3.3724344e-09
3.3400428e-11
3.3397335e-09
3.2700857e-11
3.3077054e-09
3.2028122e-11
3.2763274e-09
3.1377975e-11
3.2455752e-09
3.0752224e-11
3.2154286e-09
3.0146636e-11
3.1858652e-09
2.9563321e-11
3.1568672e-09
2.8998039e-11
3.128414e-09
2.8453166e-11
3.1004896e-09
2.7924438e-11
3.0730751e-09
2.7414479e-11
3.0461561e-09
2.6918995e-11
3.0197153e-09
2.6440829e-11
2.9937396e-09
2.597565e-11
2.9682131e-09
2.5526506e-11
2.9431241e-09
2.5089023e-11
2.9184577e-09
2.4666432e-11
2.8942034e-09
2.4254318e-11
2.8703473e-09
2.3856076e-11
2.84688e-09
2.3467254e-11
2.8237886e-09
2.3091387e-11
2.8010646e-09
2.2723994e-11
2.7786959e-09
2.2368729e-11
2.7566748e-09
2.2021092e-11
2.73499e-09
2.1684833e-11
2.7136345e-09
2.1355445e-11
2.6925978e-09
2.1036751e-11
2.6718735e-09
2.0724252e-11
2.6514517e-09
2.0421817e-11
2.6313267e-09
2.0124978e-11
2.6114891e-09
1.9837622e-11
2.5919338e-09
1.9555329e-11
2.5726518e-09
1.9281976e-11
2.5536386e-09
1.9013219e-11
2.5348857e-09
1.8752891e-11
2.516389e-09
1.8496747e-11
2.4981404e-09
1.824855e-11
2.4801362e-09
1.8004183e-11
2.4623689e-09
1.7767302e-11
2.444835e-09
1.7533945e-11
2.4275273e-09
1.730763e-11
2.4104428e-09
1.7084585e-11
2.3935746e-09
1.686815e-11
2.3769198e-09
1.6654775e-11
2.3604722e-09
1.6447591e-11
2.3442289e-09
1.6243298e-11
2.3281842e-09
1.6044784e-11
2.3123351e-09
1.5849033e-11
2.2966765e-09
1.5658655e-11
2.2812055e-09
1.5470948e-11
2.2659173e-09
1.5288212e-11
2.2508092e-09
1.5108092e-11
2.2358767e-09
1.4932544e-11
2.2211171e-09
1.4759586e-11
2.2065263e-09
1.4590806e-11
2.1921017e-09
1.4424616e-11
2.1778394e-09
1.4262215e-11
2.163737e-09
1.4102429e-11
2.149791e-09
1.394605e-11
2.1359986e-09
1.3792327e-11
2.122357e-09
1.364164e-11
2.1088633e-09
1.3493661e-11
2.095515e-09
1.3348362e-11
2.0823091e-09
1.3205828e-11
2.0692435e-09
1.3065637e-11
2.0563152e-09
1.2928265e-11
2.0435223e-09
1.2792929e-11
2.0308619e-09
1.2660449e-11
2.0183321e-09
1.2529736e-11
2.0059302e-09
1.2401892e-11
1.9936546e-09
1.2275592e-11
1.9815025e-09
1.2152136e-11
1.9694724e-09
1.2030064e-11
1.9575617e-09
1.1910753e-11
1.9457689e-09
1.1792746e-11
1.9340916e-09
1.1677343e-11
1.9225283e-09
1.1563262e-11
1.9110768e-09
1.1451529e-11
1.8997355e-09
1.1341262e-11
1.8885026e-09
1.1232959e-11
1.8773762e-09
1.1126418e-11
1.8663549e-09
1.1021301e-11
1.8554364e-09
1.0918426e-11
1.8446202e-09
1.0816242e-11
1.8339032e-09
1.0717008e-11
1.8232857e-09
1.0617489e-11
1.8127638e-09
1.0521902e-11
1.802339e-09
1.0424765e-11
1.7920062e-09
1.0332874e-11
1.7817684e-09
1.023781e-11
1.7716186e-09
1.0149706e-11
1.7615623e-09
1.0056378e-11
1.7515901e-09
9.9722054e-12
1.7417098e-09
9.8802408e-12
1.7319096e-09
9.800202e-12
1.7222004e-09
9.7091833e-12
1.7125669e-09
9.633552e-12
1.7030239e-09
9.5430076e-12
1.6935517e-09
9.4721396e-12
1.6841702e-09
9.3815303e-12
1.6748543e-09
9.3158809e-12
1.6656297e-09
9.2245851e-12
1.656465e-09
9.1647299e-12
1.647393e-09
9.0720268e-12
1.6383743e-09
9.0186872e-12
1.6294506e-09
8.9237351e-12
1.6205727e-09
8.8778095e-12
1.6117931e-09
8.7796165e-12
1.6030509e-09
8.7422241e-12
1.5944113e-09
8.6396123e-12
1.5857991e-09
8.6121477e-12
1.5772954e-09
8.5037089e-12
1.5688075e-09
8.487917e-12
1.5604356e-09
8.3719598e-12
1.5520655e-09
8.3700333e-12
1.543821e-09
8.2444957e-12
1.5355618e-09
8.2592001e-12
1.5274403e-09
8.1215639e-12
1.5192838e-09
8.1564435e-12
1.5112803e-09
8.0035775e-12
1.503217e-09
8.0632011e-12
1.4953259e-09
7.891183e-12
1.4873443e-09
7.9815597e-12
1.4795589e-09
7.7853873e-12
1.4716443e-09
7.9145859e-12
1.4639566e-09
7.6877248e-12
1.4560897e-09
7.8669318e-12
1.4484891e-09
7.6006209e-12
1.4406431e-09
7.8460019e-12
1.4331152e-09
7.5278654e-12
1.4252509e-09
7.8642518e-12
1.4177759e-09
7.4750727e-12
1.4098313e-09
7.9446097e-12
1.4023823e-09
7.4489077e-12
8.5283189e-12
4.2104963e-08
2.7426771e-09
-4.1839958e-08
4.1942667e-08
3.9699802e-09
4.1257062e-08
4.4765262e-09
4.0294627e-08
4.5590536e-09
3.9154376e-08
4.545959e-09
3.7831796e-08
4.4698342e-09
3.6344376e-08
4.2505647e-09
3.4752868e-08
3.8772965e-09
3.314325e-08
3.3991323e-09
3.1584997e-08
2.8846829e-09
3.0124936e-08
2.4092308e-09
2.8781402e-08
2.0145027e-09
2.7554471e-08
1.7068576e-09
2.6437605e-08
1.4727396e-09
2.5427329e-08
1.2896349e-09
2.4512922e-08
1.1503197e-09
2.3682572e-08
1.0431729e-09
2.2925118e-08
9.5766357e-10
2.2230751e-08
8.8620659e-10
2.1591162e-08
8.2404218e-10
2.0999452e-08
7.6840878e-10
2.0449939e-08
7.1779235e-10
1.9937922e-08
6.7140668e-10
1.9459436e-08
6.2885481e-10
1.9011078e-08
5.8990642e-10
1.8589875e-08
5.5436839e-10
1.8193208e-08
5.2203075e-10
1.7818746e-08
4.9266901e-10
1.7464416e-08
4.6602561e-10
1.7128382e-08
4.4183161e-10
1.6809015e-08
4.198183e-10
1.6504881e-08
3.9973579e-10
1.621471e-08
3.8135319e-10
1.5937383e-08
3.6446861e-10
1.5671909e-08
3.489021e-10
1.5417408e-08
3.3450205e-10
1.5173097e-08
3.2113484e-10
1.4938275e-08
3.0869063e-10
1.4712313e-08
2.9707169e-10
1.4494642e-08
2.8619909e-10
1.4284744e-08
2.7600051e-10
1.4082149e-08
2.6641845e-10
1.3886427e-08
2.5739771e-10
1.3697182e-08
2.4889524e-10
1.3514051e-08
2.4086722e-10
1.3336695e-08
2.3328046e-10
1.3164807e-08
2.2609889e-10
1.2998097e-08
2.192963e-10
1.2836298e-08
2.1284209e-10
1.2679161e-08
2.0671537e-10
1.2526458e-08
2.0088977e-10
1.237797e-08
1.9534864e-10
1.22335e-08
1.9006888e-10
1.2092857e-08
1.8503735e-10
1.1955869e-08
1.8023363e-10
1.182237e-08
1.7564758e-10
1.1692208e-08
1.7126091e-10
1.1565238e-08
1.6706607e-10
1.1441324e-08
1.6304649e-10
1.1320339e-08
1.5919681e-10
1.1202164e-08
1.5550186e-10
1.1086685e-08
1.5195811e-10
1.0973796e-08
1.4855149e-10
1.0863396e-08
1.4528008e-10
1.0755391e-08
1.4213065e-10
1.0649689e-08
1.3910264e-10
1.0546206e-08
1.361835e-10
1.044486e-08
1.3337385e-10
1.0345577e-08
1.3066165e-10
1.024828e-08
1.2804853e-10
1.0152904e-08
1.2552286e-10
1.005938e-08
1.2308719e-10
9.9676482e-09
1.207302e-10
9.8776461e-09
1.1845523e-10
9.7893194e-09
1.162512e-10
9.7026117e-09
1.1412214e-10
9.6174735e-09
1.120572e-10
9.5338533e-09
1.1006097e-10
9.4517062e-09
1.0812282e-10
9.3709848e-09
1.0624782e-10
9.2916483e-09
1.0442553e-10
9.2136534e-09
1.0266141e-10
9.1369624e-09
1.0094524e-10
9.0615357e-09
9.9282788e-11
8.9873389e-09
9.7664042e-11
8.9143353e-09
9.6094978e-11
8.8424935e-09
9.4565865e-11
8.7717794e-09
9.3082773e-11
8.7021642e-09
9.1636291e-11
8.6336166e-09
9.0232486e-11
8.5661097e-09
8.8862331e-11
8.4996146e-09
8.753178e-11
8.4341066e-09
8.6232263e-11
8.3695589e-09
8.4969505e-11
8.3059484e-09
8.373549e-11
8.2432505e-09
8.2535575e-11
8.1814434e-09
8.1362406e-11
8.1205045e-09
8.0220832e-11
8.0604135e-09
7.9104284e-11
8.0011494e-09
7.8016951e-11
7.942693e-09
7.6953183e-11
7.8850252e-09
7.5916341e-11
7.8281275e-09
7.4901856e-11
7.7719827e-09
7.3912084e-11
7.716573e-09
7.2943688e-11
7.6618828e-09
7.1997841e-11
7.6078947e-09
7.107263e-11
7.5545951e-09
7.016782e-11
7.5019667e-09
6.9283129e-11
7.4499976e-09
6.8416703e-11
7.3986708e-09
6.7570093e-11
7.347976e-09
6.6739599e-11
7.2978962e-09
6.5928836e-11
7.2484228e-09
6.5132011e-11
7.1995387e-09
6.435505e-11
7.1512371e-09
6.3589796e-11
7.1035005e-09
6.2844757e-11
7.0563239e-09
6.2109131e-11
7.0096892e-09
6.1394285e-11
6.9635935e-09
6.0686481e-11
6.9180179e-09
6.0000238e-11
6.8729615e-09
5.9318572e-11
6.8284045e-09
5.865947e-11
6.7843482e-09
5.8002379e-11
6.7407714e-09
5.7369068e-11
6.697678e-09
5.6735088e-11
6.6550453e-09
5.6126325e-11
6.6128796e-09
5.5514089e-11
6.5711567e-09
5.4928726e-11
6.5298854e-09
5.4336955e-11
6.4890397e-09
5.3773931e-11
6.4486312e-09
5.3201424e-11
6.4086319e-09
5.2659758e-11
6.3690562e-09
5.2105393e-11
6.3298739e-09
5.1584175e-11
6.2911026e-09
5.1046899e-11
6.2527095e-09
5.0545283e-11
6.2147154e-09
5.0024107e-11
6.1770849e-09
4.9541304e-11
6.1398423e-09
4.9035306e-11
6.1029491e-09
4.8570581e-11
6.0664335e-09
4.8078897e-11
6.0302534e-09
4.7631557e-11
5.9944413e-09
4.7153387e-11
5.9589515e-09
4.6722776e-11
5.9238205e-09
4.6257375e-11
5.888999e-09
4.5842872e-11
5.8545278e-09
4.5389556e-11
5.8203535e-09
4.499056e-11
5.7865218e-09
4.4548712e-11
5.7529746e-09
4.4164642e-11
5.7197628e-09
4.3733709e-11
5.6868236e-09
4.3363991e-11
5.654213e-09
4.2943496e-11
5.6218632e-09
4.2587552e-11
5.5898359e-09
4.2177097e-11
5.5580579e-09
4.1834336e-11
5.5265965e-09
4.1433622e-11
5.4953733e-09
4.1103428e-11
5.4644612e-09
4.071226e-11
5.4337764e-09
4.0393979e-11
5.4033977e-09
4.0012293e-11
5.3732355e-09
3.9705214e-11
5.3433745e-09
3.9333096e-11
5.3137196e-09
3.9036427e-11
5.2843614e-09
3.8674153e-11
5.2551989e-09
3.8386995e-11
5.2263286e-09
3.8035075e-11
5.1976442e-09
3.7756391e-11
5.1692473e-09
3.7415622e-11
5.1410268e-09
3.7144201e-11
5.1130889e-09
3.6815739e-11
5.0853184e-09
3.6550139e-11
5.057825e-09
3.6235598e-11
5.0304905e-09
3.5974088e-11
5.003427e-09
3.5675668e-11
4.9765146e-09
3.541614e-11
4.9498657e-09
3.5136802e-11
4.923361e-09
3.4876682e-11
4.8971106e-09
3.4620379e-11
4.8709987e-09
3.4356476e-11
4.8451294e-09
3.4128474e-11
4.8193941e-09
3.3856819e-11
4.7938864e-09
3.3664165e-11
4.7685102e-09
3.3379756e-11
4.7433415e-09
3.323192e-11
4.7183043e-09
3.2928417e-11
4.6934475e-09
3.2838295e-11
4.6687254e-09
3.2507572e-11
4.6441469e-09
3.2493013e-11
4.6197101e-09
3.2124517e-11
4.5953662e-09
3.2210834e-11
4.5711761e-09
3.1790767e-11
4.5470071e-09
3.2014994e-11
4.5230098e-09
3.1525139e-11
4.4989307e-09
3.1943343e-11
4.4750467e-09
3.1359107e-11
4.4509291e-09
3.2062159e-11
4.427035e-09
3.1343014e-11
3.3601013e-11
4.4025802e-08
2.5882757e-09
-4.38714e-08
4.4407627e-08
3.5881546e-09
4.4608241e-08
4.2759126e-09
4.4658277e-08
4.5090178e-09
4.4624694e-08
4.5795414e-09
4.4504057e-08
4.5904713e-09
4.4242074e-08
4.5125478e-09
4.3817836e-08
4.3015348e-09
4.325162e-08
3.965348e-09
4.2578793e-08
3.5575106e-09
4.1841038e-08
3.1469853e-09
4.1070646e-08
2.7848948e-09
4.028711e-08
2.4903936e-09
3.9502582e-08
2.257268e-09
3.8722478e-08
2.0697382e-09
3.7953838e-08
1.9189602e-09
3.7200717e-08
1.7962934e-09
3.646505e-08
1.693331e-09
3.5747813e-08
1.6034435e-09
3.5049644e-08
1.5222112e-09
3.4371049e-08
1.4470037e-09
3.3712449e-08
1.376392e-09
3.3074176e-08
1.3096797e-09
3.2456443e-08
1.246588e-09
3.1859313e-08
1.1870363e-09
3.1282691e-08
1.1309905e-09
3.0726327e-08
1.0783945e-09
3.0189818e-08
1.0291779e-09
2.9672641e-08
9.8320354e-10
2.9174174e-08
9.4029801e-10
2.8693733e-08
9.0025995e-10
2.8230584e-08
8.6288453e-10
2.7783974e-08
8.2796337e-10
2.735314e-08
7.9530224e-10
2.6937329e-08
7.6471329e-10
2.6535802e-08
7.3602921e-10
2.6147845e-08
7.0909096e-10
2.5772775e-08
6.8376081e-10
2.5409939e-08
6.5990753e-10
2.5058719e-08
6.3741983e-10
2.4718529e-08
6.1618978e-10
2.438882e-08
5.9612757e-10
2.4069074e-08
5.7714369e-10
2.3758804e-08
5.5916523e-10
2.3457555e-08
5.421169e-10
2.3164896e-08
5.2593907e-10
2.2880427e-08
5.1056755e-10
2.260377e-08
4.9595332e-10
2.2334572e-08
4.8204093e-10
2.2072497e-08
4.6879004e-10
2.1817234e-08
4.561525e-10
2.1568488e-08
4.4409524e-10
2.1325981e-08
4.3257592e-10
2.108945e-08
4.2156763e-10
2.0858651e-08
4.1103292e-10
2.0633348e-08
4.0095014e-10
2.0413324e-08
3.9128578e-10
2.0198367e-08
3.8202273e-10
1.9988283e-08
3.7313079e-10
1.9782883e-08
3.6459662e-10
1.9581992e-08
3.5639281e-10
1.9385441e-08
3.4850923e-10
1.9193072e-08
3.4092067e-10
1.9004732e-08
3.3361982e-10
1.8820279e-08
3.2658328e-10
1.8639576e-08
3.1980615e-10
1.8462493e-08
3.1326651e-10
1.8288905e-08
3.0696148e-10
1.8118696e-08
3.0087048e-10
1.7951752e-08
2.949923e-10
1.7787968e-08
2.8930743e-10
1.7627239e-08
2.8381621e-10
1.7469469e-08
2.7850008e-10
1.7314564e-08
2.7336059e-10
1.7162435e-08
2.6838004e-10
1.7012996e-08
2.6356102e-10
1.6866166e-08
2.5888664e-10
1.6721867e-08
2.5436029e-10
1.6580024e-08
2.4996589e-10
1.6440564e-08
2.4570741e-10
1.630342e-08
2.4156961e-10
1.6168525e-08
2.3755681e-10
1.6035815e-08
2.3365468e-10
1.5905231e-08
2.298677e-10
1.5776712e-08
2.2618246e-10
1.5650204e-08
2.226034e-10
1.5525651e-08
2.1911819e-10
1.5403003e-08
2.1573094e-10
1.5282209e-08
2.1243054e-10
1.5163221e-08
2.0922054e-10
1.5045992e-08
2.0609121e-10
1.4930479e-08
2.0304525e-10
1.4816636e-08
2.0007456e-10
1.4704425e-08
1.9718068e-10
1.4593803e-08
1.9435736e-10
1.4484734e-08
1.9160467e-10
1.4377178e-08
1.8891849e-10
1.4271102e-08
1.8629705e-10
1.4166467e-08
1.8373871e-10
1.4063245e-08
1.8123946e-10
1.3961398e-08
1.7880048e-10
1.3860899e-08
1.764151e-10
1.3761713e-08
1.7408775e-10
1.3663816e-08
1.7180863e-10
1.3567174e-08
1.6958584e-10
1.3471766e-08
1.6740597e-10
1.3377557e-08
1.652813e-10
1.3284531e-08
1.6319421e-10
1.3192652e-08
1.6116176e-10
1.3101908e-08
1.5916151e-10
1.3012262e-08
1.5721585e-10
1.2923705e-08
1.5529692e-10
1.28362e-08
1.5343311e-10
1.2749742e-08
1.5159039e-10
1.2664293e-08
1.4980388e-10
1.257985e-08
1.4803263e-10
1.2496376e-08
1.4631926e-10
1.241387e-08
1.4461504e-10
1.2332293e-08
1.4297099e-10
1.225165e-08
1.4132968e-10
1.2171899e-08
1.3975143e-10
1.2093048e-08
1.3816917e-10
1.2015054e-08
1.3665353e-10
1.193793e-08
1.3512669e-10
1.1861628e-08
1.336707e-10
1.1786167e-08
1.3219588e-10
1.1711497e-08
1.3079684e-10
1.163764e-08
1.2937084e-10
1.1564543e-08
1.2802628e-10
1.1492233e-08
1.2664606e-10
1.1420654e-08
1.2535374e-10
1.1349839e-08
1.2401642e-10
1.1279724e-08
1.2277427e-10
1.1210352e-08
1.2147712e-10
1.1141653e-08
1.2028329e-10
1.1073676e-08
1.1902371e-10
1.1006345e-08
1.1787649e-10
1.0939717e-08
1.1665199e-10
1.0873709e-08
1.1554985e-10
1.0808386e-08
1.1435805e-10
1.0743657e-08
1.1329963e-10
1.0679598e-08
1.1213823e-10
1.0616107e-08
1.1112229e-10
1.0553271e-08
1.0998909e-10
1.049098e-08
1.0901453e-10
1.0429329e-08
1.079074e-10
1.0368199e-08
1.0697327e-10
1.0307698e-08
1.0589016e-10
1.0247693e-08
1.049956e-10
1.0188308e-08
1.0393451e-10
1.0129393e-08
1.030788e-10
1.0071089e-08
1.0203782e-10
1.0013233e-08
1.0122033e-10
9.9559789e-09
1.0019761e-10
9.8991487e-09
9.941781e-11
9.8429142e-09
9.8411561e-11
9.7870795e-09
9.7669013e-11
9.7318356e-09
9.6677539e-11
9.6769672e-09
9.597188e-11
9.6226858e-09
9.4993572e-11
9.5687553e-09
9.4324508e-11
9.5154097e-09
9.3357872e-11
9.4623898e-09
9.2725163e-11
9.409954e-09
9.1768842e-11
9.3578182e-09
9.1172276e-11
9.3062672e-09
9.0225102e-11
9.2549898e-09
8.9664475e-11
9.2042993e-09
8.8725517e-11
9.1538551e-09
8.8200608e-11
9.1040015e-09
8.7269249e-11
9.0543659e-09
8.6779787e-11
9.0053258e-09
8.5855818e-11
8.9564745e-09
8.5401427e-11
8.9082249e-09
8.4485187e-11
8.8601337e-09
8.4065334e-11
8.8126514e-09
8.3157894e-11
8.7652958e-09
8.2771814e-11
8.7185573e-09
8.1875238e-11
8.6719122e-09
8.1521841e-11
8.625893e-09
8.0639532e-11
8.5799322e-09
8.0317275e-11
8.5346063e-09
7.9454468e-11
8.4893019e-09
7.916121e-11
8.4446403e-09
7.8325698e-11
8.3999616e-09
7.8058474e-11
8.3559319e-09
7.7261623e-11
8.3118439e-09
7.7016396e-11
8.2684075e-09
7.6274738e-11
8.224869e-09
7.6046084e-11
8.1819782e-09
7.5383751e-11
8.1389383e-09
7.5164491e-11
8.0965319e-09
7.4617186e-11
8.0539244e-09
7.439826e-11
8.0119195e-09
7.4019956e-11
7.9696538e-09
7.3790839e-11
7.9279317e-09
7.3665402e-11
7.8858779e-09
7.3412875e-11
7.8442457e-09
7.3694391e-11
7.8022487e-09
7.3339965e-11
7.6269008e-11
4.5951658e-08
2.5157873e-09
-4.587917e-08
4.6264251e-08
3.2755616e-09
4.6598478e-08
3.9416861e-09
4.6849267e-08
4.2582291e-09
4.7064148e-08
4.3646595e-09
4.7268635e-08
4.3859843e-09
4.7429432e-08
4.351751e-09
4.7505717e-08
4.2252498e-09
4.7478217e-08
3.9928482e-09
4.7350293e-08
3.6854348e-09
4.7141793e-08
3.3554856e-09
4.687591e-08
3.0507773e-09
4.6570576e-08
2.795728e-09
4.6235891e-08
2.5919527e-09
4.5876243e-08
2.4293861e-09
4.5497181e-08
2.298022e-09
4.5103279e-08
2.1901957e-09
4.469728e-08
2.0993299e-09
4.4280761e-08
2.0199629e-09
4.3854884e-08
1.9480874e-09
4.3420784e-08
1.8811044e-09
4.2979668e-08
1.8175078e-09
4.2532831e-08
1.7565161e-09
4.2081622e-08
1.6977977e-09
4.1627399e-08
1.6412592e-09
4.1171481e-08
1.5869079e-09
4.0715109e-08
1.5347668e-09
4.0259428e-08
1.484859e-09
3.9805473e-08
1.4371587e-09
3.9354163e-08
1.3916082e-09
3.8906306e-08
1.348117e-09
3.8462603e-08
1.3065876e-09
3.8023656e-08
1.2669099e-09
3.7589976e-08
1.2289825e-09
3.7161989e-08
1.1927003e-09
3.6740045e-08
1.1579731e-09
3.6324426e-08
1.1247094e-09
3.5915353e-08
1.0928344e-09
3.551299e-08
1.0622703e-09
3.5117454e-08
1.032956e-09
3.4728819e-08
1.0048252e-09
3.4347119e-08
9.7782716e-10
3.3972359e-08
9.5190355e-10
3.3604513e-08
9.2701117e-10
3.3243533e-08
9.0309719e-10
3.2889348e-08
8.8012387e-10
3.2541873e-08
8.5804228e-10
3.2201008e-08
8.3681898e-10
3.1866641e-08
8.1640794e-10
3.1538651e-08
7.9677942e-10
3.1216913e-08
7.778903e-10
3.0901294e-08
7.5971429e-10
3.059166e-08
7.4221072e-10
3.0287871e-08
7.2535664e-10
2.998979e-08
7.0911385e-10
2.9697277e-08
6.934627e-10
2.9410196e-08
6.7836716e-10
2.9128408e-08
6.6381078e-10
2.8851779e-08
6.4975974e-10
2.8580175e-08
6.3620042e-10
2.8313467e-08
6.2310111e-10
2.8051525e-08
6.1045074e-10
2.7794226e-08
5.982195e-10
2.7541447e-08
5.8639876e-10
2.729307e-08
5.7496036e-10
2.7048979e-08
5.6389787e-10
2.680906e-08
5.5318462e-10
2.6573206e-08
5.4281603e-10
2.6341309e-08
5.3276701e-10
2.6113267e-08
5.2303443e-10
2.588898e-08
5.1359464e-10
2.566835e-08
5.0444587e-10
2.5451285e-08
4.9556584e-10
2.5237691e-08
4.8695376e-10
2.5027483e-08
4.7858874e-10
2.4820573e-08
4.7047077e-10
2.4616879e-08
4.6258041e-10
2.4416321e-08
4.5491798e-10
2.4218822e-08
4.4746567e-10
2.4024305e-08
4.4022388e-10
2.3832698e-08
4.331765e-10
2.3643931e-08
4.2632364e-10
2.3457935e-08
4.196511e-10
2.3274644e-08
4.1315839e-10
2.3093993e-08
4.0683338e-10
2.2915922e-08
4.0067457e-10
2.2740368e-08
3.9467225e-10
2.2567276e-08
3.8882345e-10
2.2396585e-08
3.8312118e-10
2.2228245e-08
3.7756053e-10
2.2062199e-08
3.7213766e-10
2.1898399e-08
3.668452e-10
2.173679e-08
3.6168287e-10
2.1577331e-08
3.5664028e-10
2.1419967e-08
3.5172127e-10
2.126466e-08
3.4691178e-10
2.1111358e-08
3.4222031e-10
2.0960026e-08
3.3762847e-10
2.0810615e-08
3.3315011e-10
2.0663093e-08
3.287617e-10
2.051741e-08
3.244832e-10
2.037354e-08
3.2028511e-10
2.0231434e-08
3.1619433e-10
2.0091068e-08
3.1217445e-10
1.9952393e-08
3.0826021e-10
1.9815392e-08
3.0440732e-10
1.9680014e-08
3.0065939e-10
1.9546245e-08
2.9696309e-10
1.9414035e-08
2.9337205e-10
1.9283374e-08
2.8982268e-10
1.915421e-08
2.8637986e-10
1.9026538e-08
2.8296843e-10
1.8900305e-08
2.7966585e-10
1.8775512e-08
2.7638397e-10
1.8652101e-08
2.7321434e-10
1.853008e-08
2.7005415e-10
1.8409388e-08
2.6701075e-10
1.8290038e-08
2.6396488e-10
1.8171968e-08
2.6104153e-10
1.8055194e-08
2.5810309e-10
1.7939652e-08
2.5529412e-10
1.7825364e-08
2.5245659e-10
1.7712261e-08
2.4975681e-10
1.7600374e-08
2.4701404e-10
1.7489626e-08
2.444187e-10
1.7380057e-08
2.4176487e-10
1.7271584e-08
2.3926964e-10
1.7164256e-08
2.366992e-10
1.7057982e-08
2.3430013e-10
1.695282e-08
2.3180781e-10
1.6848672e-08
2.2950133e-10
1.6745607e-08
2.2708207e-10
1.6643516e-08
2.2486496e-10
1.6542479e-08
2.225139e-10
1.6442379e-08
2.2038327e-10
1.6343307e-08
2.1809573e-10
1.6245135e-08
2.16049e-10
1.6147966e-08
2.1382044e-10
1.6051661e-08
2.1185535e-10
1.5956337e-08
2.0968137e-10
1.5861841e-08
2.0779595e-10
1.5768307e-08
2.0567225e-10
1.5675565e-08
2.0386482e-10
1.5583766e-08
2.0178717e-10
1.5492725e-08
2.0005634e-10
1.5402611e-08
1.9802059e-10
1.5313219e-08
1.9636524e-10
1.5224742e-08
1.9436727e-10
1.5136951e-08
1.9278654e-10
1.5050064e-08
1.908223e-10
1.4963827e-08
1.8931563e-10
1.4878484e-08
1.8738104e-10
1.4793756e-08
1.8594812e-10
1.4709914e-08
1.8403915e-10
1.4626652e-08
1.8267995e-10
1.4544271e-08
1.8079254e-10
1.4462433e-08
1.7950728e-10
1.4381473e-08
1.7763741e-10
1.4301018e-08
1.7642659e-10
1.4221442e-08
1.7457022e-10
1.4142332e-08
1.7343461e-10
1.4064102e-08
1.715877e-10
1.3986299e-08
1.7052834e-10
1.390938e-08
1.6868691e-10
1.3832848e-08
1.677051e-10
1.3757207e-08
1.6586524e-10
1.3681909e-08
1.6496253e-10
1.3607515e-08
1.6312045e-10
1.3533416e-08
1.6229864e-10
1.3460235e-08
1.6045079e-10
1.3387303e-08
1.5971193e-10
1.3315304e-08
1.5785504e-10
1.3243504e-08
1.5720141e-10
1.3172656e-08
1.5533271e-10
1.3101955e-08
1.5476675e-10
1.3032228e-08
1.5288419e-10
1.2962592e-08
1.5240853e-10
1.2893956e-08
1.5051108e-10
1.2825349e-08
1.5012847e-10
1.2757772e-08
1.4821661e-10
1.269016e-08
1.4792983e-10
1.2623608e-08
1.4600618e-10
1.2556951e-08
1.4581803e-10
1.2491388e-08
1.4388835e-10
1.2425645e-08
1.4380147e-10
1.2361031e-08
1.4187609e-10
1.2296154e-08
1.4189289e-10
1.223244e-08
1.3998898e-10
1.2168375e-08
1.401115e-10
1.2105502e-08
1.3825662e-10
1.204218e-08
1.3848647e-10
1.1980073e-08
1.3672456e-10
1.1917408e-08
1.3706316e-10
1.1855962e-08
1.3546538e-10
1.1793839e-08
1.3591372e-10
1.1732903e-08
1.3460155e-10
1.1671171e-08
1.351451e-10
1.1610466e-08
1.3439901e-10
1.1548987e-08
1.3481921e-10
1.3791525e-10
4.7969288e-08
2.458357e-09
-4.7911858e-08
4.8196012e-08
3.0488385e-09
4.851297e-08
3.6247281e-09
4.8794742e-08
3.9764569e-09
4.9038433e-08
4.1209681e-09
4.9275545e-08
4.1488727e-09
4.9505345e-08
4.1219504e-09
4.9700259e-08
4.030336e-09
4.9834696e-08
3.8584112e-09
4.9899121e-08
3.62101e-09
4.9901474e-08
3.3531327e-09
4.9858351e-08
3.0939e-09
4.9784016e-08
2.8700633e-09
4.9686813e-08
2.6891555e-09
4.9570429e-08
2.54577e-09
4.9437746e-08
2.4307051e-09
4.9291412e-08
2.33653e-09
4.913305e-08
2.2576914e-09
4.8963251e-08
2.1897616e-09
4.8782045e-08
2.1292937e-09
4.8589328e-08
2.0738217e-09
4.8385075e-08
2.0217602e-09
4.816942e-08
1.9721719e-09
4.7942656e-08
1.9245613e-09
4.7705228e-08
1.8786877e-09
4.7457681e-08
1.8344547e-09
4.7200632e-08
1.7918157e-09
4.6934744e-08
1.7507472e-09
4.6660699e-08
1.7112032e-09
4.6379183e-08
1.6731249e-09
4.6090872e-08
1.6364275e-09
4.5796432e-08
1.6010279e-09
4.549651e-08
1.5668316e-09
4.5191734e-08
1.5337582e-09
4.4882711e-08
1.5017231e-09
4.4570024e-08
1.470661e-09
4.4254229e-08
1.4405036e-09
4.3935861e-08
1.4112028e-09
4.3615425e-08
1.3827061e-09
4.3293401e-08
1.3549805e-09
4.297024e-08
1.3279857e-09
4.2646367e-08
1.3017e-09
4.232218e-08
1.2760914e-09
4.1998045e-08
1.2511455e-09
4.1674307e-08
1.2268353e-09
4.135128e-08
1.203151e-09
4.1029254e-08
1.1800681e-09
4.0708493e-08
1.1575796e-09
4.0389239e-08
1.135662e-09
4.0071709e-08
1.11431e-09
3.9756098e-08
1.0935008e-09
3.9442582e-08
1.0732302e-09
3.9131318e-08
1.0534754e-09
3.8822441e-08
1.0342329e-09
3.8516075e-08
1.0154803e-09
3.8212323e-08
9.9721468e-10
3.7911277e-08
9.7941351e-10
3.7613013e-08
9.620747e-10
3.7317597e-08
9.4517584e-10
3.7025082e-08
9.287153e-10
3.6735512e-08
9.1267108e-10
3.6448921e-08
8.9704188e-10
3.6165334e-08
8.8180602e-10
3.588477e-08
8.6696273e-10
3.560724e-08
8.5249074e-10
3.5332748e-08
8.3838962e-10
3.5061294e-08
8.2463867e-10
3.4792872e-08
8.1123759e-10
3.4527473e-08
7.981667e-10
3.4265082e-08
7.8542546e-10
3.4005681e-08
7.7299526e-10
3.3749251e-08
7.6087551e-10
3.3495768e-08
7.4904883e-10
3.3245208e-08
7.3751407e-10
3.2997541e-08
7.262555e-10
3.2752741e-08
7.1527122e-10
3.2510774e-08
7.0454739e-10
3.2271611e-08
6.9408091e-10
3.2035216e-08
6.838603e-10
3.1801559e-08
6.7388088e-10
3.1570602e-08
6.641339e-10
3.1342313e-08
6.546126e-10
3.1116653e-08
6.4531141e-10
3.089359e-08
6.362211e-10
3.0673084e-08
6.273397e-10
3.0455103e-08
6.1865484e-10
3.0239607e-08
6.1016889e-10
3.0026565e-08
6.0186562e-10
2.9815933e-08
5.9375235e-10
2.9607686e-08
5.8580827e-10
2.9401777e-08
5.7804642e-10
2.9198182e-08
5.7044058e-10
2.8996854e-08
5.630103e-10
2.8797771e-08
5.5572305e-10
2.8600887e-08
5.4860588e-10
2.840618e-08
5.4161885e-10
2.8213602e-08
5.3479755e-10
2.8023137e-08
5.2809351e-10
2.7834735e-08
5.2155204e-10
2.7648382e-08
5.1511483e-10
2.7464027e-08
5.0883826e-10
2.728166e-08
5.0265271e-10
2.7101227e-08
4.9662713e-10
2.6922722e-08
4.9067906e-10
2.6746091e-08
4.8489152e-10
2.6571331e-08
4.7916752e-10
2.6398384e-08
4.7360604e-10
2.6227254e-08
4.6809352e-10
2.6057879e-08
4.6274693e-10
2.5890267e-08
4.5743406e-10
2.5724355e-08
4.5229199e-10
2.5560156e-08
4.4716758e-10
2.5397602e-08
4.4222042e-10
2.5236712e-08
4.372739e-10
2.5077413e-08
4.3251278e-10
2.4919733e-08
4.2773413e-10
2.4763593e-08
4.2315083e-10
2.4609027e-08
4.1853054e-10
2.4455952e-08
4.1411748e-10
2.4304408e-08
4.0964651e-10
2.4154306e-08
4.0539671e-10
2.4005696e-08
4.0106643e-10
2.3858479e-08
3.9697348e-10
2.3712717e-08
3.9277567e-10
2.3568302e-08
3.888337e-10
2.3425307e-08
3.8476043e-10
2.3283612e-08
3.8096411e-10
2.3143304e-08
3.7700776e-10
2.3004252e-08
3.7335225e-10
2.2866554e-08
3.6950548e-10
2.2730069e-08
3.6598643e-10
2.2594909e-08
3.6224208e-10
2.2460918e-08
3.5885563e-10
2.2328225e-08
3.5520675e-10
2.2196659e-08
3.5194947e-10
2.2066366e-08
3.4838928e-10
2.1937156e-08
3.4525821e-10
2.1809197e-08
3.4178002e-10
2.168228e-08
3.3877262e-10
2.1556591e-08
3.3536984e-10
2.1431903e-08
3.3248406e-10
2.1308425e-08
3.2915014e-10
2.1185906e-08
3.2638433e-10
2.106458e-08
3.2311277e-10
2.0944171e-08
3.2046573e-10
2.0824941e-08
3.1724999e-10
2.0706585e-08
3.1472099e-10
2.0589398e-08
3.115545e-10
2.0473042e-08
3.0914323e-10
2.0357844e-08
3.0601937e-10
2.0243434e-08
3.0372602e-10
2.0130177e-08
3.0063804e-10
2.0017662e-08
2.9846326e-10
1.9906297e-08
2.9540432e-10
1.9795627e-08
2.9334924e-10
1.9686108e-08
2.9031233e-10
1.9577236e-08
2.883786e-10
1.9469517e-08
2.8535658e-10
1.9362397e-08
2.8354636e-10
1.9256436e-08
2.805319e-10
1.9151022e-08
2.7884791e-10
1.9046777e-08
2.758335e-10
1.8943026e-08
2.7427903e-10
1.8840456e-08
2.7125698e-10
1.8738325e-08
2.698359e-10
1.8637392e-08
2.667984e-10
1.8536839e-08
2.6551521e-10
1.8437505e-08
2.6245432e-10
1.833849e-08
2.6131417e-10
1.8240719e-08
2.5822196e-10
1.81432e-08
2.5723064e-10
1.8046956e-08
2.5409926e-10
1.7950894e-08
2.5326328e-10
1.7856141e-08
2.5008514e-10
1.7761496e-08
2.4941174e-10
1.7668201e-08
2.4617979e-10
1.7574932e-08
2.4567695e-10
1.7483058e-08
2.4238508e-10
1.7391125e-08
2.4206156e-10
1.7300637e-08
2.3870515e-10
1.7209996e-08
2.385705e-10
1.7120855e-08
2.3514728e-10
1.7031461e-08
2.3521187e-10
1.6943626e-08
2.3172322e-10
1.685543e-08
2.3199817e-10
1.6768855e-08
2.2845113e-10
1.6681799e-08
2.2894827e-10
1.659643e-08
2.2535868e-10
1.6510451e-08
2.2609045e-10
1.6426219e-08
2.2248824e-10
1.6341238e-08
2.2346723e-10
1.6258057e-08
2.1990578e-10
1.6173977e-08
2.2114362e-10
1.6091724e-08
2.1771836e-10
1.6008418e-08
2.1921912e-10
1.5926906e-08
2.1611412e-10
1.5844226e-08
2.1782513e-10
1.5763095e-08
2.155299e-10
1.5680903e-08
2.1701043e-10
2.1972587e-10
5.0053906e-08
2.398099e-09
-4.9993648e-08
5.0228298e-08
2.8744468e-09
5.0500611e-08
3.352415e-09
5.0775909e-08
3.7011585e-09
5.1020052e-08
3.8768254e-09
5.1244993e-08
3.9239316e-09
5.1464144e-08
3.9027992e-09
5.1665497e-08
3.8289836e-09
5.1828435e-08
3.6954734e-09
5.194102e-08
3.5084245e-09
5.2004954e-08
3.2891985e-09
5.2031815e-08
3.0670395e-09
5.2034642e-08
2.8672363e-09
5.2021937e-08
2.7018601e-09
5.1998061e-08
2.5696461e-09
5.1965231e-08
2.4635352e-09
5.1925168e-08
2.3765931e-09
5.1879095e-08
2.3037643e-09
5.1827496e-08
2.2413607e-09
5.1770238e-08
2.1865523e-09
5.1706871e-08
2.1371886e-09
5.1636874e-08
2.0917572e-09
5.1559785e-08
2.0492609e-09
5.147525e-08
2.0090958e-09
5.1383035e-08
1.9709025e-09
5.1283006e-08
1.9344838e-09
5.1175112e-08
1.8997102e-09
5.1059366e-08
1.8664932e-09
5.093583e-08
1.8347387e-09
5.08046e-08
1.8043547e-09
5.0665799e-08
1.775229e-09
5.051957e-08
1.7472566e-09
5.036608e-08
1.7203221e-09
5.020551e-08
1.6943282e-09
5.003806e-08
1.6691729e-09
4.9863944e-08
1.6447769e-09
4.968339e-08
1.6210572e-09
4.9496639e-08
1.5979548e-09
4.930394e-08
1.5754051e-09
4.9105553e-08
1.5533671e-09
4.8901747e-08
1.5317919e-09
4.8692794e-08
1.5106528e-09
4.8478973e-08
1.4899125e-09
4.8260563e-08
1.469555e-09
4.8037847e-08
1.4495512e-09
4.7811106e-08
1.4298926e-09
4.7580618e-08
1.4105556e-09
4.7346661e-08
1.3915368e-09
4.7109507e-08