/*--------------------------------*- C++ -*----------------------------------*\
| =========                 |                                                 |
| \\      /  F ield         | OpenFOAM: The Open Source CFD Toolbox           |
|  \\    /   O peration     | Version:  5.x                                   |
|   \\  /    A nd           | Web:      www.OpenFOAM.org                      |
|    \\/     M anipulation  |                                                 |
\*---------------------------------------------------------------------------*/
FoamFile
{
    version     2.0;
    format      ascii;
    class       volVectorField;
    location    "0.8";
    object      U;
}
// * * * * * * * * * * * * * * * * * * * * * * * * * * * * * * * * * * * * * //

dimensions      [0 1 -1 0 0 0 0];

internalField   nonuniform List<vector> 
21600
(
(0.44561361 0.0096597543 0)
(0.40259998 0.013137733 0)
(0.36167408 0.013390364 0)
(0.3201077 0.012309378 0)
(0.27850555 0.011030033 0)
(0.23875675 0.0096292549 0)
(0.20300111 0.007901014 0)
(0.17303091 0.005843716 0)
(0.14933144 0.0036685943 0)
(0.13152739 0.0018307795 0)
(0.11855968 0.00060914827 0)
(0.1092465 -4.4751632e-05 0)
(0.10257091 -0.00031940255 0)
(0.097690689 -0.0003697807 0)
(0.093974085 -0.0003077208 0)
(0.090953746 -0.0001993691 0)
(0.088320169 -8.7014601e-05 0)
(0.085894782 5.8716325e-06 0)
(0.083590697 7.1863322e-05 0)
(0.081376923 0.00011290637 0)
(0.079250511 0.00013455457 0)
(0.077218307 0.00014280588 0)
(0.075287567 0.0001427208 0)
(0.073462099 0.00013801634 0)
(0.071741657 0.00013114119 0)
(0.070122505 0.00012354894 0)
(0.068598691 0.00011601545 0)
(0.067162954 0.00010891981 0)
(0.065807707 0.0001024002 0)
(0.064525496 9.6471915e-05 0)
(0.06330949 9.1092701e-05 0)
(0.062153475 8.620482e-05 0)
(0.061052046 8.1745368e-05 0)
(0.060000395 7.7659589e-05 0)
(0.058994427 7.3896658e-05 0)
(0.058030482 7.0416854e-05 0)
(0.057105457 6.7183727e-05 0)
(0.056216526 6.4170612e-05 0)
(0.055361291 6.1351906e-05 0)
(0.054537503 5.8710196e-05 0)
(0.053743255 5.6227126e-05 0)
(0.052976696 5.3891322e-05 0)
(0.05223627 5.1688882e-05 0)
(0.051520412 4.9612138e-05 0)
(0.050827824 4.7649747e-05 0)
(0.050157157 4.5796284e-05 0)
(0.049507317 4.4041854e-05 0)
(0.048877125 4.2382461e-05 0)
(0.048265657 4.0809089e-05 0)
(0.047671871 3.9318882e-05 0)
(0.047094987 3.7903545e-05 0)
(0.046534078 3.6561123e-05 0)
(0.045988487 3.5283819e-05 0)
(0.045457383 3.4070518e-05 0)
(0.044940218 3.2913905e-05 0)
(0.044436238 3.1813655e-05 0)
(0.043944988 3.0762865e-05 0)
(0.043465782 2.9761926e-05 0)
(0.042998244 2.8804266e-05 0)
(0.042541741 2.7890918e-05 0)
(0.04209597 2.7015562e-05 0)
(0.04166034 2.6179794e-05 0)
(0.041234614 2.5377483e-05 0)
(0.04081823 2.4610717e-05 0)
(0.040411013 2.3873494e-05 0)
(0.040012426 2.3168337e-05 0)
(0.039622347 2.2489326e-05 0)
(0.039240256 2.183937e-05 0)
(0.038866083 2.1212593e-05 0)
(0.038499321 2.0612252e-05 0)
(0.038139947 2.0032489e-05 0)
(0.03778746 1.9476878e-05 0)
(0.037441884 1.8939557e-05 0)
(0.037102719 1.8424379e-05 0)
(0.036770035 1.7925467e-05 0)
(0.036443326 1.7446929e-05 0)
(0.036122711 1.6982863e-05 0)
(0.035807674 1.6537611e-05 0)
(0.035498379 1.6105238e-05 0)
(0.035194296 1.5690295e-05 0)
(0.034895637 1.5286813e-05 0)
(0.034601852 1.489953e-05 0)
(0.034313204 1.4522444e-05 0)
(0.034029116 1.4160459e-05 0)
(0.033749906 1.380754e-05 0)
(0.033474965 1.3468739e-05 0)
(0.033204665 1.3137992e-05 0)
(0.032938362 1.2820479e-05 0)
(0.032676488 1.2510114e-05 0)
(0.032418356 1.2212185e-05 0)
(0.032164461 1.1920589e-05 0)
(0.031914066 1.1640707e-05 0)
(0.031667738 1.1366425e-05 0)
(0.03142468 1.1103202e-05 0)
(0.031185536 1.084492e-05 0)
(0.030949442 1.05971e-05 0)
(0.030717129 1.0353627e-05 0)
(0.030487655 1.0120071e-05 0)
(0.030261844 9.8903278e-06 0)
(0.030038667 9.6699998e-06 0)
(0.029819053 9.4530025e-06 0)
(0.029601873 9.244961e-06 0)
(0.029388173 9.0398128e-06 0)
(0.029176709 8.8431986e-06 0)
(0.028968657 8.6490806e-06 0)
(0.028762646 8.4631095e-06 0)
(0.028559997 8.2792724e-06 0)
(0.028359192 8.1032275e-06 0)
(0.028161716 7.9289841e-06 0)
(0.027965886 7.7622092e-06 0)
(0.027773368 7.5969276e-06 0)
(0.027582293 7.4388211e-06 0)
(0.027394534 7.2819189e-06 0)
(0.027208008 7.1319289e-06 0)
(0.027024819 6.9828692e-06 0)
(0.026842648 6.8404905e-06 0)
(0.026663855 6.6987768e-06 0)
(0.026485852 6.5635447e-06 0)
(0.026311292 6.4287152e-06 0)
(0.026137282 6.3002031e-06 0)
(0.025966803 6.1718287e-06 0)
(0.025796618 6.0496459e-06 0)
(0.025630077 5.9273261e-06 0)
(0.025463556 5.8111143e-06 0)
(0.025300822 5.6944739e-06 0)
(0.025137812 5.5839055e-06 0)
(0.024978761 5.4725918e-06 0)
(0.024819113 5.3673675e-06 0)
(0.024663632 5.2610475e-06 0)
(0.024507204 5.1608949e-06 0)
(0.024355187 5.0592532e-06 0)
(0.02420184 4.9639253e-06 0)
(0.024053191 4.8666612e-06 0)
(0.023902791 4.7759357e-06 0)
(0.02375742 4.6827612e-06 0)
(0.023609835 4.596439e-06 0)
(0.023467662 4.5070765e-06 0)
(0.023322763 4.4249816e-06 0)
(0.023183717 4.3391615e-06 0)
(0.023041375 4.2611409e-06 0)
(0.022905392 4.1785992e-06 0)
(0.022765481 4.104523e-06 0)
(0.022632505 4.0249998e-06 0)
(0.022494899 3.9547603e-06 0)
(0.022364882 3.8779973e-06 0)
(0.022229454 3.8115096e-06 0)
(0.022102359 3.7372474e-06 0)
(0.021968979 3.6744507e-06 0)
(0.021844776 3.6024272e-06 0)
(0.021713314 3.543286e-06 0)
(0.021591984 3.4732334e-06 0)
(0.021462305 3.4177383e-06 0)
(0.021343839 3.3493801e-06 0)
(0.021215804 3.2975498e-06 0)
(0.021100202 3.2305976e-06 0)
(0.020973669 3.1824816e-06 0)
(0.020860944 3.1166318e-06 0)
(0.020735762 3.0723128e-06 0)
(0.020625938 3.0072427e-06 0)
(0.020501948 2.96684e-06 0)
(0.020395064 2.9022047e-06 0)
(0.020272098 2.8658789e-06 0)
(0.020168206 2.8013046e-06 0)
(0.020046084 2.7692628e-06 0)
(0.019945253 2.7043409e-06 0)
(0.019823783 2.6768439e-06 0)
(0.019726098 2.6111232e-06 0)
(0.019605073 2.588494e-06 0)
(0.019510636 2.5214733e-06 0)
(0.01938983 2.5041076e-06 0)
(0.019298768 2.4352249e-06 0)
(0.019177934 2.4236039e-06 0)
(0.019090392 2.3522228e-06 0)
(0.018969261 2.3469307e-06 0)
(0.018885412 2.2723224e-06 0)
(0.018763685 2.2740688e-06 0)
(0.018683729 2.1953925e-06 0)
(0.018561075 2.2050416e-06 0)
(0.018485242 2.121319e-06 0)
(0.018361291 2.139929e-06 0)
(0.018289846 2.050002e-06 0)
(0.018164183 2.0788724e-06 0)
(0.01809743 1.9813635e-06 0)
(0.017969584 2.0221187e-06 0)
(0.017907868 1.9153538e-06 0)
(0.017777303 1.9700363e-06 0)
(0.017721018 1.8519571e-06 0)
(0.017587115 1.9231934e-06 0)
(0.017536712 1.7912089e-06 0)
(0.017398745 1.8824561e-06 0)
(0.017354738 1.7332002e-06 0)
(0.017211843 1.8491835e-06 0)
(0.017174825 1.6781094e-06 0)
(0.017025938 1.8256308e-06 0)
(0.016996612 1.6261215e-06 0)
(0.016840346 1.8158571e-06 0)
(0.01681963 1.5768456e-06 0)
(0.016653931 1.8284579e-06 0)
(0.016643513 1.526696e-06 0)
(0.016463104 2.0276565e-06 0)
(0.47652656 0.016892608 0)
(0.47441445 0.023596173 0)
(0.47062063 0.025575235 0)
(0.46346055 0.025284177 0)
(0.45233334 0.024408181 0)
(0.43784008 0.023243264 0)
(0.42106796 0.021518079 0)
(0.40325074 0.0190787 0)
(0.38516541 0.016048076 0)
(0.36746282 0.012847754 0)
(0.35053605 0.0099291009 0)
(0.33460785 0.0075388547 0)
(0.31987738 0.0057130962 0)
(0.3064119 0.0043746657 0)
(0.29423561 0.0034411385 0)
(0.28326269 0.0028199189 0)
(0.27335324 0.0024157234 0)
(0.26435969 0.0021468011 0)
(0.25614861 0.0019550294 0)
(0.24860763 0.001804686 0)
(0.24164584 0.0016761322 0)
(0.2351904 0.0015597515 0)
(0.22918266 0.0014515929 0)
(0.22357417 0.0013505695 0)
(0.21832409 0.0012567508 0)
(0.21339689 0.0011704371 0)
(0.20876155 0.0010917141 0)
(0.20439029 0.0010203857 0)
(0.20025851 0.00095598187 0)
(0.1963441 0.00089787507 0)
(0.19262765 0.00084536547 0)
(0.18909173 0.00079777468 0)
(0.1857212 0.0007544675 0)
(0.1825024 0.00071489186 0)
(0.17942357 0.00067856156 0)
(0.17647396 0.00064507573 0)
(0.17364433 0.00061408725 0)
(0.17092613 0.00058531819 0)
(0.168312 0.00055852444 0)
(0.16579497 0.00053351375 0)
(0.1633691 0.00051011037 0)
(0.16102858 0.00048817758 0)
(0.15876855 0.00046758286 0)
(0.15658408 0.00044822485 0)
(0.15447112 0.00042999844 0)
(0.15242545 0.00041282547 0)
(0.15044367 0.00039661893 0)
(0.14852212 0.00038131693 0)
(0.14665793 0.00036684518 0)
(0.14484789 0.00035315403 0)
(0.1430896 0.00034017928 0)
(0.14138019 0.00032788131 0)
(0.13971765 0.00031620381 0)
(0.13809943 0.00030511549 0)
(0.13652385 0.0002945666 0)
(0.13498859 0.00028453294 0)
(0.13349227 0.00027497016 0)
(0.13203275 0.00026586008 0)
(0.13060892 0.00025716277 0)
(0.1292188 0.00024886515 0)
(0.1278615 0.00024093085 0)
(0.12653516 0.0002333511 0)
(0.1252391 0.00022609241 0)
(0.12397157 0.00021914964 0)
(0.12273204 0.0002124916 0)
(0.12151886 0.00020611624 0)
(0.12033166 0.00019999421 0)
(0.11916885 0.00019412609 0)
(0.11803022 0.00018848403 0)
(0.11691419 0.00018307084 0)
(0.11582072 0.00017785989 0)
(0.11474826 0.00017285597 0)
(0.1136969 0.00016803345 0)
(0.11266508 0.00016339879 0)
(0.11165305 0.00015892721 0)
(0.11065923 0.00015462659 0)
(0.10968401 0.0001504729 0)
(0.10872578 0.00014647524 0)
(0.10778509 0.00014261022 0)
(0.10686026 0.000138888 0)
(0.105952 0.00013528575 0)
(0.10505856 0.0001318145 0)
(0.10418082 0.00012845201 0)
(0.10331694 0.00012520996 0)
(0.10246796 0.00012206667 0)
(0.10163195 0.00011903438 0)
(0.10081013 0.00011609195 0)
(0.10000044 0.000113252 0)
(0.099204292 0.00011049398 0)
(0.09841949 0.00010783072 0)
(0.097647653 0.00010524232 0)
(0.096886418 0.00010274168 0)
(0.096137629 0.00010030959 0)
(0.095398736 9.7958879e-05 0)
(0.094671829 9.5671083e-05 0)
(0.093954141 9.345881e-05 0)
(0.093248036 9.1304444e-05 0)
(0.092550498 8.9220215e-05 0)
(0.091864192 8.718943e-05 0)
(0.091185822 8.5223799e-05 0)
(0.090518384 8.330765e-05 0)
(0.089858263 8.1452025e-05 0)
(0.089208828 7.9642375e-05 0)
(0.0885661 7.7888927e-05 0)
(0.08793386 7.6178359e-05 0)
(0.087307723 7.4519939e-05 0)
(0.086691928 7.2901684e-05 0)
(0.086081628 7.1331754e-05 0)
(0.085481577 6.9799618e-05 0)
(0.084886406 6.8312189e-05 0)
(0.084301446 6.6860498e-05 0)
(0.083720737 6.5450073e-05 0)
(0.083150257 6.407362e-05 0)
(0.082583381 6.273515e-05 0)
(0.082026812 6.1429151e-05 0)
(0.081473172 6.0157991e-05 0)
(0.080929983 5.8918043e-05 0)
(0.080389015 5.7709911e-05 0)
(0.079858707 5.6531952e-05 0)
(0.079329875 5.5382897e-05 0)
(0.078811986 5.4263174e-05 0)
(0.078294778 5.3169552e-05 0)
(0.077788876 5.2104595e-05 0)
(0.077282803 5.1063036e-05 0)
(0.076788486 5.0049629e-05 0)
(0.076293078 4.9057015e-05 0)
(0.075809973 4.809217e-05 0)
(0.075324781 4.7145618e-05 0)
(0.074852541 4.6226557e-05 0)
(0.074377129 4.5323394e-05 0)
(0.073915436 4.4447529e-05 0)
(0.073449382 4.3585282e-05 0)
(0.072997943 4.2750192e-05 0)
(0.072540837 4.1926571e-05 0)
(0.072099382 4.1129994e-05 0)
(0.071650824 4.0342878e-05 0)
(0.071219112 3.9582686e-05 0)
(0.070778706 3.8830116e-05 0)
(0.070356519 3.8104306e-05 0)
(0.069923878 3.7384473e-05 0)
(0.069511022 3.6691153e-05 0)
(0.06908576 3.6002393e-05 0)
(0.06868207 3.5339767e-05 0)
(0.068263801 3.4680553e-05 0)
(0.067869134 3.4046912e-05 0)
(0.067457472 3.3415844e-05 0)
(0.067071714 3.2809553e-05 0)
(0.066666268 3.2205361e-05 0)
(0.066289333 3.1624845e-05 0)
(0.065889704 3.1046387e-05 0)
(0.065521536 3.0490124e-05 0)
(0.065127315 2.9936384e-05 0)
(0.064767887 2.9402888e-05 0)
(0.064378655 2.8872974e-05 0)
(0.064027974 2.8360786e-05 0)
(0.063643294 2.785394e-05 0)
(0.063301401 2.7361611e-05 0)
(0.062920815 2.6877211e-05 0)
(0.062587789 2.6403293e-05 0)
(0.062210818 2.5940857e-05 0)
(0.061886779 2.5483888e-05 0)
(0.061512912 2.5043094e-05 0)
(0.061198024 2.4601578e-05 0)
(0.06082672 2.4182273e-05 0)
(0.060521194 2.3754659e-05 0)
(0.06015187 2.335688e-05 0)
(0.059855971 2.2941541e-05 0)
(0.059487999 2.2565548e-05 0)
(0.059202048 2.2160753e-05 0)
(0.058834747 2.1807058e-05 0)
(0.05855913 2.1410944e-05 0)
(0.058191758 2.1080354e-05 0)
(0.057926928 2.0690882e-05 0)
(0.057558672 2.0384563e-05 0)
(0.057305161 1.9999468e-05 0)
(0.056935123 1.9719018e-05 0)
(0.056693548 1.9335751e-05 0)
(0.056320734 1.9083306e-05 0)
(0.056091809 1.8698958e-05 0)
(0.055715111 1.8477332e-05 0)
(0.055499653 1.8088527e-05 0)
(0.055117828 1.7901389e-05 0)
(0.054916776 1.7504161e-05 0)
(0.054528422 1.7356325e-05 0)
(0.054342846 1.6945922e-05 0)
(0.053946367 1.6843702e-05 0)
(0.05377749 1.6414353e-05 0)
(0.053371049 1.6366155e-05 0)
(0.053220269 1.5910706e-05 0)
(0.052801728 1.592792e-05 0)
(0.052670645 1.5437276e-05 0)
(0.052237467 1.5535772e-05 0)
(0.052127929 1.499807e-05 0)
(0.051677017 1.5200821e-05 0)
(0.051591213 1.4599881e-05 0)
(0.051118592 1.4941839e-05 0)
(0.051059315 1.4253993e-05 0)
(0.050559295 1.4791803e-05 0)
(0.050531107 1.3987257e-05 0)
(0.049992753 1.5472147e-05 0)
(0.47978681 0.015745955 0)
(0.48110407 0.021484865 0)
(0.48390518 0.024576084 0)
(0.48657844 0.025587318 0)
(0.48784167 0.025703593 0)
(0.48726023 0.025403338 0)
(0.48487808 0.024570342 0)
(0.4809076 0.023002893 0)
(0.47553464 0.02077874 0)
(0.46896096 0.01821087 0)
(0.46144287 0.015688141 0)
(0.45323328 0.013478374 0)
(0.44463367 0.01167458 0)
(0.43587939 0.010235324 0)
(0.42717827 0.0090976206 0)
(0.41863055 0.0081938474 0)
(0.41027664 0.0074611226 0)
(0.40213012 0.0068479136 0)
(0.39419476 0.0063173124 0)
(0.38647136 0.0058456919 0)
(0.37896124 0.00541896 0)
(0.37166665 0.0050290183 0)
(0.36459087 0.0046712447 0)
(0.35773672 0.0043429205 0)
(0.35110626 0.004042211 0)
(0.34469954 0.0037675884 0)
(0.33851522 0.003517511 0)
(0.33254977 0.0032902681 0)
(0.32679845 0.0030839586 0)
(0.32125487 0.0028966176 0)
(0.31591209 0.0027262861 0)
(0.31076213 0.0025711246 0)
(0.30579708 0.002429423 0)
(0.30100835 0.0022996604 0)
(0.29638791 0.0021804689 0)
(0.29192729 0.0020706695 0)
(0.28761884 0.001969216 0)
(0.28345461 0.0018752243 0)
(0.27942761 0.0017879087 0)
(0.27553055 0.0017066131 0)
(0.27175723 0.0016307457 0)
(0.26810106 0.001559816 0)
(0.26455663 0.0014933696 0)
(0.26111802 0.0014310332 0)
(0.25778054 0.0013724489 0)
(0.2545389 0.0013173267 0)
(0.25138905 0.0012653775 0)
(0.24832624 0.0012163717 0)
(0.24534701 0.0011700709 0)
(0.24244705 0.0011262912 0)
(0.23962343 0.0010848327 0)
(0.2368722 0.0010455474 0)
(0.23419091 0.0010082654 0)
(0.23157592 0.00097286757 0)
(0.22902518 0.00093920815 0)
(0.22653532 0.00090719157 0)
(0.22410465 0.00087669131 0)
(0.22173002 0.00084763108 0)
(0.21941007 0.00081989996 0)
(0.21714181 0.00079343752 0)
(0.2149242 0.00076814546 0)
(0.21275437 0.00074397645 0)
(0.21063157 0.00072084247 0)
(0.20855304 0.00069870702 0)
(0.20651828 0.00067749047 0)
(0.2045246 0.00065716538 0)
(0.20257176 0.00063765902 0)
(0.2006571 0.00061895152 0)
(0.19878064 0.00060097591 0)
(0.19693973 0.00058371865 0)
(0.19513462 0.00056711758 0)
(0.19336265 0.00055116455 0)
(0.19162433 0.00053580159 0)
(0.18991693 0.000521025 0)
(0.18824122 0.00050678044 0)
(0.18659441 0.00049306795 0)
(0.1849775 0.00047983641 0)
(0.18338762 0.00046708891 0)
(0.18182603 0.00045477728 0)
(0.18028973 0.00044290704 0)
(0.17878025 0.00043143277 0)
(0.17729446 0.0004203619 0)
(0.17583416 0.00040965164 0)
(0.17439604 0.00039931078 0)
(0.1729822 0.00038929912 0)
(0.17158914 0.00037962632 0)
(0.17021928 0.0003702548 0)
(0.16886886 0.00036119458 0)
(0.16754067 0.00035241081 0)
(0.16623066 0.00034391337 0)
(0.16494199 0.00033567025 0)
(0.16367031 0.00032769074 0)
(0.1624192 0.00031994586 0)
(0.16118393 0.00031244384 0)
(0.15996853 0.00030515895 0)
(0.15876788 0.00029809785 0)
(0.15758649 0.00029123836 0)
(0.15641878 0.00028458504 0)
(0.15526982 0.00027811957 0)
(0.15413349 0.00027184394 0)
(0.15301547 0.00026574403 0)
(0.15190906 0.0002598187 0)
(0.15082061 0.00025405842 0)
(0.14974275 0.00024845842 0)
(0.14868259 0.00024301419 0)
(0.14763199 0.00023771672 0)
(0.14659892 0.00023256699 0)
(0.14557438 0.00022755118 0)
(0.14456727 0.00022267625 0)
(0.14356765 0.00021792299 0)
(0.14258545 0.00021330483 0)
(0.14160967 0.00020879653 0)
(0.14065142 0.0002044186 0)
(0.13969846 0.00020013912 0)
(0.13876323 0.00019598625 0)
(0.13783214 0.00019192072 0)
(0.13691907 0.00018797893 0)
(0.13600892 0.00018411362 0)
(0.13511723 0.00018037007 0)
(0.13422714 0.00017669229 0)
(0.13335607 0.00017313512 0)
(0.13248523 0.00016963313 0)
(0.13163408 0.00016625142 0)
(0.13078167 0.00016291435 0)
(0.1299498 0.00015969797 0)
(0.12911506 0.00015651573 0)
(0.12830187 0.00015345534 0)
(0.12748406 0.00015041855 0)
(0.12668899 0.00014750549 0)
(0.1258874 0.00014460543 0)
(0.12510992 0.00014183166 0)
(0.12432386 0.00013906021 0)
(0.12356352 0.00013641826 0)
(0.1227923 0.00013376785 0)
(0.12204866 0.00013125081 0)
(0.12129162 0.00012871437 0)
(0.12056429 0.00012631577 0)
(0.11982078 0.0001238867 0)
(0.11910942 0.00012160054 0)
(0.1183788 0.00011927268 0)
(0.1176831 0.00011709333 0)
(0.11696472 0.00011486092 0)
(0.11628441 0.00011278315 0)
(0.11557763 0.0001106408 0)
(0.11491249 0.0001086597 0)
(0.11421668 0.00010660236 0)
(0.11356654 0.00010471332 0)
(0.11288103 0.00010273629 0)
(0.11224575 0.00010093499 0)
(0.11156988 9.903387e-05 0)
(0.11094939 9.7316243e-05 0)
(0.11028247 9.5486941e-05 0)
(0.10967674 9.3849133e-05 0)
(0.10901807 9.208785e-05 0)
(0.10842713 9.0526206e-05 0)
(0.10777597 8.8829429e-05 0)
(0.1071999 8.7340469e-05 0)
(0.1065555 8.5704974e-05 0)
(0.10599444 8.4285362e-05 0)
(0.10535598 8.2708218e-05 0)
(0.10481015 8.1354745e-05 0)
(0.10417678 7.9833323e-05 0)
(0.10364648 7.8542866e-05 0)
(0.10301728 7.7074861e-05 0)
(0.10250288 7.5844355e-05 0)
(0.10187687 7.4427812e-05 0)
(0.10137884 7.3254213e-05 0)
(0.10075496 7.1887578e-05 0)
(0.10027385 7.0767822e-05 0)
(0.099650968 6.9449989e-05 0)
(0.099187446 6.8380951e-05 0)
(0.098564309 6.7111337e-05 0)
(0.098119159 6.6089768e-05 0)
(0.097494403 6.4868416e-05 0)
(0.09706854 6.3890871e-05 0)
(0.096440663 6.2718592e-05 0)
(0.096035147 6.1781353e-05 0)
(0.095402484 6.065991e-05 0)
(0.095018539 5.975889e-05 0)
(0.094379241 5.8691255e-05 0)
(0.09401827 5.7821852e-05 0)
(0.093370263 5.681255e-05 0)
(0.093033873 5.5969501e-05 0)
(0.092374826 5.5025134e-05 0)
(0.092064851 5.4202281e-05 0)
(0.091392114 5.3332222e-05 0)
(0.091110648 5.2522249e-05 0)
(0.090421189 5.1739755e-05 0)
(0.09017062 5.0933827e-05 0)
(0.089460924 5.0257708e-05 0)
(0.089243984 4.9445014e-05 0)
(0.088509911 4.8902346e-05 0)
(0.088329743 4.8069699e-05 0)
(0.087566295 4.7700322e-05 0)
(0.087426582 4.6832075e-05 0)
(0.086627467 4.6695552e-05 0)
(0.086532739 4.5775077e-05 0)
(0.085689402 4.5965633e-05 0)
(0.085645934 4.497188e-05 0)
(0.084745878 4.7098606e-05 0)
(0.48224911 0.014729035 0)
(0.48327918 0.019052558 0)
(0.48587605 0.022167319 0)
(0.48937634 0.023692699 0)
(0.49279318 0.024194341 0)
(0.49555875 0.024158085 0)
(0.49751641 0.023671781 0)
(0.49863907 0.022638882 0)
(0.49889091 0.021074927 0)
(0.49821658 0.019169213 0)
(0.49662883 0.017197284 0)
(0.49421999 0.015396111 0)
(0.49116764 0.013882474 0)
(0.48766283 0.012664551 0)
(0.4838709 0.011686245 0)
(0.47989374 0.010886071 0)
(0.47578221 0.010214771 0)
(0.47155832 0.0096353404 0)
(0.46723193 0.0091206682 0)
(0.4628089 0.0086518083 0)
(0.45829629 0.008216317 0)
(0.45370323 0.0078066237 0)
(0.4490419 0.0074185149 0)
(0.44432582 0.0070499449 0)
(0.43956983 0.0067000643 0)
(0.43478817 0.0063685755 0)
(0.42999502 0.0060552875 0)
(0.4252029 0.0057598786 0)
(0.42042375 0.005481778 0)
(0.41566758 0.0052202484 0)
(0.41094388 0.0049744063 0)
(0.40626023 0.0047433398 0)
(0.40162386 0.0045261033 0)
(0.39704019 0.0043218037 0)
(0.39251454 0.0041295593 0)
(0.38805051 0.0039485696 0)
(0.38365187 0.0037780556 0)
(0.37932074 0.0036173252 0)
(0.37505963 0.0034657042 0)
(0.37086945 0.0033226021 0)
(0.36675178 0.003187437 0)
(0.36270653 0.0030597053 0)
(0.35873457 0.0029389022 0)
(0.35483506 0.0028245967 0)
(0.35100834 0.0027163478 0)
(0.34725302 0.0026137857 0)
(0.34356906 0.0025165236 0)
(0.33995465 0.0024242447 0)
(0.33640953 0.0023366093 0)
(0.33293159 0.0022533472 0)
(0.32952046 0.0021741597 0)
(0.32617378 0.0020988168 0)
(0.32289121 0.0020270554 0)
(0.31967019 0.0019586817 0)
(0.31651043 0.0018934638 0)
(0.31340927 0.0018312392 0)
(0.31036651 0.0017718033 0)
(0.30737938 0.0017150206 0)
(0.30444784 0.0016607095 0)
(0.30156902 0.0016087579 0)
(0.29874307 0.0015590039 0)
(0.29596704 0.001511355 0)
(0.29324126 0.001465666 0)
(0.29056269 0.0014218613 0)
(0.28793189 0.0013798099 0)
(0.28534572 0.0013394502 0)
(0.28280499 0.0013006636 0)
(0.28030642 0.0012634004 0)
(0.2778511 0.0012275523 0)
(0.27543561 0.0011930799 0)
(0.2730613 0.001159884 0)
(0.27072461 0.0011279337 0)
(0.26842719 0.0010971377 0)
(0.2661653 0.0010674722 0)
(0.26394087 0.0010388533 0)
(0.26175 0.0010112627 0)
(0.25959494 0.00098462333 0)
(0.25747154 0.00095892132 0)
(0.25538242 0.00093408598 0)
(0.25332317 0.00091010676 0)
(0.25129679 0.00088691906 0)
(0.24929857 0.00086451464 0)
(0.24733193 0.00084283487 0)
(0.24539182 0.00082187284 0)
(0.24348209 0.0008015759 0)
(0.24159733 0.00078193746 0)
(0.23974189 0.00076291102 0)
(0.2379099 0.00074448935 0)
(0.23610626 0.00072663236 0)
(0.23432461 0.00070933118 0)
(0.23257045 0.00069255246 0)
(0.23083687 0.00067628478 0)
(0.22913 0.00066050196 0)
(0.22744234 0.00064518903 0)
(0.22578073 0.00063032755 0)
(0.22413696 0.00061589794 0)
(0.22251867 0.00060189016 0)
(0.22091689 0.00058827897 0)
(0.21934012 0.00057506342 0)
(0.21777853 0.00056221151 0)
(0.21624159 0.00054973223 0)
(0.21471849 0.00053758566 0)
(0.21321977 0.00052579162 0)
(0.21173355 0.00051430106 0)
(0.21027156 0.00050314567 0)
(0.2088207 0.00049226598 0)
(0.20739402 0.0004817066 0)
(0.20597708 0.00047139635 0)
(0.20458438 0.00046139396 0)
(0.20319998 0.0004516151 0)
(0.20184002 0.00044213388 0)
(0.20048686 0.00043285137 0)
(0.19915847 0.00042385844 0)
(0.19783531 0.00041503999 0)
(0.19653738 0.00040650513 0)
(0.19524302 0.00039812093 0)
(0.19397452 0.0003900163 0)
(0.19270783 0.00038203877 0)
(0.19146779 0.00037433874 0)
(0.19022767 0.00036674234 0)
(0.18901518 0.00035942324 0)
(0.1878006 0.00035218428 0)
(0.18661481 0.00034522427 0)
(0.18542475 0.00033832074 0)
(0.18426487 0.00033169964 0)
(0.18309835 0.00032511105 0)
(0.18196364 0.00031881019 0)
(0.18081972 0.00031251745 0)
(0.1797095 0.00030651955 0)
(0.17858726 0.00030050485 0)
(0.17750088 0.0002947939 0)
(0.17639942 0.00028904058 0)
(0.17533633 0.00028360175 0)
(0.17425476 0.00027809423 0)
(0.17321442 0.00027291376 0)
(0.17215188 0.00026763741 0)
(0.17113382 0.00026270256 0)
(0.17008944 0.00025764365 0)
(0.16909324 0.00025294257 0)
(0.16806618 0.0002480882 0)
(0.16709147 0.00024360991 0)
(0.16608085 0.00023894793 0)
(0.16512734 0.00023468222 0)
(0.16413231 0.00023020117 0)
(0.16319973 0.00022613859 0)
(0.16221942 0.00022182765 0)
(0.16130758 0.00021795939 0)
(0.16034111 0.00021380833 0)
(0.15944989 0.00021012625 0)
(0.15849634 0.00020612539 0)
(0.15762567 0.0002026219 0)
(0.15668411 0.0001987621 0)
(0.155834 0.00019543018 0)
(0.15490346 0.00019170276 0)
(0.15407399 0.00018853588 0)
(0.15315346 0.00018493263 0)
(0.1523448 0.00018192472 0)
(0.15143322 0.00017843791 0)
(0.15064562 0.00017558333 0)
(0.14974187 0.00017220562 0)
(0.14897568 0.00016949915 0)
(0.14807857 0.00016622369 0)
(0.14733424 0.00016366044 0)
(0.1464425 0.00016048079 0)
(0.14572059 0.0001580562 0)
(0.14483285 0.00015496645 0)
(0.14413406 0.00015267622 0)
(0.14324884 0.00014967096 0)
(0.14257399 0.00014751104 0)
(0.14168971 0.00014458546 0)
(0.14103977 0.00014255198 0)
(0.14015468 0.00013970197 0)
(0.13953079 0.00013779119 0)
(0.13864298 0.00013501344 0)
(0.13804647 0.00013322168 0)
(0.13715386 0.0001305139 0)
(0.13658626 0.00012883746 0)
(0.13568651 0.00012619863 0)
(0.13514957 0.00012463372 0)
(0.13424012 0.00012206443 0)
(0.13373586 0.00012060705 0)
(0.13281382 0.00011811002 0)
(0.13234453 0.00011675582 0)
(0.13140668 0.00011433666 0)
(0.13097496 0.00011308079 0)
(0.13001765 0.000110749 0)
(0.12962649 0.00010958593 0)
(0.12864555 0.00010735658 0)
(0.12829832 0.00010627993 0)
(0.12728895 0.00010417615 0)
(0.12698949 0.00010317856 0)
(0.12594611 0.0001012356 0)
(0.12569881 0.00010030918 0)
(0.12461475 9.8581268e-05 0)
(0.12442463 9.7718946e-05 0)
(0.12329178 9.629121e-05 0)
(0.12316465 9.5485983e-05 0)
(0.12197274 9.4528555e-05 0)
(0.12191508 9.3673443e-05 0)
(0.12065276 9.5756771e-05 0)
(0.48422479 0.014152949 0)
(0.48511673 0.017536944 0)
(0.48716938 0.020380959 0)
(0.49013862 0.022086659 0)
(0.4933988 0.022767909 0)
(0.49642673 0.022798171 0)
(0.49901422 0.02238558 0)
(0.5011277 0.021561993 0)
(0.50275171 0.020343153 0)
(0.5038296 0.01883753 0)
(0.50431249 0.01723105 0)
(0.50421125 0.015714392 0)
(0.50361561 0.014406959 0)
(0.50265643 0.013341305 0)
(0.50145791 0.012484637 0)
(0.50010449 0.011786225 0)
(0.49863903 0.011202589 0)
(0.4970749 0.010701644 0)
(0.49541111 0.010259958 0)
(0.49364086 0.0098603841 0)
(0.49175801 0.0094907014 0)
(0.48975833 0.009142736 0)
(0.48764138 0.0088114118 0)
(0.48540877 0.0084939172 0)
(0.48306493 0.0081888526 0)
(0.48061488 0.0078956417 0)
(0.47806533 0.0076139988 0)
(0.47542257 0.0073437338 0)
(0.47269403 0.0070845573 0)
(0.46988619 0.0068361159 0)
(0.46700657 0.0065979452 0)
(0.46406144 0.0063695787 0)
(0.46105805 0.0061505067 0)
(0.45800224 0.0059402741 0)
(0.45490091 0.0057384132 0)
(0.45175935 0.0055445304 0)
(0.44858408 0.0053582234 0)
(0.44537982 0.0051791659 0)
(0.44215262 0.0050070163 0)
(0.4389066 0.0048415059 0)
(0.43564738 0.0046823401 0)
(0.4323784 0.0045292921 0)
(0.42910484 0.0043820997 0)
(0.42582949 0.0042405645 0)
(0.42255705 0.0041044446 0)
(0.41928968 0.0039735608 0)
(0.41603166 0.0038476848 0)
(0.41278449 0.0037266515 0)
(0.40955208 0.0036102431 0)
(0.40633531 0.0034983065 0)
(0.40313776 0.003390633 0)
(0.39995974 0.0032870805 0)
(0.39680456 0.0031874491 0)
(0.39367197 0.0030916084 0)
(0.39056509 0.0029993681 0)
(0.38748317 0.0029106093 0)
(0.38442916 0.0028251521 0)
(0.38140184 0.0027428893 0)
(0.37840409 0.0026636514 0)
(0.37543425 0.0025873425 0)
(0.37249517 0.0025138034 0)
(0.36958476 0.0024429493 0)
(0.36670592 0.0023746311 0)
(0.36385614 0.0023087741 0)
(0.36103843 0.0022452392 0)
(0.35824986 0.0021839611 0)
(0.3554936 0.00212481 0)
(0.35276633 0.0020677292 0)
(0.3500714 0.0020125982 0)
(0.3474051 0.0019593674 0)
(0.34477103 0.0019079258 0)
(0.34216505 0.0018582295 0)
(0.33959108 0.0018101764 0)
(0.33704454 0.0017637277 0)
(0.33452969 0.0017187899 0)
(0.33204151 0.0016753279 0)
(0.32958466 0.0016332571 0)
(0.32715363 0.0015925451 0)
(0.32475351 0.0015531158 0)
(0.3223783 0.0015149384 0)
(0.32003359 0.0014779459 0)
(0.31771281 0.0014421074 0)
(0.31542211 0.0014073654 0)
(0.31315431 0.0013736878 0)
(0.3109162 0.001341027 0)
(0.30869992 0.0013093481 0)
(0.30651297 0.0012786142 0)
(0.30434673 0.0012487862 0)
(0.30220948 0.0012198385 0)
(0.30009182 0.0011917266 0)
(0.29800285 0.0011644368 0)
(0.2959323 0.0011379176 0)
(0.29389021 0.0011121685 0)
(0.29186531 0.0010871292 0)
(0.28986872 0.0010628135 0)
(0.28788807 0.0010391508 0)
(0.28593563 0.0010161705 0)
(0.28399783 0.00099378957 0)
(0.28208823 0.00097205451 0)
(0.28019193 0.00095086839 0)
(0.27832391 0.00093029611 0)
(0.27646778 0.00091022469 0)
(0.27464009 0.00089073937 0)
(0.27282284 0.00087170893 0)
(0.27103432 0.00085324086 0)
(0.26925469 0.00083518344 0)
(0.26750419 0.00081766845 0)
(0.26576096 0.00080052127 0)
(0.2640474 0.00078390025 0)
(0.26233938 0.00076760528 0)
(0.2606617 0.00075182373 0)
(0.25898773 0.00073632724 0)
(0.25734494 0.00072133484 0)
(0.25570389 0.00070658703 0)
(0.25409503 0.0006923373 0)
(0.25248582 0.00067829192 0)
(0.25090999 0.00066474192 0)
(0.24933153 0.00065135599 0)
(0.24778786 0.00063846596 0)
(0.24623913 0.00062569946 0)
(0.24472681 0.00061343261 0)
(0.24320676 0.00060124823 0)
(0.24172503 0.0005895705 0)
(0.24023268 0.00057793341 0)
(0.23878081 0.00056681321 0)
(0.23731516 0.00055569085 0)
(0.23589249 0.0005450989 0)
(0.23445257 0.00053446077 0)
(0.23305848 0.00052436993 0)
(0.23164334 0.00051418743 0)
(0.23027724 0.0005045725 0)
(0.22888592 0.00049481877 0)
(0.22754729 0.00048565639 0)
(0.22617885 0.00047630614 0)
(0.22486723 0.00046757464 0)
(0.22352071 0.00045860405 0)
(0.22223567 0.00045028332 0)
(0.22091014 0.00044166989 0)
(0.21965132 0.00043374131 0)
(0.21834581 0.00042546375 0)
(0.2171129 0.00041791005 0)
(0.21582644 0.00040994821 0)
(0.21461921 0.00040275341 0)
(0.21335081 0.00039508814 0)
(0.21216906 0.00038823745 0)
(0.21091772 0.00038085056 0)
(0.20976135 0.00037433032 0)
(0.20852603 0.00036720445 0)
(0.207395 0.00036100208 0)
(0.20617461 0.00035412067 0)
(0.20506895 0.00034822458 0)
(0.20386238 0.0003415718 0)
(0.20278223 0.00033597137 0)
(0.20158831 0.00032953206 0)
(0.20053387 0.00032421754 0)
(0.19935136 0.00031797717 0)
(0.19832295 0.00031293969 0)
(0.19715055 0.0003068843 0)
(0.19614859 0.00030211578 0)
(0.19498493 0.000296232 0)
(0.19400995 0.00029172515 0)
(0.19285355 0.00028600015 0)
(0.19190622 0.00028174841 0)
(0.19075549 0.00027616988 0)
(0.18983662 0.00027216739 0)
(0.18868985 0.0002667236 0)
(0.1878004 0.00026296516 0)
(0.18665575 0.000257645 0)
(0.18579686 0.00025412602 0)
(0.18465232 0.00024891904 0)
(0.18382529 0.00024563552 0)
(0.18267867 0.00024053206 0)
(0.18188505 0.00023748053 0)
(0.18073395 0.00023247184 0)
(0.17997549 0.00022964935 0)
(0.17881726 0.00022472786 0)
(0.17809598 0.00022213188 0)
(0.1769277 0.00021729149 0)
(0.17624591 0.00021491989 0)
(0.17506435 0.00021015647 0)
(0.17442467 0.00020800746 0)
(0.1732262 0.00020331946 0)
(0.17263161 0.00020139149 0)
(0.17141219 0.00019678101 0)
(0.17086606 0.00019507271 0)
(0.16962114 0.0001905469 0)
(0.16912729 0.00018905694 0)
(0.1678517 0.00018463036 0)
(0.16741444 0.00018335745 0)
(0.16610229 0.0001790557 0)
(0.16572646 0.00017799854 0)
(0.16437095 0.00017386455 0)
(0.16406201 0.00017302199 0)
(0.16265523 0.00016912767 0)
(0.16241919 0.00016849765 0)
(0.16095183 0.00016497082 0)
(0.16079519 0.0001645267 0)
(0.15925645 0.0001616947 0)
(0.15918483 0.00016112562 0)
(0.15756527 0.00016249181 0)
(0.48588282 0.013720138 0)
(0.48671277 0.016484291 0)
(0.48840195 0.018956395 0)
(0.49084407 0.020652411 0)
(0.49366085 0.021451707 0)
(0.49642758 0.021563783 0)
(0.49889868 0.021215747 0)
(0.50100725 0.020520013 0)
(0.50275114 0.019520839 0)
(0.50411321 0.018285181 0)
(0.50506406 0.016935041 0)
(0.50560009 0.015617749 0)
(0.50577177 0.014446165 0)