/*--------------------------------*- C++ -*----------------------------------*\
| =========                 |                                                 |
| \\      /  F ield         | OpenFOAM: The Open Source CFD Toolbox           |
|  \\    /   O peration     | Version:  5.x                                   |
|   \\  /    A nd           | Web:      www.OpenFOAM.org                      |
|    \\/     M anipulation  |                                                 |
\*---------------------------------------------------------------------------*/
FoamFile
{
    version     2.0;
    format      ascii;
    class       volScalarField;
    location    "0.6";
    object      p;
}
// * * * * * * * * * * * * * * * * * * * * * * * * * * * * * * * * * * * * * //

dimensions      [0 2 -2 0 0 0 0];

internalField   nonuniform List<scalar> 
2475
(
0.0320922
0.028193
0.0222711
0.0166072
0.010964
0.00503441
-0.000614183
-0.00452677
-0.00575653
-0.00492436
-0.00337634
-0.00198149
-0.00104352
-0.000546419
-0.000337897
-0.000270233
-0.000251904
-0.000241701
-0.000224251
-0.000205241
-0.000191184
-0.000180509
-0.000171913
-0.000181245
-0.000196656
-0.000214585
-0.000232122
-0.000249073
-0.000256236
-0.000258872
-0.000259653
-0.000245535
-0.000229527
-0.000158796
-0.000119662
0.0288574
0.026814
0.0218299
0.016362
0.0108386
0.00513064
-0.000294712
-0.00414073
-0.00547062
-0.00474835
-0.00326332
-0.0019042
-0.000989666
-0.000507342
-0.000307743
-0.000245498
-0.000230977
-0.000223657
-0.000208577
-0.000191427
-0.000179068
-0.000169713
-0.000162289
-0.000172562
-0.000188958
-0.000207562
-0.000225894
-0.000243352
-0.000251181
-0.000254123
-0.000255509
-0.000241549
-0.000226131
-0.000155379
-0.000116757
0.0262999
0.0254736
0.0214492
0.016244
0.0108297
0.00538564
0.000318886
-0.00339398
-0.00491632
-0.00445657
-0.00312267
-0.00183205
-0.000941833
-0.000467453
-0.000271874
-0.000213262
-0.000202573
-0.000199289
-0.000188066
-0.000174242
-0.000164615
-0.000157419
-0.000151714
-0.00016342
-0.000181038
-0.000200564
-0.000219771
-0.000237872
-0.000246367
-0.000249718
-0.000251682
-0.000237979
-0.000223084
-0.000152562
-0.000114383
0.0242998
0.0241119
0.0209662
0.0161592
0.0109086
0.0057216
0.00100577
-0.00253433
-0.00421225
-0.0040525
-0.00292691
-0.00172371
-0.000860707
-0.000396878
-0.000210819
-0.000161833
-0.000159424
-0.000163304
-0.000158353
-0.00014983
-0.000144246
-0.000140223
-0.000136932
-0.000150636
-0.000169895
-0.0001909
-0.000211403
-0.000230572
-0.000240013
-0.000244104
-0.000246856
-0.0002337
-0.0002194
-0.000149689
-0.000111593
0.0225899
0.0227225
0.0203217
0.016028
0.0110316
0.00609021
0.00167524
-0.00168913
-0.00347195
-0.00359451
-0.00269738
-0.00159614
-0.000761525
-0.000305414
-0.000128791
-9.1775e-05
-0.00010022
-0.000113379
-0.00011674
-0.000115362
-0.000115265
-0.000115724
-0.000116046
-0.000132595
-0.000154115
-0.000177202
-0.000199575
-0.000220327
-0.000231171
-0.000236358
-0.000240236
-0.000227994
-0.000214446
-0.000146404
-0.000107672
0.0210523
0.0213559
0.0195479
0.0158312
0.011178
0.00648282
0.00231504
-0.000884672
-0.00272679
-0.00309676
-0.00243588
-0.00145405
-0.000654127
-0.000203325
-3.35125e-05
-8.64027e-06
-2.95084e-05
-5.33252e-05
-6.61511e-05
-7.27031e-05
-7.88052e-05
-8.44683e-05
-8.93379e-05
-0.00010925
-0.000133543
-0.000159052
-0.000183825
-0.00020655
-0.000219416
-0.000226011
-0.00023145
-0.000220448
-0.000207881
-0.000142464
-0.000102185
0.0196702
0.020089
0.0187313
0.0155734
0.011324
0.00689155
0.0029323
-0.000124011
-0.00198909
-0.0025651
-0.00213898
-0.00129503
-0.000540287
-9.43539e-05
7.21969e-05
8.58206e-05
5.10217e-05
1.46762e-05
-9.07335e-06
-2.4328e-05
-3.71628e-05
-4.83779e-05
-5.83951e-05
-8.1908e-05
-0.000109363
-0.000137294
-0.000164776
-0.000189515
-0.000204969
-0.000213118
-0.000220557
-0.000210954
-0.000199633
-0.000137653
-9.51562e-05
0.0184786
0.0189935
0.0179605
0.0152791
0.0114495
0.00730254
0.00353446
0.000597978
-0.00126917
-0.00200857
-0.00180515
-0.00111444
-0.000418306
2.04237e-05
0.000186959
0.000191156
0.000141374
9.03918e-05
5.38424e-05
2.873e-05
8.53313e-06
-8.50905e-06
-2.40993e-05
-5.14542e-05
-8.24377e-05
-0.000112821
-0.000143256
-0.000169954
-0.000188378
-0.000198188
-0.000207966
-0.000199833
-0.000189959
-0.000131953
-8.71652e-05
0.0174868
0.018105
0.0172825
0.0149754
0.0115426
0.00769628
0.00411904
0.00128592
-0.000573892
-0.00143659
-0.00143415
-0.000906714
-0.0002844
0.000140852
0.000308995
0.000306492
0.000241839
0.000174476
0.00012302
8.65046e-05
5.81269e-05
3.49123e-05
1.33727e-05
-1.81354e-05
-5.29807e-05
-8.6006e-05
-0.000119631
-0.000148368
-0.000169982
-0.000181668
-0.000193971
-0.000187516
-0.000179165
-0.000125533
-7.89316e-05
0.0166217
0.0173725
0.0167034
0.0146764
0.0115935
0.00804892
0.0046724
0.00193999
9.34961e-05
-0.000859139
-0.00103124
-0.000669759
-0.000136202
0.000266357
0.000435831
0.000430034
0.000352265
0.000267658
0.00019917
0.000149345
0.000111678
8.181e-05
5.39875e-05
1.80231e-05
-2.09511e-05
-5.69219e-05
-9.39512e-05
-0.000124972
-0.000149886
-0.000163786
-0.000178651
-0.000174271
-0.00016743
-0.000118554
-7.09004e-05
0.0158054
0.0167197
0.0161997
0.0143913
0.0116032
0.0083471
0.00518318
0.00255993
0.000731543
-0.000286748
-0.000605573
-0.000404299
2.89547e-05
0.000398286
0.000566533
0.000560186
0.000472108
0.000370461
0.000283101
0.000217781
0.000169385
0.000132207
9.77824e-05
5.70706e-05
1.37616e-05
-2.55145e-05
-6.61339e-05
-9.97957e-05
-0.000128067
-0.000144605
-0.000161989
-0.000160182
-0.000154844
-0.000111072
-6.32515e-05
0.0150088
0.0161087
0.0157519
0.0141294
0.0115887
0.00859516
0.00564569
0.00314278
0.0013389
0.000272189
-0.000164089
-0.000109849
0.000215514
0.000540599
0.000701962
0.000695863
0.000600387
0.000483056
0.000375756
0.000292766
0.000231883
0.000186446
0.000144984
9.91581e-05
5.1333e-05
8.36258e-06
-3.60219e-05
-7.27438e-05
-0.000104426
-0.000124062
-0.00014394
-0.000145212
-0.000141461
-0.000103065
-5.6032e-05
0.0142323
0.0155273
0.0153478
0.0138976
0.0115681
0.00880455
0.00605672
0.00368225
0.00191436
0.000813848
0.000287317
0.000212604
0.000426758
0.000696755
0.000843498
0.00083601
0.000735571
0.000605168
0.00047804
0.000375404
0.000299946
0.000244863
0.000195736
0.000144383
9.19288e-05
4.48958e-05
-3.42708e-06
-4.36764e-05
-7.88594e-05
-0.000102055
-0.000124463
-0.000129268
-0.000127323
-9.44822e-05
-4.92395e-05
0.0134831
0.0149731
0.0149802
0.0136987
0.0115517
0.00898529
0.0064178
0.0041733
0.00245561
0.00133518
0.000740689
0.00055802
0.000663083
0.000868599
0.000992673
0.000980264
0.000876256
0.000735938
0.00059023
0.000466453
0.000374267
0.000307856
0.000250232
0.000192835
0.000135633
8.41892e-05
3.17732e-05
-1.2448e-05
-5.12633e-05
-7.84575e-05
-0.000103535
-0.00011225
-0.000112467
-8.52862e-05
-4.28534e-05
0.0127699
0.0144496
0.0146452
0.0135296
0.0115421
0.00914317
0.00673254
0.00461181
0.00295672
0.00183122
0.00118709
0.00091887
0.000923201
0.00105787
0.00115207
0.00113
0.0010216
0.000873615
0.00071152
0.000566158
0.000455486
0.000376018
0.000308807
0.000244639
0.000182497
0.000126343
6.96849e-05
2.10852e-05
-2.15529e-05
-5.31374e-05
-8.11307e-05
-9.40627e-05
-9.69163e-05
-7.54635e-05
-3.68415e-05
0.0121025
0.0139624
0.0143385
0.0133827
0.0115372
0.00928025
0.00700499
0.00499695
0.00341198
0.00229744
0.00161943
0.0012869
0.00120476
0.00126633
0.00132399
0.00128675
0.00117069
0.00101619
0.000840901
0.000674879
0.000544446
0.000450087
0.000371864
0.000299927
0.000232536
0.00017145
0.000110415
5.70936e-05
1.03691e-05
-2.59526e-05
-5.7218e-05
-7.46206e-05
-8.06741e-05
-6.50205e-05
-3.1169e-05
0.0114849
0.0135118
0.0140532
0.0132472
0.0115309
0.00939745
0.00724049
0.00533302
0.00381937
0.00273014
0.00203288
0.00165447
0.00150386
0.00149435
0.00150911
0.0014518
0.00132404
0.00116286
0.000977455
0.000792515
0.000641548
0.000530594
0.000439893
0.000359072
0.000285924
0.000219634
0.000154041
9.57403e-05
4.46264e-05
3.27126e-06
-3.17233e-05
-5.38355e-05
-6.37027e-05
-5.39589e-05
-2.56909e-05
0.0109103
0.0130919
0.0137818
0.0131147
0.01152
0.00949755
0.0074444
0.0056253
0.00417844
0.00312478
0.00242371
0.00201479
0.00181304
0.00173945
0.00170754
0.00162671
0.00148362
0.00131337
0.00111944
0.0009177
0.000746428
0.000617947
0.000513469
0.000422462
0.000342761
0.000270909
0.000200535
0.000137079
8.12599e-05
3.46181e-05
-4.59901e-06
-3.16738e-05
-4.59843e-05
-4.23372e-05
-2.04007e-05
0.0103735
0.0127008
0.0135254
0.012986
0.0115053
0.00958271
0.00761984
0.00587789
0.00449129
0.00347895
0.00278901
0.002362
0.00212353
0.00199804
0.0019198
0.00181245
0.0016508
0.00146745
0.00126529
0.0010493
0.000858869
0.000712585
0.000593126
0.000490358
0.000403052
0.000325281
0.000249907
0.000181175
0.000120344
6.81728e-05
2.41958e-05
-8.12948e-06
-2.74914e-05
-3.02006e-05
-1.53455e-05
0.00987462
0.0123397
0.0132877
0.0128617
0.0114831
0.00964961
0.00776668
0.00609371
0.00476246
0.00379316
0.00312557
0.00269201
0.00242909
0.0022661
0.00214545
0.00200874
0.00182618
0.0016259
0.00141449
0.00118664
0.000978248
0.000814124
0.000679039
0.000563358
0.000467329
0.000383066
0.000302272
0.000228085
0.000161942
0.00010407
5.48361e-05
1.69222e-05
-8.1126e-06
-1.75166e-05
-1.01135e-05
0.00940944
0.0120036
0.013064
0.0127367
0.0114478
0.00969462
0.00788458
0.0062749
0.00499522
0.00406732
0.00342849
0.00300058
0.00272396
0.00253544
0.00237959
0.0022131
0.00200913
0.00178958
0.00156664
0.00132824
0.00110308
0.000921541
0.000771014
0.000641657
0.000535604
0.000444024
0.000357381
0.000277659
0.000206026
0.000142237
8.72572e-05
4.33669e-05
1.21292e-05
-4.37764e-06
-4.96652e-06
0.00897587
0.011687
0.0128497
0.0126094
0.0114
0.00972
0.00797678
0.00642563
0.00519349
0.00430378
0.0036961
0.00328432
0.00300378
0.00279946
0.00261771
0.00242439
0.00219978
0.00195952
0.00172141
0.00147242
0.00123214
0.00103408
0.000868652
0.000725154
0.000607963
0.000508353
0.000415364
0.000329786
0.000252405
0.000182537
0.000121475
7.12026e-05
3.32212e-05
9.14466e-06
-1.48453e-07
0.00857576
0.0113905
0.0126461
0.0124848
0.011346
0.00973146
0.00804833
0.00655059
0.00536175
0.00450737
0.00393084
0.00354218
0.003267
0.00305425
0.00285554
0.00264077
0.00239663
0.0021351
0.00187929
0.0016193
0.0013653
0.00115139
0.000971651
0.000814074
0.000684834
0.00057635
0.000476352
0.000384576
0.00030128
0.000225208
0.00015765
0.000100564
5.53292e-05
2.32716e-05
5.24347e-06
0.00820451
0.0111132
0.0124534
0.0123634
0.011286
0.00972758
0.00809641
0.00664618
0.00549741
0.00467722
0.00413208
0.00377049
0.00350882
0.00329463
0.00308685
0.00285712
0.00259578
0.00231443
0.00204028
0.0017686
0.00150124
0.00127138
0.00107813
0.000907431
0.000765812
0.000647716
0.000540167
0.000441843
0.000352333
0.000269827
0.000195534
0.000131312
7.837e-05
3.78826e-05
1.06553e-05
0.00785888
0.0108522
0.0122678
0.0122409
0.0112156
0.00970463
0.00811844
0.00671137
0.00560175
0.00481589
0.00430167
0.00396746
0.0037248
0.00351664
0.00330677
0.00306834
0.00279381
0.00249565
0.00220294
0.00191814
0.00163808
0.00139302
0.0011871
0.00100422
0.000850201
0.000722086
0.000606515
0.000501115
0.000405176
0.000316179
0.000234949
0.000163211
0.000102181
5.28677e-05
1.56809e-05
0.00754306
0.0106091
0.0120897
0.0121173
0.0111376
0.00966836
0.00812256
0.00675519
0.00568265
0.00492874
0.00444265
0.00413454
0.00391438
0.00371858
0.00351168
0.00326979
0.00298759
0.00267677
0.00236581
0.0020671
0.00177586
0.00151643
0.00129774
0.00110336
0.000937367
0.000799185
0.000675373
0.000562623
0.000459906
0.000364156
0.000275754
0.000196322
0.00012685
6.8408e-05
2.15324e-05
0.00725798
0.0103859
0.0119218
0.0119965
0.0110566
0.00962362
0.00811286
0.00677946
0.00573864
0.00501303
0.0045538
0.00427243
0.00407708
0.00389807
0.00369849
0.00345757
0.00317264
0.00285367
0.00252675
0.0022145
0.00191286
0.0016393
0.00140798
0.00120355
0.00102664
0.000878424
0.000746138
0.000625711
0.000515914
0.000413299
0.000317626
0.000230299
0.000152108
8.42235e-05
2.75364e-05
0.00700149
0.0101823
0.0117649
0.0118791
0.0109725
0.00956922
0.00808687
0.00678134
0.00576823
0.00507
0.00463804
0.0043831
0.0042124
0.00405243
0.00386403
0.00362804
0.00334366
0.00302077
0.00268255
0.00235813
0.00204676
0.00176039
0.00151725
0.00130366
0.00111654
0.000958503
0.000818035
0.000689896
0.000572933
0.000463202
0.00036009
0.000264647
0.000177735
9.99877e-05
3.25136e-05
0.00676926
0.00999459
0.0116159
0.0117625
0.010883
0.00950349
0.00804448
0.0067631
0.00577578
0.00510357
0.00469674
0.00446545
0.00431741
0.00417778
0.00400468
0.00377867
0.00349808
0.00317485
0.00283051
0.00249529
0.00217532
0.0018791
0.00162458
0.00140199
0.00120615
0.00103929
0.000891195
0.000755533
0.000631041
0.000513915
0.000403323
0.000299697
0.000203933
0.000116184
3.66013e-05
0.0065485
0.00981278
0.0114684
0.0116432
0.0107867
0.00942652
0.00798611
0.0067242
0.00575787
0.00510734
0.00472245
0.00451354
0.00438772
0.00427016
0.00411567
0.00390338
0.00363022
0.00331008
0.00296443
0.00262139
0.00229456
0.00199177
0.00172739
0.00149712
0.00129465
0.00112004
0.000964561
0.00082198
0.000690463
0.000566305
0.000447978
0.000336188
0.000231526
0.000134786
4.72798e-05
0.00604824
0.00940035
0.0111327
0.0113671
0.010554
0.00922677
0.00781507
0.00658194
0.00564709
0.00503376
0.00469294
0.0045347
0.00446268
0.00439771
0.0042878
0.00410991
0.00386166
0.00355718
0.00321757
0.00286725
0.00252939
0.00221553
0.00193424
0.00168913
0.00147443
0.00128564
0.00111726
0.000961981
0.000815723
0.000676158
0.000541725
0.000412382
0.000288394
0.000170271
5.79495e-05
0.00638485
0.00963495
0.0112559
0.0113787
0.0104656
0.00905933
0.00759451
0.00633486
0.00539822
0.00480462
0.00449961
0.00438743
0.00436558
0.00434954
0.00428407
0.00414346
0.00392505
0.00364347
0.00332186
0.00298465
0.00265412
0.00234526
0.00206651
0.00182036
0.00160359
0.00141104
0.00123621
0.00107255
0.000915817
0.00076321
0.000613402
0.000466564
0.000323681
0.000186183
5.61789e-05
0.00500101
0.00823637
0.00990144
0.0101218
0.00934031
0.00807591
0.00674349
0.0055951
0.00474639
0.00421815
0.00395716
0.00386982
0.00386087
0.00385795
0.0038166
0.00371516
0.00354932
0.00333039
0.00307911
0.00281585
0.00255452
0.00230528
0.00207628
0.00186803
0.00167648
0.00149907
0.00133198
0.00117072
0.00101299
0.000857471
0.000703205
0.000549863
0.00039692
0.000243316
8.74382e-05
0.00386635
0.000441945
-0.00139691
-0.00177743
-0.00114752
-3.30442e-05
0.00114463
0.00212718
0.00279501
0.00312507
0.00316991
0.00302368
0.00278307
0.00252296
0.00229074
0.00211056
0.00198814
0.00191265
0.00186425
0.00182382
0.00177843
0.00171803
0.00163555
0.00153257
0.00141379
0.00128261
0.00114428
0.00100367
0.000863252
0.000724468
0.000587924
0.000453345
0.000320308
0.000188722
5.92606e-05
0.00274586
-0.000708632
-0.00252478
-0.0028347
-0.002107
-0.00089243
0.000369612
0.00141446
0.00212485
0.00248143
0.00253938
0.00239514
0.00215169
0.00189363
0.00167588
0.00152441
0.0014427
0.00141822
0.00142983
0.00145421
0.00147142
0.00146766
0.00143644
0.00137717
0.00129302
0.00118991
0.00107466
0.000952864
0.00082867
0.000704621
0.000581457
0.000458563
0.000334432
0.000207004
7.41594e-05
0.00359116
6.22685e-06
-0.00195999
-0.00242941
-0.00185453
-0.000771932
0.000386189
0.00135497
0.00201379
0.00233839
0.00237758
0.0022216
0.00196783
0.00169683
0.00146232
0.00129147
0.00119049
0.00115008
0.00115171
0.00117397
0.00119752
0.00120834
0.00119805
0.00116302
0.00110432
0.001026
0.000933165
0.000831161
0.000724404
0.000615753
0.00050665
0.000397299
0.000287035
0.000174801
5.96488e-05
0.00326935
-0.000328916
-0.00230729
-0.00278769
-0.00222251
-0.00114807
3.64273e-06
0.000967893
0.00162406
0.00194771
0.0019873
0.00183272
0.00158106
0.00131279
0.00108171
0.000915257
0.000820073
0.000787227
0.000798547
0.000832947
0.000871395
0.000899647
0.000909011
0.000895903
0.000860857
0.000807047
0.000738994
0.000661332
0.00057797
0.00049167
0.000404042
0.000315674
0.000226524
0.000136276
4.47987e-05
0.0032826
-0.00031402
-0.00229419
-0.00277935
-0.00222096
-0.00115449
-1.12581e-05
0.000944355
0.00159193
0.00190717
0.00193868
0.0017764
0.00151743
0.00124227
0.00100477
0.000832498
0.000732178
0.000694987
0.000702901
0.00073505
0.000772588
0.000801385
0.000812915
0.00080369
0.000774173
0.000727465
0.000667898
0.000599824
0.000526857
0.000451433
0.000374768
0.000296991
0.000217423
0.000134886
4.8054e-05
0.0031582
-0.000441157
-0.00242431
-0.00291287
-0.00235831
-0.00129599
-0.000157087
0.000794168
0.00143748
0.00174863
0.00177628
0.0016104
0.00134818
0.00107016
0.000830259
0.000656092
0.000554457
0.00051664
0.000524711
0.000557885
0.000597393
0.000629214
0.000644891
0.000640972
0.000617962
0.00057897
0.000528294
0.00047026
0.000408462
0.000345359
0.000282275
0.000219594
0.000157109
9.43898e-05
3.11657e-05
0.00302527
-0.000572995
-0.00255514
-0.00304276
-0.00248735
-0.00142423
-0.000284475
0.000667758
0.00131221
0.00162468
0.0016538
0.00148955
0.00122908
0.000952937
0.00071503
0.000542989
0.000443652
0.000408343
0.00041918
0.00045542
0.000498356
0.000534037
0.000554057
0.000555037
0.000537557
0.000504764
0.000460978
0.000410526
0.000356957
0.000302639
0.000248741
0.000195394
0.000142002
8.75786e-05
3.11289e-05
0.00291562
-0.00068131
-0.00266251
-0.00314946
-0.00259347
-0.00152976
-0.00038935
0.000563609
0.00120885
0.00152214
0.00155212
0.00138874
0.00112916
0.000853934
0.000617011
0.000446056
0.000347945
0.000314038
0.000326498
0.000364634
0.000409772
0.00044798
0.000470867
0.000475061
0.000461132
0.000432249
0.000392771
0.000347075
0.000298774
0.000250325
0.000203003
0.000157097
0.000112236
6.77583e-05
2.31033e-05
0.0028186
-0.000777496
-0.002758
-0.00324438
-0.00268789
-0.00162364
-0.000482649
0.000470973
0.00111696
0.00143108
0.00146196
0.00129954
0.00104099
0.000766863
0.000531123
0.000361458
0.000264762
0.00023242
0.000246619
0.000286694
0.000333995
0.00037461
0.000400184
0.000407387
0.000396835
0.000371734
0.000336487
0.000295512
0.000252461
0.000209817
0.000168876
0.000129918
9.25367e-05
5.59934e-05
1.96116e-05
0.00273829
-0.000857361
-0.00283734
-0.00332312
-0.00276597
-0.00170102
-0.000559281
0.000395139
0.00104198
0.00135703
0.00138888
0.00122751
0.000970071
0.000697131
0.000462659
0.000294354
0.000199125
0.000168375
0.000184305
0.000226265
0.000275624
0.00031849
0.000346526
0.000356421
0.000348807
0.000326909
0.00029514
0.000257927
0.000218925
0.000180623
0.000144316
0.000110287
7.81289e-05
4.71102e-05
1.65661e-05
0.00268104
-0.000914221
-0.00289379
-0.00337913
-0.00282149
-0.00175602
-0.00061371
0.000341329
0.000988842
0.0013046
0.00133722
0.00117666
0.000920078
0.000648041
0.000414526
0.000247241
0.000153105
0.000123529
0.000140724
0.000184053
0.000234894
0.000279364
0.000309134
0.000320904
0.000315316
0.000295602
0.00026619
0.000231517
0.00019525
0.000159892
0.000126753
9.61326e-05
6.76433e-05
4.05778e-05
1.43017e-05
0.0026507
-0.000943958
-0.00292309
-0.00340814
-0.00285033
-0.00178473
-0.000642287
0.000312911
0.00096063
0.00127666
0.00130961
0.00114944
0.000893305
0.000621766
0.000388792
0.000222085
0.000128559
9.96264e-05
0.000117502
0.000161554
0.000213168
0.00025847
0.000289138
0.000301884
0.000297356
0.000278796
0.000250637
0.000217324
0.000182529
0.000148763
0.000117342
8.85719e-05
6.2072e-05
3.71412e-05
1.31499e-05
0.0115623
0.0095239
0.00936573
0.00903139
0.0092535
0.00891745
0.00885364
0.00885076
0.00886
0.00880566
0.00918054
0.00966136
0.0104602
0.0113692
0.0126563
0.014436
0.0165141
0.0193947
0.0228894
0.0269602
0.0115676
0.00951089
0.00937282
0.00901803
0.0092589
0.00888261
0.00886825
0.00881414
0.00888638
0.00876373
0.00921478
0.00961176
0.0104858
0.0113065
0.0126791
0.014354
0.0164933
0.0191477
0.0222363
0.0254237
0.0115687
0.00949586
0.00937869
0.0090017
0.00926414
0.00885555
0.00887957
0.00878024
0.00890948
0.00872269
0.00923995
0.00956136
0.010498
0.0112461
0.012661
0.0142712
0.0163326
0.0186782
0.021265
0.0237593
0.0115644
0.00948032
0.00938286
0.00898498
0.00926923
0.00883087
0.00888532
0.00875299
0.00891952
0.00869915
0.00923587
0.00954257
0.0104671
0.0112235
0.0125628
0.0141466
0.0160034
0.0180446
0.0201732
0.0222365
0.0115565
0.00946499
0.00938673
0.00896911
0.00927233
0.00881096
0.00888515
0.00873659
0.00891373
0.00869587
0.00920328
0.00954535
0.0103846
0.0111721
0.0123967
0.0139253
0.0155732
0.0173063
0.0190828
0.0208497
0.0115465
0.0094514
0.0093898
0.0089564
0.00927067
0.00879984
0.00887424
0.00873468
0.00888887
0.00871084
0.00914517
0.00954214
0.010279
0.0110666
0.0121624
0.0135738
0.0150441
0.0165356
0.0180428
0.0195573
0.0115345
0.00944116
0.00939023
0.00894918
0.00926021
0.00879999
0.00884964
0.00874758
0.00884563
0.00873279
0.00908259
0.0095148
0.0101642
0.0108993
0.0118352
0.0130577
0.0143834
0.0157351
0.0171012
0.0183414
0.0115199
0.00943619
0.00938611
0.00894871
0.00923843
0.00880955
0.00881218
0.00876723
0.00880022
0.00873516
0.00903485
0.00946204
0.0100379
0.0106849
0.0114564
0.0124619
0.0135968
0.0147681
0.0159262
0.0171368
0.011501
0.0094393
0.00937561
0.0089561
0.0092031
0.00882727
0.00876665
0.00877977
0.00876651
0.00872183
0.00899665
0.00939019
0.00988365
0.0104354
0.0110452
0.0117829
0.0126422
0.0135515
0.0145944
0.0159706
0.0114757
0.00945357
0.00935735
0.00897179
0.00915347
0.00884967
0.00872268
0.00877993
0.00875017
0.00870005
0.00894716
0.00930852
0.00966927
0.010037
0.0104656
0.0109984
0.0116292
0.0123741
0.0133788
0.0148918
0.0114417
0.00948188
0.00933112
0.00899409
0.0090939
0.00886536
0.00869458
0.00876686
0.00873778
0.00866921
0.00885621
0.00910981
0.00934476
0.00957732
0.00984838
0.0101948
0.0106365
0.0112689
0.0122686
0.013888
0.0113972
0.00952725
0.00929809
0.0090177
0.00903683
0.00886484
0.0086846
0.00874508
0.00871261
0.00858233
0.00867331
0.00886539
0.0090025
0.0090952
0.00920345
0.00938467
0.0096823
0.0102243
0.0112181
0.0129268
0.0113402
0.00959166
0.00926218
0.00903309
0.0089958
0.00884799
0.00867192
0.00870417
0.0086281
0.00845463
0.0084795
0.00860086
0.00863565
0.00858671
0.00854058
0.00857805
0.00875574
0.00921664
0.0102025
0.0119949
0.0112696
0.00967419
0.0092361
0.00903243
0.00897393
0.00882073
0.00863112
0.00861305
0.00852076
0.00831806
0.00826876
0.00830686
0.00823954
0.00805829
0.00786923
0.00777104
0.00784056
0.00823298
0.00921611
0.0110931
0.0111859
0.00976095
0.00923004
0.00902367
0.00894422
0.00877642
0.00856502
0.00850878
0.00839709
0.00816323
0.00803517
0.00798283
0.00781795
0.00751603
0.00718953
0.00695833
0.00692825
0.00726871
0.00826166
0.0102278
0.0110891
0.00984606
0.00925364
0.00901126
0.00890076
0.00871306
0.00848372
0.00838924
0.00825056
0.00798454
0.00778006
0.00763282
0.00737131
0.00695556
0.00649828
0.00614222
0.00602422
0.00633025
0.0073478
0.00940886
0.0109797
0.00992534
0.00930453
0.00900003
0.00884241
0.00863174
0.00838364
0.00824811
0.00807931
0.0077831
0.00750382
0.00725527
0.00689443
0.00637311
0.00579889
0.00533595
0.00514638
0.00543233
0.00648495
0.00864339
0.0108612
0.00999087
0.00938364
0.00899646
0.00877284
0.0085296
0.00825908
0.00808392
0.00788497
0.00755677
0.00720229
0.00684988
0.00639014
0.00577638
0.0051058
0.00455752
0.0043114
0.00458461
0.00567505
0.00792781
0.0107419
0.0100338
0.00946717
0.0090085
0.00869858
0.00840602
0.00810765
0.00789569
0.00766494
0.00730324
0.0068777
0.00642572
0.00587033
0.00517475
0.00443115
0.00381564
0.00352352
0.00378744
0.004915
0.00725723
0.0106316
0.010051
0.00953206
0.00903522
0.00862946
0.00826053
0.00792216
0.00767485
0.0074148
0.00702327
0.0065351
0.00599116
0.00534588
0.00457815
0.00377539
0.00310663
0.00277855
0.00303852
0.00420391
0.00663159
0.0105303
0.0100358
0.00956542
0.00910242
0.00861033
0.00811592
0.00770308
0.00741857
0.00713554
0.00671747
0.00617354
0.00554582
0.00481769
0.00398467
0.00313367
0.00242635
0.00207436
0.00233728
0.00354114
0.00604885
0.0104463
0.0100215
0.0095511
0.00905341
0.00857116
0.00800356
0.00751167
0.00717597
0.00685207
0.00639503
0.00579636
0.00509518
0.00429286
0.00340554
0.00251905
0.00178736
0.00142178
0.0016914
0.002931
0.00551015
0.0104058
0.0100478
0.00952234
0.00892469
0.0083656
0.00783544
0.00735676
0.0069676
0.00657593
0.00606371
0.00541053
0.0046458
0.00378418
0.00285611
0.0019448
0.0011982
0.000825778
0.00110348
0.00237504
0.00501712
0.0103653
0.0100182
0.009437
0.008794
0.00820556
0.00767901
0.00719757
0.00675836
0.0062971
0.00572562
0.00501973
0.0042004
0.00329041
0.00232884
0.00139914
0.00064442
0.000271882
0.000561012
0.00186325
0.00456225
0.0103044
0.00997375
0.00937357
0.0086851
0.00805319
0.00750369
0.0070052
0.00652562
0.00600723
0.00538247
0.00462649
0.00375855
0.00280833
0.00182012
0.000877914
0.000121049
-0.000245551
5.88374e-05
0.00139131
0.00414184
0.0102369
0.00991571
0.00929321
0.00856409
0.00788875
0.00730561
0.00678278
0.00627118
0.00570822
0.00503855
0.00423951
0.00333033
0.00234853
0.00134139
0.000392722
-0.000361301
-0.000718006
-0.000396244
0.000964956
0.0037612
0.0101616
0.00984076
0.00919355
0.00842845
0.00771321
0.00709737
0.00654914
0.00600827
0.00540715
0.00469879
0.00386519
0.00292578
0.00192014
0.000899557
-5.1585e-05
-0.000799595
-0.00114419
-0.000804288
0.000583733
0.00342029
0.0100731
0.00974707
0.00907397
0.00827697
0.00752834
0.00688372
0.0063112
0.00574403
0.00511083
0.00437018
0.00351065
0.00254824
0.00152333
0.000491282
-0.000461675
-0.00120261
-0.00153311
-0.00117345
0.00024104
0.0031146
0.00996675
0.00963168
0.00893624
0.00811015
0.00733396
0.00666686
0.00607454
0.00548646
0.00482908
0.00406261
0.0031819
0.00220179
0.00116147
0.000118894
-0.000838245
-0.00157602
-0.0018932
-0.00151162
-6.98959e-05
0.00283869
0.00983935
0.00949696
0.00877708
0.0079265
0.00713011
0.0064487
0.00584426
0.00524283
0.00457104
0.00378747
0.00289098
0.00189807
0.000846636
-0.000204074
-0.00116526
-0.0019017
-0.00221394
-0.00182034
-0.000355256
0.00258198
0.0094772
0.00911861
0.00835346
0.00745799
0.00663231
0.00593787
0.00532785
0.00471983
0.00404184
0.00324961
0.00233869
0.00133124
0.000266894
-0.000794382
-0.00176429
-0.00250984
-0.00283299
-0.00244745
-0.00097558
0.00200486
0.00852282
0.00818532
0.0074745
0.0066539
0.00591804
0.00532287
0.00481791
0.00432179
0.00377061
0.00312512
0.00236956
0.00151051
0.000574583
-0.000387452
-0.00129141
-0.00200402
-0.00232282
-0.00195648
-0.000521256
0.00241193
0.0075506
0.00738191
0.00688394
0.00630991
0.00581614
0.00541396
0.00502077
0.00454682
0.0039322
0.00315759
0.00223398
0.00119191
7.60694e-05
-0.00105168
-0.00210306
-0.00294781
-0.00338498
-0.00312218
-0.00177389
0.00108862
0.00395439
0.00408866
0.00452696
0.00502534
0.0054305
0.0057309
0.00600909
0.00635671
0.00683174
0.00745551
0.00822076
0.00910104
0.0100547
0.0110215
0.0119138
0.012601
0.0128832
0.0124689
0.0109707
0.00795595
0.00314191
0.00345005
0.00410632
0.0048587
0.00551253
0.00600255
0.00637131
0.00670194
0.00707416
0.00754218
0.00812973
0.00883365
0.00962699
0.010457
0.011237
0.0118307
0.0120313
0.0115422
0.00997547
0.00689826
0.00216575
0.00255685
0.00336609
0.00431419
0.00518854
0.0059086
0.00650679
0.00706442
0.00765738
0.00832941
0.00909253
0.00993389
0.0108208
0.0116991
0.0124849
0.013048
0.0131913
0.0126299
0.010986
0.0078356
0.00175399
0.00219263
0.0030689
0.00409906
0.00506002
0.00585721
0.00651098
0.00709538
0.00768541
0.00833193
0.00905623
0.00985346
0.0106962
0.0115337
0.0122835
0.012816
0.0129338
0.0123514
0.0106906
0.00752694
0.0014156
0.0018709
0.0027736
0.00383629
0.00483278
0.00566514
0.00635111
0.00696392
0.00757881
0.0082466
0.00898872
0.00980091
0.0106567
0.0115056
0.0122649
0.0128049
0.0129286
0.0123509
0.0106945
0.00753556
0.00117544
0.00164019
0.00255817
0.00364007
0.00465758
0.00551061
0.00621524
0.00684364
0.00747059
0.00814696
0.00889441
0.00970889
0.010564
0.0114098
0.0121644
0.0126992
0.0128178
0.0122355
0.0105754
0.00741367
0.000987225
0.00145608
0.00238049
0.00347031
0.00449633
0.00535735
0.00606841
0.00670143
0.00733137
0.00800948
0.00875781
0.00957267
0.010428
0.0112739
0.0120288
0.0125638
0.0126826
0.0121007
0.010441
0.00727986
0.000831943
0.00130267
0.00223011
0.00332366
0.00435371
0.00521874
0.00593358
0.00656986
0.00720244
0.00788264
0.00863264
0.00944891
0.0103056
0.011153
0.0119094
0.0124462
0.0125666
0.0119863
0.0103282
0.00716861
0.000705347
0.0011771
0.00210624
0.00320189
0.00423417
0.00510146
0.00581852
0.00645701
0.00709177
0.00777405
0.00852598
0.009344
0.0102022
0.0110508
0.0118082
0.0123456
0.0124668
0.0118871
0.0102296
0.00707076
0.000606924
0.00107941
0.00200977
0.00310689
0.00414075
0.00500961
0.00572819
0.00636812
0.00700421
0.0076877
0.0084407
0.00925966
0.0101186
0.0109679
0.0117259
0.0122638
0.0123854
0.011806
0.0101488
0.00699015
0.000537359
0.0010103
0.00194142
0.00303947
0.0040743
0.00494411
0.00566361
0.00630441
0.00694131
0.00762555
0.00837925
0.00919883
0.0100584
0.0109082
0.0116666
0.012205
0.0123269
0.0117479
0.0100909
0.00693258
0.000499901
0.000972928
0.00190418
0.00300243
0.00403758
0.00490782
0.0056278
0.00626909
0.00690646
0.00759113
0.00834522
0.00916516
0.010025
0.0108751
0.0116338
0.0121725
0.0122947
0.011716
0.0100595
0.0069016
)
;

boundaryField
{
    top
    {
        type            zeroGradient;
    }
    inlet
    {
        type            zeroGradient;
    }
    outlet
    {
        type            fixedValue;
        value           uniform 0;
    }
    plate
    {
        type            zeroGradient;
    }
    symmBound
    {
        type            zeroGradient;
    }
    frontAndBack
    {
        type            empty;
    }
}


// ************************************************************************* //
