/*--------------------------------*- C++ -*----------------------------------*\
| =========                 |                                                 |
| \\      /  F ield         | OpenFOAM: The Open Source CFD Toolbox           |
|  \\    /   O peration     | Version:  1.4.1-dev                             |
|   \\  /    A nd           | Web:      http://www.openfoam.org               |
|    \\/     M anipulation  |                                                 |
\*---------------------------------------------------------------------------*/

FoamFile
{
    version 2.0;
    format ascii;

    root "/home/mjaworsk/OpenFOAM/mjaworsk-1.4.1-dev/run/FlatPlate-Blasius";
    case "icoHeatFoam-flatPlate2";
    instance "0.1";
    local "";

    class volScalarField;
    object p;
}

// * * * * * * * * * * * * * * * * * * * * * * * * * * * * * * * * * * * * * //

dimensions      [0 2 -2 0 0 0 0];

internalField   nonuniform List<scalar> 
2475
(
0.00420162
0.00165186
2.53054e-05
-0.000393137
-0.000370302
-0.000313154
-0.00029025
-0.000285437
-0.000286809
-0.000290895
-0.000296698
-0.00030344
-0.000309753
-0.000314397
-0.000315721
-0.000309743
-0.000291222
-0.000258262
-0.000215158
-0.000169629
-0.000128009
-9.30158e-05
-6.49622e-05
-4.31918e-05
-2.67212e-05
-1.45986e-05
-5.92977e-06
2.93966e-09
3.82795e-06
5.96585e-06
6.78127e-06
6.5137e-06
5.36104e-06
3.58474e-06
1.2076e-06
0.00364724
0.0016498
0.000121518
-0.000333155
-0.000335108
-0.000291804
-0.000277081
-0.000276413
-0.00028
-0.000285569
-0.000292487
-0.000300106
-0.000307129
-0.000312368
-0.000314226
-0.000308747
-0.000290665
-0.000258031
-0.000215114
-0.000169686
-0.000128088
-9.30879e-05
-6.50186e-05
-4.32319e-05
-2.67475e-05
-1.46149e-05
-5.93928e-06
-2.16384e-09
3.82548e-06
5.96517e-06
6.78145e-06
6.51481e-06
5.3622e-06
3.58664e-06
1.20944e-06
0.00314556
0.00166647
0.00026716
-0.000251305
-0.000293448
-0.000264311
-0.000258622
-0.000264243
-0.000271422
-0.000279102
-0.000287467
-0.000296179
-0.000304059
-0.000309998
-0.000312478
-0.000307576
-0.000289983
-0.000257697
-0.000214974
-0.000169643
-0.00012809
-9.31053e-05
-6.50355e-05
-4.32435e-05
-2.67532e-05
-1.46162e-05
-5.93804e-06
4.26167e-10
3.82852e-06
5.96846e-06
6.78443e-06
6.51789e-06
5.36461e-06
3.58922e-06
1.21143e-06
0.00275985
0.00168196
0.000438574
-0.000142127
-0.000239162
-0.000227898
-0.000232232
-0.000246451
-0.000259204
-0.000270073
-0.000280489
-0.000290703
-0.000299731
-0.000306576
-0.000309832
-0.000305642
-0.000288679
-0.000256889
-0.000214506
-0.000169406
-0.000127965
-9.30502e-05
-6.50103e-05
-4.32288e-05
-2.6741e-05
-1.46046e-05
-5.9271e-06
1.03534e-08
3.83711e-06
5.97596e-06
6.79048e-06
6.52319e-06
5.36845e-06
3.59243e-06
1.21361e-06
0.0024479
0.00166381
0.000597564
-1.76443e-05
-0.000174105
-0.000183755
-0.000197114
-0.000220885
-0.000241252
-0.000256766
-0.000270052
-0.000282297
-0.000292866
-0.000300907
-0.000305153
-0.000301887
-0.000285843
-0.000254923
-0.000213273
-0.000168707
-0.00012761
-9.28806e-05
-6.49326e-05
-4.3191e-05
-2.67175e-05
-1.45858e-05
-5.91034e-06
2.54959e-08
3.85024e-06
5.98741e-06
6.79963e-06
6.53096e-06
5.37394e-06
3.59633e-06
1.21614e-06
0.00218575
0.00160665
0.000724173
0.000109323
-0.000103091
-0.000137203
-0.00015748
-0.000188975
-0.000217501
-0.000238733
-0.000255582
-0.000270275
-0.000282698
-0.000292164
-0.000297557
-0.000295393
-0.0002806
-0.000251065
-0.000210736
-0.000167215
-0.000126819
-9.24978e-05
-6.47535e-05
-4.31096e-05
-2.66762e-05
-1.45588e-05
-5.88828e-06
4.55179e-08
3.86797e-06
6.00332e-06
6.81247e-06
6.54184e-06
5.38161e-06
3.60111e-06
1.21925e-06
0.00196559
0.0015243
0.000814267
0.000231506
-2.70777e-05
-9.02929e-05
-0.000117372
-0.000153779
-0.0001895
-0.000216825
-0.000237622
-0.000254919
-0.000269277
-0.000280233
-0.000286803
-0.000285812
-0.000272524
-0.000244871
-0.000206498
-0.000164621
-0.000125373
-9.17474e-05
-6.43993e-05
-4.29369e-05
-2.65929e-05
-1.45123e-05
-5.85546e-06
7.33283e-08
3.89232e-06
6.0254e-06
6.83043e-06
6.557e-06
5.3924e-06
3.60726e-06
1.22325e-06
0.00178097
0.00143225
0.000870157
0.000342748
5.34649e-05
-4.21343e-05
-7.84712e-05
-0.000117705
-0.000158831
-0.000192082
-0.000217094
-0.000237067
-0.000253303
-0.000265677
-0.00027336
-0.000273521
-0.000261859
-0.000236426
-0.000200514
-0.000160807
-0.00012314
-9.05174e-05
-6.37537e-05
-4.26125e-05
-2.64317e-05
-1.4425e-05
-5.80046e-06
1.16199e-07
3.92779e-06
6.05674e-06
6.85576e-06
6.57809e-06
5.40754e-06
3.61558e-06
1.22853e-06
0.00162462
0.0013405
0.000896835
0.000437224
0.00013585
8.6361e-06
-4.07879e-05
-8.22754e-05
-0.000126746
-0.000165201
-0.0001946
-0.000217421
-0.000235526
-0.000249249
-0.000257991
-0.00025928
-0.000249284
-0.000226236
-0.000193079
-0.000155895
-0.000120134
-8.87727e-05
-6.27833e-05
-4.20924e-05
-2.61558e-05
-1.42724e-05
-5.70661e-06
1.83752e-07
3.98062e-06
6.10147e-06
6.89135e-06
6.60703e-06
5.42841e-06
3.62693e-06
1.23541e-06
0.00149012
0.00125395
0.000901051
0.000511269
0.000215601
6.2507e-05
-3.31602e-06
-4.81909e-05
-9.43129e-05
-0.000136717
-0.000170405
-0.000196309
-0.000216403
-0.000231488
-0.000241291
-0.000243734
-0.000235441
-0.000214844
-0.000184575
-0.000150107
-0.00011646
-8.65485e-05
-6.14854e-05
-4.13584e-05
-2.57457e-05
-1.40365e-05
-5.5605e-06
2.85922e-07
4.05769e-06
6.16411e-06
6.94024e-06
6.64575e-06
5.45625e-06
3.64215e-06
1.24405e-06
0.00137267
0.00117431
0.000889869
0.000564427
0.000288093
0.000118583
3.5231e-05
-1.53258e-05
-6.23655e-05
-0.000107221
-0.000144676
-0.00017381
-0.000196101
-0.000212657
-0.000223582
-0.000227238
-0.0002207
-0.000202591
-0.000175266
-0.000143616
-0.000112216
-8.38895e-05
-5.98733e-05
-4.04072e-05
-2.51902e-05
-1.37042e-05
-5.35035e-06
4.31852e-07
4.16552e-06
6.24902e-06
7.00544e-06
6.69612e-06
5.49225e-06
3.6619e-06
1.25448e-06
0.00126887
0.00110154
0.000869185
0.000598902
0.000349872
0.0001746
7.55821e-05
1.70432e-05
-3.13603e-05
-7.73912e-05
-0.000117696
-0.000149955
-0.000174638
-0.000192844
-0.000204998
-0.000209936
-0.000205205
-0.000189616
-0.000165267
-0.000136498
-0.000107443
-8.08129e-05
-5.79487e-05
-3.92314e-05
-2.44773e-05
-1.32633e-05
-5.06521e-06
6.30091e-07
4.31045e-06
6.36065e-06
7.09004e-06
6.76012e-06
5.53762e-06
3.6869e-06
1.26671e-06
0.00117617
0.00103488
0.000843141
0.000618271
0.000399191
0.000227603
0.000117436
4.97592e-05
-1.28812e-06
-4.78442e-05
-8.99175e-05
-0.000124873
-0.000152005
-0.000172047
-0.000185595
-0.000191899
-0.000189007
-0.000175956
-0.000154607
-0.000128769
-0.00010214
-7.73072e-05
-5.56948e-05
-3.78126e-05
-2.359e-05
-1.26987e-05
-4.69283e-06
8.9006e-07
4.49954e-06
6.50401e-06
7.19758e-06
6.84012e-06
5.59388e-06
3.71799e-06
1.28084e-06
0.00109266
0.000973372
0.000814276
0.000626302
0.000436089
0.00027491
0.000159469
8.32863e-05
2.82263e-05
-1.89659e-05
-6.18719e-05
-9.8843e-05
-0.000128266
-0.000150252
-0.000165386
-0.000173183
-0.000172147
-0.000161621
-0.000143282
-0.000120416
-9.62866e-05
-7.33447e-05
-5.30828e-05
-3.61244e-05
-2.25054e-05
-1.19919e-05
-4.21858e-06
1.22285e-06
4.741e-06
6.68505e-06
7.33234e-06
6.93904e-06
5.66291e-06
3.75626e-06
1.29711e-06
0.00101702
0.000916116
0.000783934
0.000626227
0.000461916
0.000314743
0.00019977
0.000117432
5.7647e-05
9.16675e-06
-3.40363e-05
-7.22541e-05
-0.000103609
-0.000127494
-0.000144362
-0.00015383
-0.000154684
-0.000146629
-0.000131281
-0.000111421
-8.98566e-05
-6.8893e-05
-5.00786e-05
-3.41355e-05
-2.11967e-05
-1.11211e-05
-3.62544e-06
1.64138e-06
5.04447e-06
6.91077e-06
7.49938e-06
7.06037e-06
5.74699e-06
3.80304e-06
1.31588e-06
0.000948466
0.00086248
0.000752693
0.000620397
0.000478656
0.000346486
0.000236465
0.000151353
8.72112e-05
3.67122e-05
-6.73279e-06
-4.55252e-05
-7.83289e-05
-0.000103908
-0.000122529
-0.000133853
-0.000136686
-0.000131025
-0.000118602
-0.000101766
-8.28272e-05
-6.39211e-05
-4.66469e-05
-3.18121e-05
-1.96347e-05
-1.00622e-05
-2.89428e-06
2.16034e-06
5.421e-06
7.18931e-06
7.70458e-06
7.20824e-06
5.84877e-06
3.85991e-06
1.3376e-06
0.000886602
0.000812227
0.000720827
0.000610268
0.000488294
0.000370561
0.000268182
0.000183792
0.000116735
6.38785e-05
1.99028e-05
-1.90237e-05
-5.27636e-05
-7.97395e-05
-9.99606e-05
-0.000113244
-0.000118208
-0.000114885
-0.000105263
-9.14361e-05
-7.51785e-05
-5.84024e-05
-4.27541e-05
-2.912e-05
-1.77887e-05
-8.78916e-06
-2.00407e-06
2.79615e-06
5.88307e-06
7.52995e-06
7.9547e-06
7.3874e-06
5.97137e-06
3.92869e-06
1.36282e-06
0.000831076
0.000765464
0.000688678
0.000596671
0.000492374
0.000388006
0.000294295
0.000213463
0.000145609
9.07249e-05
4.58718e-05
6.97297e-06
-2.72346e-05
-5.52941e-05
-7.6848e-05
-9.20183e-05
-9.92731e-05
-9.82974e-05
-9.13176e-05
-8.04267e-05
-6.68933e-05
-5.2316e-05
-3.83703e-05
-2.60253e-05
-1.5627e-05
-7.2747e-06
-9.32084e-07
3.5669e-06
6.44465e-06
7.94318e-06
8.25744e-06
7.60333e-06
6.11832e-06
4.01149e-06
1.39221e-06
0.00078129
0.000722409
0.000656819
0.000580227
0.000491877
0.000399974
0.000314919
0.000239378
0.000172948
0.00011704
7.12067e-05
3.22833e-05
-2.02596e-06
-3.08723e-05
-5.34785e-05
-7.02736e-05
-7.9876e-05
-8.13362e-05
-7.68494e-05
-6.87551e-05
-5.79588e-05
-4.56463e-05
-3.34713e-05
-2.24967e-05
-1.31179e-05
-5.49052e-06
3.45708e-07
4.49217e-06
7.12111e-06
8.4407e-06
8.62142e-06
7.86221e-06
6.29369e-06
4.11069e-06
1.42656e-06
0.000736267
0.000683088
0.000625946
0.000561666
0.000487428
0.000407369
0.000330632
0.000261063
0.000197851
0.000142341
9.58511e-05
5.67927e-05
2.26127e-05
-6.72707e-06
-3.01667e-05
-4.82232e-05
-6.00361e-05
-6.40409e-05
-6.19632e-05
-5.64727e-05
-4.83723e-05
-3.83827e-05
-2.80404e-05
-1.8507e-05
-1.02311e-05
-3.40823e-06
1.85419e-06
5.59279e-06
7.92911e-06
9.0354e-06
9.05625e-06
8.17099e-06
6.50203e-06
4.22896e-06
1.46676e-06
0.000694817
0.000647163
0.000596623
0.000541863
0.000479608
0.000410755
0.000342109
0.000278546
0.000219643
0.000165984
0.000119574
8.04017e-05
4.64632e-05
1.69272e-05
-7.18329e-06
-2.61674e-05
-3.98558e-05
-4.64271e-05
-4.6756e-05
-4.36674e-05
-3.81518e-05
-3.05199e-05
-2.20684e-05
-1.4036e-05
-6.93923e-06
-1.00026e-06
3.61838e-06
6.89037e-06
8.88639e-06
9.74126e-06
9.57249e-06
8.53739e-06
6.74849e-06
4.3693e-06
1.51384e-06
0.000655911
0.000613995
0.000569098
0.000521676
0.000469146
0.000410529
0.000349873
0.000292166
0.000238003
0.000187338
0.000141974
0.00010297
6.93383e-05
3.9881e-05
1.52638e-05
-4.42298e-06
-1.9546e-05
-2.85282e-05
-3.12972e-05
-3.04516e-05
-2.73471e-05
-2.20629e-05
-1.55532e-05
-9.07195e-06
-3.21978e-06
1.75889e-06
5.66262e-06
8.40668e-06
1.00113e-05
1.05731e-05
1.01815e-05
8.96978e-06
7.0387e-06
4.53499e-06
1.56894e-06
0.000618981
0.000582891
0.000543272
0.000501735
0.000456881
0.000407151
0.000354267
0.000302337
0.000252941
0.000205944
0.000162568
0.000124272
9.10649e-05
6.19106e-05
3.7002e-05
1.67492e-05
6.05177e-07
-1.04458e-05
-1.56359e-05
-1.69405e-05
-1.6044e-05
-1.3036e-05
-8.50137e-06
-3.61274e-06
9.42154e-07
4.89097e-06
8.00944e-06
1.01629e-05
1.13225e-05
1.15463e-05
1.08953e-05
9.47715e-06
7.37882e-06
4.72959e-06
1.63328e-06
0.000583939
0.000553337
0.000518826
0.000482342
0.000443578
0.000401232
0.000355593
0.000309391
0.000264655
0.000221593
0.000180923
0.000143988
0.000111452
8.27879e-05
5.78549e-05
3.71601e-05
2.02997e-05
7.63012e-06
1.6919e-07
-3.23367e-06
-4.35493e-06
-3.49091e-06
-9.30809e-07
2.33308e-06
5.55136e-06
8.41146e-06
1.0678e-05
1.21783e-05
1.28377e-05
1.26762e-05
1.17262e-05
1.00689e-05
7.77535e-06
4.95688e-06
1.70818e-06
0.00055095
0.000525103
0.000495426
0.000463529
0.000429782
0.000393446
0.000354232
0.000313596
0.000273409
0.000234298
0.000196742
0.000161766
0.000130275
0.000102295
7.76166e-05
5.66533e-05
3.92794e-05
2.54407e-05
1.60093e-05
1.05837e-05
7.5986e-06
6.49198e-06
7.12548e-06
8.74759e-06
1.06019e-05
1.23274e-05
1.36822e-05
1.4469e-05
1.45731e-05
1.39773e-05
1.26863e-05
1.07544e-05
8.23501e-06
5.2208e-06
1.795e-06
0.000520172
0.000498181
0.000472849
0.000445184
0.000415771
0.000384371
0.000350649
0.00031522
0.000279457
0.000244202
0.000209913
0.000177327
0.000147303
0.000120241
9.60723e-05
7.50712e-05
5.73431e-05
4.27051e-05
3.17005e-05
2.44081e-05
1.96884e-05
1.68007e-05
1.56102e-05
1.56019e-05
1.60787e-05
1.66381e-05
1.70306e-05
1.70474e-05
1.6542e-05
1.54626e-05
1.3787e-05
1.15428e-05
8.76433e-06
5.52517e-06
1.89502e-06
0.000491574
0.000472617
0.000450998
0.00042717
0.000401617
0.000374386
0.000345293
0.000314552
0.000283009
0.000251477
0.000220459
0.000190511
0.000162333
0.000136466
0.000113048
9.22726e-05
7.43616e-05
5.9198e-05
4.70261e-05
3.81099e-05
3.17826e-05
2.72916e-05
2.44221e-05
2.2835e-05
2.19433e-05
2.13253e-05
2.07214e-05
1.99208e-05
1.87556e-05
1.71441e-05
1.50391e-05
1.24429e-05
9.36988e-06
5.87388e-06
2.0095e-06
0.000464949
0.000448406
0.000429866
0.000409411
0.000387304
0.000363676
0.000338495
0.00031185
0.000284217
0.000256239
0.000228416
0.000201211
0.000175159
0.000150784
0.00012837
0.000108105
9.02372e-05
7.47788e-05
6.181e-05
5.15819e-05
4.38035e-05
3.78596e-05
3.34625e-05
3.03738e-05
2.81371e-05
2.63443e-05
2.47265e-05
2.30748e-05
2.12092e-05
1.90235e-05
1.64477e-05
1.34606e-05
1.00568e-05
6.27027e-06
2.13996e-06
0.000440103
0.000425577
0.000409572
0.000391986
0.000372889
0.000352383
0.000330517
0.000307374
0.000283239
0.000258568
0.000233799
0.000209324
0.000185553
0.000162921
0.00014176
0.000122288
0.00010474
8.92328e-05
7.58114e-05
6.46459e-05
5.56595e-05
4.84379e-05
4.26812e-05
3.81982e-05
3.46546e-05
3.16912e-05
2.90433e-05
2.65079e-05
2.39015e-05
2.10999e-05
1.80125e-05
1.45961e-05
1.08257e-05
6.71397e-06
2.28394e-06
0.000417105
0.00040436
0.000390451
0.000375231
0.000358679
0.000340845
0.000321785
0.000301594
0.000280482
0.000258775
0.000236819
0.000214934
0.000193442
0.000172679
0.00015295
0.000134489
0.000117519
0.000102202
8.86155e-05
7.68793e-05
6.70022e-05
5.87414e-05
5.18474e-05
4.61523e-05
4.141e-05
3.73289e-05
3.36669e-05
3.02344e-05
2.6855e-05
2.33966e-05
1.97544e-05
1.58662e-05
1.16888e-05
7.21375e-06
2.44869e-06
0.000367981
0.000358885
0.000349085
0.00033848
0.000326992
0.000314593
0.000301295
0.000287144
0.000272223
0.000256664
0.00024062
0.000224248
0.000207707
0.000191173
0.000174841
0.000158915
0.000143602
0.000129094
0.000115532
0.000103025
9.1662e-05
8.1459e-05
7.23505e-05
6.42524e-05
5.70563e-05
5.06155e-05
4.47616e-05
3.93381e-05
3.419e-05
2.91843e-05
2.41984e-05
1.91407e-05
1.39325e-05
8.52558e-06
2.88703e-06
0.000318555
0.000312525
0.000305992
0.000298939
0.000291346
0.000283197
0.000274474
0.00026516
0.000255233
0.000244683
0.000233531
0.000221838
0.000209699
0.000197235
0.000184581
0.000171879
0.000159265
0.000146862
0.000134787
0.000123152
0.000112051
0.000101553
9.16814e-05
8.24363e-05
7.37925e-05
6.57016e-05
5.80891e-05
5.08715e-05
4.39538e-05
3.72429e-05
3.06405e-05
2.4057e-05
1.74026e-05
1.06016e-05
3.58034e-06
0.00027806
0.000273742
0.00026907
0.000264033
0.000258616
0.000252801
0.000246562
0.000239877
0.000232731
0.000225119
0.000217054
0.000208561
0.000199682
0.000190468
0.000180979
0.000171277
0.000161422
0.000151471
0.000141495
0.000131568
0.000121755
0.000112112
0.000102684
9.35059e-05
8.45948e-05
7.59552e-05
6.75737e-05
5.94241e-05
5.14649e-05
4.36453e-05
3.5902e-05
2.81655e-05
2.03562e-05
1.23928e-05
4.18837e-06
0.000243042
0.00023984
0.000236393
0.000232688
0.000228713
0.000224455
0.000219902
0.000215038
0.000209852
0.000204335
0.000198479
0.000192282
0.000185748
0.000178888
0.000171717
0.000164258
0.000156535
0.000148574
0.000140413
0.000132094
0.00012366
0.00011515
0.000106603
9.80536e-05
8.95308e-05
8.10539e-05
7.26322e-05
6.4265e-05
5.59389e-05
4.76294e-05
3.92992e-05
3.08986e-05
2.23655e-05
1.36266e-05
4.60142e-06
0.000212894
0.000210464
0.000207851
0.00020505
0.000202053
0.000198852
0.000195434
0.000191787
0.000187895
0.000183747
0.000179328
0.000174627
0.000169637
0.000164356
0.000158784
0.000152927
0.000146792
0.000140386
0.000133726
0.00012683
0.000119719
0.000112414
0.000104936
9.73072e-05
8.95474e-05
8.16724e-05
7.36936e-05
6.56158e-05
5.74367e-05
4.91441e-05
4.07173e-05
3.21217e-05
2.33126e-05
1.42306e-05
4.80876e-06
0.000186052
0.000184159
0.000182127
0.000179951
0.000177627
0.000175145
0.000172496
0.000169667
0.000166648
0.000163425
0.000159987
0.000156323
0.000152422
0.000148278
0.000143885
0.000139238
0.000134332
0.000129164
0.000123736
0.000118052
0.000112116
0.000105933
9.95126e-05
9.28618e-05
8.59897e-05
7.89034e-05
7.1609e-05
6.41086e-05
5.64013e-05
4.84785e-05
4.03273e-05
3.19225e-05
2.32326e-05
1.42113e-05
4.80629e-06
0.000161717
0.00016022
0.000158615
0.000156899
0.000155065
0.000153107
0.000151016
0.000148783
0.000146398
0.000143851
0.000141132
0.000138229
0.000135132
0.000131834
0.000128323
0.000124592
0.000120631
0.000116431
0.000111987
0.000107294
0.000102347
9.71429e-05
9.168e-05
8.59568e-05
7.99728e-05
7.37269e-05
6.72182e-05
6.04434e-05
5.33988e-05
4.60748e-05
3.8461e-05
3.05371e-05
2.22805e-05
1.36554e-05
4.62252e-06
0.000139652
0.000138456
0.000137175
0.000135805
0.000134341
0.000132778
0.000131107
0.000129322
0.000127413
0.000125373
0.000123191
0.000120859
0.000118368
0.000115706
0.000112866
0.000109838
0.000106611
0.000103173
9.95157e-05
9.56308e-05
9.15087e-05
8.71406e-05
8.25192e-05
7.7637e-05
7.24872e-05
6.70625e-05
6.13566e-05
5.53612e-05
4.90693e-05
4.24693e-05
3.55511e-05
2.8297e-05
2.06897e-05
1.27016e-05
4.30351e-06
0.000119776
0.000118812
0.000117781
0.000116678
0.000115498
0.000114237
0.000112889
0.000111447
0.000109904
0.000108253
0.000106485
0.000104593
0.000102568
0.000100401
9.80831e-05
9.56056e-05
9.29573e-05
9.0127e-05
8.71052e-05
8.38816e-05
8.0445e-05
7.67844e-05
7.28894e-05
6.87493e-05
6.43541e-05
5.96928e-05
5.47558e-05
4.95317e-05
4.40111e-05
3.81809e-05
3.20308e-05
2.55446e-05
1.87088e-05
1.15011e-05
3.89987e-06
0.000102127
0.000101345
0.000100508
9.96123e-05
9.86538e-05
9.76288e-05
9.65322e-05
9.53583e-05
9.41009e-05
9.27539e-05
9.13103e-05
8.97628e-05
8.81043e-05
8.63268e-05
8.44223e-05
8.23823e-05
8.01969e-05
7.78555e-05
7.53486e-05
7.26663e-05
6.97972e-05
6.67298e-05
6.34531e-05
5.99553e-05
5.62249e-05
5.22496e-05
4.80181e-05
4.35178e-05
3.87378e-05
3.36646e-05
2.8288e-05
2.2593e-05
1.65683e-05
1.01961e-05
3.4597e-06
8.68157e-05
8.61764e-05
8.54912e-05
8.47571e-05
8.39715e-05
8.31308e-05
8.22309e-05
8.12668e-05
8.02335e-05
7.91254e-05
7.79366e-05
7.6661e-05
7.52922e-05
7.38232e-05
7.22471e-05
7.05562e-05
6.87416e-05
6.67939e-05
6.47042e-05
6.24633e-05
6.00606e-05
5.74852e-05
5.47263e-05
5.17724e-05
4.86121e-05
4.52332e-05
4.16242e-05
3.77724e-05
3.36668e-05
2.92941e-05
2.46445e-05
1.97042e-05
1.44638e-05
8.90807e-06
3.02433e-06
7.39947e-05
7.34651e-05
7.28969e-05
7.22878e-05
7.16355e-05
7.09372e-05
7.01895e-05
6.9388e-05
6.85285e-05
6.76061e-05
6.66158e-05
6.55521e-05
6.44097e-05
6.31824e-05
6.18642e-05
6.04484e-05
5.89271e-05
5.72919e-05
5.5535e-05
5.36479e-05
5.16211e-05
4.94445e-05
4.71084e-05
4.46021e-05
4.19149e-05
3.90352e-05
3.59523e-05
3.26542e-05
2.91303e-05
2.53685e-05
2.13593e-05
1.70904e-05
1.25536e-05
7.73606e-06
2.62753e-06
6.38535e-05
6.34055e-05
6.29244e-05
6.24083e-05
6.18554e-05
6.12635e-05
6.06293e-05
5.99495e-05
5.92201e-05
5.8437e-05
5.75957e-05
5.66915e-05
5.57196e-05
5.46748e-05
5.35517e-05
5.23446e-05
5.10464e-05
4.96496e-05
4.81472e-05
4.65318e-05
4.47948e-05
4.29272e-05
4.092e-05
3.87635e-05
3.64481e-05
3.39632e-05
3.12988e-05
2.8444e-05
2.5389e-05
2.21227e-05
1.86364e-05
1.49192e-05
1.09638e-05
6.75905e-06
2.29642e-06
5.66451e-05
5.62527e-05
5.58311e-05
5.53786e-05
5.48936e-05
5.43743e-05
5.3818e-05
5.32214e-05
5.25812e-05
5.18937e-05
5.11548e-05
5.03602e-05
4.95058e-05
4.85868e-05
4.75985e-05
4.65358e-05
4.53922e-05
4.41609e-05
4.28358e-05
4.14099e-05
3.98755e-05
3.82245e-05
3.64487e-05
3.45392e-05
3.2487e-05
3.02827e-05
2.79169e-05
2.53795e-05
2.26616e-05
1.97529e-05
1.66456e-05
1.33296e-05
9.79827e-06
6.04194e-06
2.05313e-06
5.27547e-05
5.23916e-05
5.20012e-05
5.1582e-05
5.11328e-05
5.06517e-05
5.01364e-05
4.9584e-05
4.89911e-05
4.83542e-05
4.76696e-05
4.69333e-05
4.61412e-05
4.52891e-05
4.43726e-05
4.33867e-05
4.23256e-05
4.11827e-05
3.99522e-05
3.86278e-05
3.7202e-05
3.56673e-05
3.40158e-05
3.22393e-05
3.03292e-05
2.82764e-05
2.60723e-05
2.37071e-05
2.11725e-05
1.84587e-05
1.5558e-05
1.24612e-05
9.16178e-06
5.65062e-06
1.92065e-06
-7.1886e-05
0.000685314
0.000424054
0.000645192
0.000637067
0.000722412
0.00071772
0.000898785
0.000893965
0.00105229
0.00106236
0.00123613
0.00128798
0.0014907
0.00158613
0.00186958
0.0020476
0.00248923
0.00287534
0.00369083
-7.02533e-05
0.00068331
0.000425168
0.000644444
0.000637255
0.000721512
0.000718495
0.000897438
0.000894427
0.00104824
0.00106279
0.00123296
0.00128835
0.00148488
0.00158618
0.00185513
0.00204581
0.00244522
0.00282392
0.0033716
-6.77752e-05
0.000678741
0.000427664
0.000642447
0.000638051
0.000719856
0.000720022
0.000894575
0.000895903
0.00104165
0.00106466
0.00122558
0.00129084
0.00147089
0.00158856
0.00182469
0.00203962
0.00236314
0.00271186
0.00301038
-6.48445e-05
0.000674909
0.000430854
0.000639709
0.000639375
0.000718277
0.000721618
0.000891213
0.000897945
0.0010339
0.00106675
0.00121604
0.00129342
0.00145305
0.0015881
0.00178954
0.00201686
0.00226817
0.00255763
0.00270866
-6.07626e-05
0.000673083
0.000434597
0.0006362
0.000641276
0.00071679
0.000723166
0.000887294
0.000900412
0.00102477
0.00106876
0.00120457
0.0012947
0.001433
0.00158132
0.00175236
0.00197377
0.00216737
0.00238657
0.00246431
-5.47351e-05
0.000673204
0.000438791
0.000631734
0.000643828
0.000715082
0.000724651
0.000882479
0.000903172
0.00101414
0.00107028
0.00119155
0.00129322
0.00141242
0.00156572
0.00171342
0.00191197
0.00206277
0.00221483
0.00225293
-4.62451e-05
0.000674821
0.000443268
0.000626212
0.000647035
0.000712827
0.000726046
0.000876591
0.000905966
0.00100223
0.0010705
0.00117819
0.00128738
0.00139222
0.00154016
0.00167126
0.00183674
0.00195465
0.00205033
0.0020615
-3.51311e-05
0.000677309
0.000447929
0.000619615
0.000650868
0.000709793
0.000727369
0.000869682
0.000908388
0.000989762
0.00106833
0.00116545
0.00127614
0.00137174
0.00150565
0.00162358
0.00175405
0.00184369
0.00189663
0.00188715
-2.15684e-05
0.000679932
0.00045289
0.000611952
0.000655257
0.000705878
0.000728599
0.000862013
0.000909846
0.000977885
0.00106288
0.00115341
0.00125955
0.00134898
0.00146453
0.00156901
0.00166804
0.0017319
0.00175479
0.00173
-5.94156e-06
0.000681959
0.000458492
0.000603213
0.000660081
0.000701136
0.000729579
0.000853993
0.000909622
0.000966846
0.00105378
0.00114109
0.00123858
0.0013221
0.00141883
0.00150778
0.00158086
0.00162189
0.00162448
0.00158967
1.13445e-05
0.000682761
0.000465182
0.000593379
0.000665148
0.000695787
0.00072996
0.000846094
0.000906919
0.000956563
0.00104134
0.00112706
0.00121426
0.00129011
0.00136952
0.00144167
0.00149379
0.00151586
0.00150486
0.00146457
3.0007e-05
0.0006818
0.000473348
0.000582465
0.000670147
0.00069023
0.000728804
0.000838656
0.000901824
0.000946209
0.00102628
0.00111032
0.00118708
0.00125287
0.00131687
0.00137286
0.00140808
0.00141533
0.00139512
0.00135255
4.99207e-05
0.000678582
0.000483198
0.000570599
0.000674592
0.000685029
0.000725722
0.000831749
0.00089446
0.000934605
0.00100903
0.00109046
0.00115726
0.00121106
0.00126105
0.00130293
0.00132491
0.00132122
0.00129469
0.00125168
7.10721e-05
0.00067264
0.000494713
0.000558078
0.000677817
0.000680825
0.00072031
0.000824992
0.000885683
0.000920942
0.000989269
0.00106736
0.00112503
0.00116586
0.00120251
0.0012327
0.00124509
0.00123399
0.0012033
0.00116063
9.34901e-05
0.000663579
0.000507643
0.000545429
0.000679004
0.000678206
0.000712351
0.000817352
0.000876597
0.000905288
0.00096642
0.00104081
0.00109073
0.00111868
0.00114223
0.00116265
0.00116877
0.00115358
0.00112069
0.00107863
0.000117187
0.000651153
0.000521505
0.000533442
0.000677257
0.000677425
0.000702328
0.000807415
0.000867357
0.000888286
0.000940173
0.00101031
0.00105454
0.00107103
0.00108173
0.00109333
0.00109564
0.00107933
0.00104628
0.00100513
0.000142118
0.000635362
0.000535539
0.000523093
0.000671851
0.000678214
0.000691436
0.000793893
0.000857104
0.000870974
0.000911043
0.000975377
0.00101615
0.00102403
0.00102285
0.00102576
0.00102534
0.00101012
0.000978967
0.000939408
0.000168152
0.000616524
0.000548743
0.000515332
0.000662416
0.000679678
0.000681107
0.000776399
0.000844419
0.000853928
0.000880253
0.000936201
0.000974893
0.000977956
0.000967142
0.0009614
0.000958
0.00094483
0.000917254
0.000880422
0.000195048
0.000595301
0.000559874
0.000510817
0.00064916
0.000680387
0.000672502
0.000755406
0.000827644
0.000836713
0.000849419
0.000893956
0.000930336
0.000932211
0.00091527
0.000901654
0.00089435
0.000882845
0.000859666
0.00082678
0.00022244
0.000572652
0.00056786
0.000509812
0.000632934
0.000678629
0.000665916
0.000732307
0.000805823
0.000818089
0.000819752
0.000850581
0.000882899
0.000885984
0.000866858
0.000847278
0.000835393
0.000824235
0.00080518
0.000777052
0.000249848
0.000549727
0.000571791
0.000512002
0.000615087
0.000672874
0.000660648
0.000709081
0.000779217
0.00079657
0.000791442
0.000808224
0.000833993
0.000838781
0.000820843
0.000798076
0.000781844
0.000769583
0.000753489
0.000730159
0.000276697
0.000527729
0.000571176
0.000516346
0.000597236
0.000662445
0.000655338
0.00068717
0.000748972
0.000771047
0.000763629
0.000768357
0.000785598
0.000790884
0.000776068
0.000753032
0.000733729
0.000719528
0.000704918
0.000685661
0.000302359
0.000507701
0.000566031
0.000521314
0.000580817
0.000647605
0.000648268
0.000666968
0.000716876
0.000741406
0.000735071
0.000731265
0.000739517
0.000743365
0.000731903
0.000710824
0.000690344
0.000674325
0.000660038
0.000643702
0.000326198
0.000490428
0.000556894
0.000525268
0.000566442
0.000629255
0.000638007
0.000648015
0.000684756
0.000708556
0.000704881
0.000696417
0.000696787
0.00069759
0.000688487
0.000670419
0.000650588
0.000633644
0.000619193
0.000604667
0.000347662
0.000476497
0.000544622
0.000526773
0.000553955
0.000608771
0.000623947
0.000629379
0.00065386
0.000674032
0.000672867
0.000662904
0.000657535
0.000654637
0.000646484
0.000631374
0.000613407
0.000596691
0.000582231
0.000568783
0.000366297
0.000465278
0.000530195
0.000524991
0.000542777
0.00058754
0.000606254
0.000610053
0.000624603
0.000639408
0.00063954
0.000629955
0.000621234
0.000614986
0.000606662
0.000593802
0.000578129
0.000562568
0.000548591
0.000535946
0.000381717
0.000456287
0.000514783
0.000519649
0.000531964
0.000566436
0.000585668
0.000589341
0.000596757
0.000605824
0.000605842
0.00059728
0.00058717
0.000578551
0.000569541
0.00055809
0.000544536
0.000530592
0.00051758
0.000505771
0.000393674
0.00044904
0.00049934
0.000510926
0.000520525
0.00054582
0.000563213
0.000567067
0.000569885
0.000573884
0.000572747
0.000565067
0.00055481
0.000544952
0.000535292
0.000524618
0.000512723
0.000500426
0.000488643
0.000477788
0.000402122
0.000442795
0.000484301
0.000499292
0.000507802
0.000525704
0.0005398
0.00054343
0.000543604
0.000543765
0.000540995
0.000533733
0.000523914
0.000513772
0.000503845
0.000493652
0.000482948
0.000472065
0.00046153
0.00045168
0.000407116
0.000437091
0.00046994
0.000485292
0.00049335
0.000505921
0.000516154
0.00051879
0.000517529
0.000515264
0.000510974
0.000503697
0.000494418
0.000484618
0.000474921
0.00046524
0.000455449
0.0004457
0.000436296
0.000427453
0.000409282
0.000421916
0.000438052
0.000449295
0.000454961
0.000458901
0.000461144
0.000460046
0.000456006
0.000450393
0.000443825
0.000436346
0.000428152
0.000419688
0.000411356
0.000403355
0.000395732
0.000388506
0.00038171
0.000375383
0.000384595
0.00038868
0.000393586
0.000396818
0.000397306
0.000395832
0.000393116
0.000389132
0.000383998
0.000378189
0.00037209
0.000365868
0.000359622
0.00035348
0.000347573
0.00034199
0.000336767
0.000331917
0.000327446
0.000323358
0.000350491
0.00035062
0.000350255
0.000348941
0.000346439
0.000343036
0.000338972
0.000334368
0.000329352
0.000324118
0.000318849
0.000313672
0.000308665
0.000303885
0.000299379
0.000295178
0.000291294
0.000287729
0.000284475
0.000281518
0.000312109
0.000310835
0.000308576
0.000305539
0.000301943
0.000297923
0.000293594
0.000289053
0.000284401
0.000279754
0.000275221
0.000270877
0.000266772
0.00026293
0.000259366
0.000256086
0.000253084
0.000250351
0.000247873
0.000245635
0.000273698
0.000272088
0.000269408
0.000266061
0.000262311
0.000258323
0.00025421
0.00025006
0.00024595
0.000241963
0.000238165
0.000234598
0.000231282
0.000228223
0.00022542
0.000222866
0.000220548
0.000218451
0.000216561
0.000214861
0.000237219
0.000235713
0.000233254
0.000230185
0.000226763
0.000223175
0.000219546
0.000215965
0.000212494
0.000209187
0.000206082
0.000203197
0.000200539
0.000198103
0.000195883
0.000193868
0.000192045
0.0001904
0.00018892
0.00018759
0.000203811
0.000202534
0.000200438
0.000197824
0.000194917
0.000191879
0.000188828
0.000185845
0.000182982
0.000180279
0.000177758
0.000175426
0.000173285
0.000171328
0.000169548
0.000167937
0.000166482
0.000165171
0.000163993
0.000162937
0.000173846
0.000172794
0.000171068
0.000168919
0.000166534
0.000164043
0.000161542
0.000159103
0.000156771
0.000154577
0.000152537
0.000150655
0.000148929
0.000147355
0.000145925
0.000144631
0.000143465
0.000142415
0.000141472
0.000140627
0.000147398
0.000146546
0.000145148
0.000143409
0.000141481
0.000139467
0.000137443
0.000135467
0.00013358
0.000131807
0.000130161
0.000128643
0.000127251
0.000125982
0.000124829
0.000123787
0.000122848
0.000122002
0.000121242
0.000120561
0.000124449
0.000123762
0.000122634
0.000121233
0.00011968
0.000118057
0.000116423
0.000114826
0.0001133
0.000111867
0.000110535
0.000109308
0.000108182
0.000107155
0.000106222
0.000105378
0.000104617
0.000103931
0.000103316
0.000102763
0.000104958
0.000104402
0.000103489
0.000102355
0.000101099
9.97845e-05
9.84596e-05
9.7163e-05
9.59227e-05
9.47567e-05
9.36735e-05
9.26743e-05
9.17574e-05
9.09201e-05
9.01592e-05
8.94709e-05
8.88495e-05
8.829e-05
8.77873e-05
8.73361e-05
8.89185e-05
8.84634e-05
8.7715e-05
8.67861e-05
8.57576e-05
8.46807e-05
8.35935e-05
8.25281e-05
8.15079e-05
8.05482e-05
7.96562e-05
7.8833e-05
7.80771e-05
7.73864e-05
7.67583e-05
7.61899e-05
7.56765e-05
7.52141e-05
7.47985e-05
7.44254e-05
7.63962e-05
7.60152e-05
7.53884e-05
7.46105e-05
7.37495e-05