/*--------------------------------*- C++ -*----------------------------------*\
| =========                 |                                                 |
| \\      /  F ield         | OpenFOAM: The Open Source CFD Toolbox           |
|  \\    /   O peration     | Version:  1.4.1-dev                             |
|   \\  /    A nd           | Web:      http://www.openfoam.org               |
|    \\/     M anipulation  |                                                 |
\*---------------------------------------------------------------------------*/

FoamFile
{
    version 2.0;
    format ascii;

    root "/home/mjaworsk/OpenFOAM/mjaworsk-1.4.1-dev/run/FlatPlate-Blasius";
    case "icoHeatFoam-flatPlate2";
    instance "0.1";
    local "";

    class volVectorField;
    object U;
}

// * * * * * * * * * * * * * * * * * * * * * * * * * * * * * * * * * * * * * //

dimensions      [0 1 -1 0 0 0 0];

internalField   nonuniform List<vector> 
2475
(
(0.131319 0.00800557 0)
(0.0791354 0.00524456 0)
(0.0533893 0.0018512 0)
(0.039683 0.000626051 0)
(0.0321639 0.000264684 0)
(0.0279739 0.000140396 0)
(0.0252529 0.000101288 0)
(0.0231865 8.27886e-05 0)
(0.0215093 6.71282e-05 0)
(0.0201204 5.3784e-05 0)
(0.0189578 4.32651e-05 0)
(0.0179775 3.49507e-05 0)
(0.0171507 2.80553e-05 0)
(0.0164582 2.23304e-05 0)
(0.015888 1.74738e-05 0)
(0.0154407 1.27451e-05 0)
(0.0151277 7.74625e-06 0)
(0.0149533 3.06051e-06 0)
(0.0148969 -6.26736e-08 0)
(0.0149165 -1.71383e-06 0)
(0.0149698 -2.06556e-06 0)
(0.0150291 -1.82933e-06 0)
(0.0150816 -1.42855e-06 0)
(0.0151234 -1.0385e-06 0)
(0.0151545 -7.22468e-07 0)
(0.0151766 -4.85157e-07 0)
(0.0151918 -3.19744e-07 0)
(0.0152018 -2.04806e-07 0)
(0.0152083 -1.3184e-07 0)
(0.0152125 -8.0279e-08 0)
(0.0152146 -4.95083e-08 0)
(0.0152162 -2.36694e-08 0)
(0.0152157 -9.42501e-09 0)
(0.0152163 5.62785e-09 0)
(0.0152135 1.84442e-08 0)
(0.181766 0.0167277 0)
(0.160777 0.0148968 0)
(0.138901 0.0081689 0)
(0.117177 0.0040919 0)
(0.0992987 0.00222996 0)
(0.0867373 0.00131888 0)
(0.0780015 0.000867519 0)
(0.0714449 0.000636099 0)
(0.0662031 0.000493281 0)
(0.0618832 0.000389557 0)
(0.0582703 0.000310321 0)
(0.0552276 0.00024812 0)
(0.0526654 0.00019727 0)
(0.0505246 0.000154692 0)
(0.0487758 0.000117658 0)
(0.0474228 8.29492e-05 0)
(0.046484 4.9856e-05 0)
(0.0459455 2.16869e-05 0)
(0.0457316 2.86529e-06 0)
(0.0457253 -6.85767e-06 0)
(0.0458176 -9.44554e-06 0)
(0.0459375 -8.69895e-06 0)
(0.0460496 -6.89802e-06 0)
(0.0461408 -5.0232e-06 0)
(0.0462089 -3.46077e-06 0)
(0.0462566 -2.28044e-06 0)
(0.0462883 -1.45891e-06 0)
(0.0463084 -8.95698e-07 0)
(0.0463204 -5.43113e-07 0)
(0.0463272 -2.96883e-07 0)
(0.0463294 -1.58899e-07 0)
(0.0463308 -3.54325e-08 0)
(0.0463271 1.46344e-08 0)
(0.0463272 9.42821e-08 0)
(0.0463178 1.34066e-07 0)
(0.189125 0.0168463 0)
(0.188804 0.0185036 0)
(0.182742 0.0129525 0)
(0.170392 0.00850737 0)
(0.155382 0.00589682 0)
(0.141446 0.00411295 0)
(0.129755 0.00288171 0)
(0.120058 0.0021047 0)
(0.111916 0.00160989 0)
(0.105013 0.00126412 0)
(0.0991243 0.00100482 0)
(0.0940901 0.000802055 0)
(0.0897992 0.000637234 0)
(0.0861756 0.000498932 0)
(0.0831863 0.000377632 0)
(0.0808425 0.000265412 0)
(0.0791666 0.000162286 0)
(0.0781292 7.74402e-05 0)
(0.077614 2.03049e-05 0)
(0.07745 -9.70895e-06 0)
(0.077476 -2.00956e-05 0)
(0.0775802 -2.02666e-05 0)
(0.0777003 -1.66877e-05 0)
(0.077807 -1.23397e-05 0)
(0.0778897 -8.49969e-06 0)
(0.077948 -5.52582e-06 0)
(0.0779858 -3.43744e-06 0)
(0.0780083 -2.01053e-06 0)
(0.0780196 -1.12994e-06 0)
(0.0780247 -5.1926e-07 0)
(0.078023 -2.02539e-07 0)
(0.0780217 1.02014e-07 0)
(0.0780121 1.82751e-07 0)
(0.0780107 3.89591e-07 0)
(0.0779931 4.43308e-07 0)
(0.18971 0.0141994 0)
(0.194624 0.017819 0)
(0.197444 0.0143498 0)
(0.194607 0.0107113 0)
(0.187404 0.00848062 0)
(0.178519 0.00675549 0)
(0.16946 0.00526454 0)
(0.160713 0.00410701 0)
(0.152466 0.00325821 0)
(0.144845 0.0026174 0)
(0.13792 0.00211367 0)
(0.131718 0.00170649 0)
(0.126237 0.00136887 0)
(0.121468 0.00108156 0)
(0.117421 0.000826648 0)
(0.11414 0.000590425 0)
(0.111671 0.000374684 0)
(0.109999 0.000197059 0)
(0.10901 7.44528e-05 0)
(0.108518 6.53939e-06 0)
(0.108337 -2.25665e-05 0)
(0.108322 -2.95185e-05 0)
(0.10838 -2.66955e-05 0)
(0.108459 -2.06303e-05 0)
(0.10853 -1.44575e-05 0)
(0.108582 -9.35639e-06 0)
(0.108616 -5.66586e-06 0)
(0.108634 -3.11164e-06 0)
(0.108639 -1.55679e-06 0)
(0.108638 -4.77297e-07 0)
(0.108629 2.82412e-08 0)
(0.108623 5.57051e-07 0)
(0.108604 6.17153e-07 0)
(0.108601 9.84965e-07 0)
(0.108573 1.00505e-06 0)
(0.190921 0.0120266 0)
(0.195023 0.0159606 0)
(0.200064 0.0140845 0)
(0.2018 0.0111528 0)
(0.200039 0.00938081 0)
(0.19635 0.00809915 0)
(0.191739 0.006847 0)
(0.186535 0.00571672 0)
(0.180906 0.00478726 0)
(0.175054 0.00401997 0)
(0.169184 0.00336617 0)
(0.163478 0.00279781 0)
(0.158084 0.00229854 0)
(0.153117 0.00185517 0)
(0.148682 0.00144928 0)
(0.144893 0.00106527 0)
(0.141847 0.000709069 0)
(0.139587 0.000409411 0)
(0.138057 0.000193778 0)
(0.137117 6.47316e-05 0)
(0.1366 3.72894e-07 0)
(0.136355 -2.49107e-05 0)
(0.13627 -2.99323e-05 0)
(0.136264 -2.59298e-05 0)
(0.136289 -1.91517e-05 0)
(0.136316 -1.25391e-05 0)
(0.136333 -7.39029e-06 0)
(0.136339 -3.67594e-06 0)
(0.136333 -1.43815e-06 0)
(0.136323 1.40322e-07 0)
(0.136302 7.72374e-07 0)
(0.13629 1.52722e-06 0)
(0.13626 1.46771e-06 0)
(0.136253 1.99593e-06 0)
(0.136214 1.89941e-06 0)
(0.192315 0.0106604 0)
(0.195131 0.0142196 0)
(0.199702 0.0134449 0)
(0.202688 0.011023 0)
(0.203235 0.00942504 0)
(0.202343 0.00844507 0)
(0.200777 0.007499 0)
(0.198679 0.00655523 0)
(0.196026 0.00572187 0)
(0.192858 0.00500092 0)
(0.189281 0.00435252 0)
(0.185427 0.00374942 0)
(0.18144 0.003182 0)
(0.177465 0.00264689 0)
(0.173652 0.00213203 0)
(0.170153 0.00162517 0)
(0.167109 0.00113874 0)
(0.164627 0.000714082 0)
(0.162744 0.000392463 0)
(0.161415 0.000183607 0)
(0.160543 6.56714e-05 0)
(0.160014 6.98758e-06 0)
(0.159724 -1.70075e-05 0)
(0.159584 -2.24407e-05 0)
(0.159527 -1.92694e-05 0)
(0.159505 -1.32412e-05 0)
(0.159491 -7.5766e-06 0)
(0.159477 -3.0532e-06 0)
(0.159454 -3.35852e-07 0)
(0.159432 1.67602e-06 0)
(0.159397 2.2881e-06 0)
(0.159376 3.22703e-06 0)
(0.159334 2.90305e-06 0)
(0.159323 3.55529e-06 0)
(0.159271 3.2222e-06 0)
(0.193366 0.00975225 0)
(0.195446 0.012702 0)
(0.199099 0.0126978 0)
(0.202118 0.0107925 0)
(0.203394 0.00924264 0)
(0.203532 0.00836311 0)
(0.203267 0.00761795 0)
(0.202778 0.00683724 0)
(0.201982 0.00610973 0)
(0.200811 0.00547228 0)
(0.199264 0.00489443 0)
(0.197373 0.00433967 0)
(0.19519 0.00379158 0)
(0.192794 0.00324724 0)
(0.190286 0.00269744 0)
(0.187776 0.0021321 0)
(0.185382 0.00156719 0)
(0.183223 0.00105259 0)
(0.181398 0.000641986 0)
(0.179955 0.000355601 0)
(0.178885 0.000176311 0)
(0.178142 7.31259e-05 0)
(0.177664 1.91809e-05 0)
(0.177379 -4.37884e-06 0)
(0.177219 -1.08671e-05 0)
(0.177132 -9.03773e-06 0)
(0.177076 -4.81108e-06 0)
(0.177034 -4.13443e-07 0)
(0.176989 2.27365e-06 0)
(0.176952 4.5025e-06 0)
(0.176901 4.84665e-06 0)
(0.176872 5.86645e-06 0)
(0.176815 5.08871e-06 0)
(0.1768 5.79211e-06 0)
(0.176736 5.06418e-06 0)
(0.194134 0.00907348 0)
(0.195789 0.0113753 0)
(0.198647 0.0118361 0)
(0.20139 0.0104867 0)
(0.202901 0.00902953 0)
(0.203394 0.00815511 0)
(0.203533 0.00751805 0)
(0.203604 0.00685575 0)
(0.203581 0.00620077 0)
(0.203382 0.00561557 0)
(0.202975 0.00509252 0)
(0.202352 0.00459297 0)
(0.201506 0.00409093 0)
(0.200448 0.00357786 0)
(0.199211 0.00304331 0)
(0.197836 0.0024767 0)
(0.196368 0.00189231 0)
(0.194882 0.00134036 0)
(0.193477 0.000880121 0)
(0.192242 0.000540238 0)
(0.191226 0.000310543 0)
(0.190443 0.000164255 0)
(0.189877 7.66082e-05 0)
(0.189497 2.94851e-05 0)
(0.189255 8.1395e-06 0)
(0.189104 1.92093e-06 0)
(0.189002 2.19178e-06 0)
(0.188929 5.10088e-06 0)
(0.18886 6.92765e-06 0)
(0.188807 8.96832e-06 0)
(0.18874 8.6842e-06 0)
(0.188702 9.61098e-06 0)
(0.188632 8.15113e-06 0)
(0.188612 8.80197e-06 0)
(0.188536 7.48861e-06 0)
(0.194759 0.00850316 0)
(0.196121 0.010254 0)
(0.198357 0.0109157 0)
(0.20074 0.0100822 0)
(0.202323 0.0088103 0)
(0.203008 0.00792747 0)
(0.203286 0.0073396 0)
(0.203503 0.00676937 0)
(0.20371 0.00617443 0)
(0.20385 0.00561746 0)
(0.203896 0.00511914 0)
(0.20384 0.00465113 0)
(0.203671 0.0041835 0)
(0.203375 0.00370233 0)
(0.202952 0.00319541 0)
(0.202394 0.002652 0)
(0.201691 0.00208292 0)
(0.200859 0.00153297 0)
(0.199964 0.00105975 0)
(0.199089 0.000695653 0)
(0.198299 0.000436057 0)
(0.19763 0.000258994 0)
(0.1971 0.000143392 0)
(0.196705 7.36212e-05 0)
(0.196425 3.59578e-05 0)
(0.196234 1.95581e-05 0)
(0.196095 1.38969e-05 0)
(0.195996 1.39777e-05 0)
(0.195903 1.39693e-05 0)
(0.195837 1.52869e-05 0)
(0.195755 1.39339e-05 0)
(0.195709 1.45366e-05 0)
(0.195628 1.21418e-05 0)
(0.195605 1.26193e-05 0)
(0.195519 1.05137e-05 0)
(0.195324 0.00798516 0)
(0.196462 0.00932754 0)
(0.198227 0.0100157 0)
(0.200236 0.00958956 0)
(0.201785 0.00857154 0)
(0.202607 0.00771114 0)
(0.20298 0.00713626 0)
(0.203241 0.0066348 0)
(0.203503 0.00610206 0)
(0.203738 0.00557231 0)
(0.203921 0.00508518 0)
(0.204055 0.0046304 0)
(0.204135 0.00418121 0)
(0.204153 0.00372108 0)
(0.2041 0.0032366 0)
(0.203958 0.00271796 0)
(0.203691 0.00217395 0)
(0.203283 0.00164269 0)
(0.202767 0.00117642 0)
(0.202207 0.000807633 0)
(0.201656 0.000535185 0)
(0.201152 0.000340956 0)
(0.200718 0.000206857 0)
(0.200366 0.000119988 0)
(0.200092 6.83014e-05 0)
(0.199888 4.19891e-05 0)
(0.199728 2.96709e-05 0)
(0.199611 2.60403e-05 0)
(0.199501 2.33771e-05 0)
(0.199424 2.3448e-05 0)
(0.199331 2.05789e-05 0)
(0.19928 2.0609e-05 0)
(0.199191 1.70259e-05 0)
(0.199164 1.72106e-05 0)
(0.199072 1.41106e-05 0)
(0.195861 0.00750142 0)
(0.196819 0.00855669 0)
(0.198233 0.00918665 0)
(0.199898 0.00903775 0)
(0.201338 0.00829241 0)
(0.202239 0.00750366 0)
(0.202702 0.00693006 0)
(0.202996 0.00647132 0)
(0.203271 0.00599994 0)
(0.203531 0.00550688 0)
(0.203756 0.0050326 0)
(0.203944 0.00458509 0)
(0.204097 0.00414617 0)
(0.204211 0.00369992 0)
(0.204283 0.00323238 0)
(0.204296 0.00273454 0)
(0.204213 0.00221442 0)
(0.204009 0.00170479 0)
(0.203698 0.00125186 0)
(0.203326 0.000886619 0)
(0.202938 0.000610157 0)
(0.202563 0.000407354 0)
(0.202219 0.000262257 0)
(0.201921 0.000163984 0)
(0.20167 0.000101715 0)
(0.20147 6.70512e-05 0)
(0.201304 4.83212e-05 0)
(0.201177 4.06837e-05 0)
(0.201058 3.48373e-05 0)
(0.200973 3.32512e-05 0)
(0.200873 2.84784e-05 0)
(0.200818 2.7712e-05 0)
(0.200725 2.27104e-05 0)
(0.200696 2.24994e-05 0)
(0.200601 1.82225e-05 0)
(0.19637 0.00704821 0)
(0.197178 0.00789896 0)
(0.198331 0.00844633 0)
(0.199705 0.0084612 0)
(0.200995 0.00796214 0)
(0.201918 0.00728946 0)
(0.202455 0.00672886 0)
(0.202788 0.00629131 0)
(0.20307 0.00587153 0)
(0.203338 0.00542294 0)
(0.203579 0.0049696 0)
(0.203786 0.0045312 0)
(0.20396 0.00410068 0)
(0.204099 0.00366557 0)
(0.204204 0.00321292 0)
(0.204262 0.00273394 0)
(0.20424 0.00223565 0)
(0.204114 0.00174673 0)
(0.203892 0.0013081 0)
(0.203612 0.000948781 0)
(0.203308 0.0006715 0)
(0.203006 0.000463851 0)
(0.20272 0.000311667 0)
(0.202461 0.000205512 0)
(0.202232 0.000135218 0)
(0.20204 9.36659e-05 0)
(0.201874 6.90068e-05 0)
(0.201743 5.73292e-05 0)
(0.201619 4.79754e-05 0)
(0.201531 4.44406e-05 0)
(0.201428 3.74553e-05 0)
(0.201371 3.5713e-05 0)
(0.201275 2.90943e-05 0)
(0.201246 2.84068e-05 0)
(0.201148 2.27939e-05 0)
(0.196841 0.00662388 0)
(0.197525 0.00732264 0)
(0.198475 0.00779207 0)
(0.199615 0.00789025 0)
(0.200745 0.00758564 0)
(0.20164 0.00705289 0)
(0.202228 0.00653039 0)
(0.202605 0.00610506 0)
(0.202898 0.00572205 0)
(0.203167 0.00531892 0)
(0.203415 0.00489479 0)
(0.203633 0.00447073 0)
(0.203816 0.00405024 0)
(0.203964 0.00362581 0)
(0.204077 0.00318743 0)
(0.204145 0.00272736 0)
(0.204142 0.00225052 0)
(0.204046 0.00178163 0)
(0.203864 0.00135729 0)
(0.203627 0.00100467 0)
(0.203364 0.000727697 0)
(0.203099 0.00051656 0)
(0.202843 0.000358837 0)
(0.202607 0.000246381 0)
(0.202392 0.000169344 0)
(0.202207 0.000121709 0)
(0.202042 9.13887e-05 0)
(0.201911 7.56344e-05 0)
(0.201786 6.25281e-05 0)
(0.201696 5.68264e-05 0)
(0.201592 4.7379e-05 0)
(0.201534 4.45197e-05 0)
(0.201437 3.61109e-05 0)
(0.201408 3.48841e-05 0)
(0.20131 2.77918e-05 0)
(0.197272 0.00622627 0)
(0.197849 0.00680748 0)
(0.198638 0.00721247 0)
(0.19959 0.00734637 0)
(0.200568 0.00717842 0)
(0.201404 0.00678518 0)
(0.202013 0.00632654 0)
(0.202428 0.00591798 0)
(0.202739 0.00555881 0)
(0.203008 0.00519569 0)
(0.203258 0.00480594 0)
(0.203483 0.00440214 0)
(0.203674 0.00399525 0)
(0.203827 0.00358279 0)
(0.203942 0.00315829 0)
(0.204014 0.00271725 0)
(0.204019 0.00226253 0)
(0.203939 0.00181383 0)
(0.203781 0.00140389 0)
(0.203571 0.00105855 0)
(0.203332 0.000782696 0)
(0.203088 0.000568804 0)
(0.20285 0.000406195 0)
(0.202628 0.000288067 0)
(0.202422 0.000204781 0)
(0.202243 0.000151359 0)
(0.202081 0.000115405 0)
(0.201951 9.54673e-05 0)
(0.201826 7.83772e-05 0)
(0.201736 7.03232e-05 0)
(0.201631 5.81945e-05 0)
(0.201573 5.40995e-05 0)
(0.201476 4.37393e-05 0)
(0.201446 4.19211e-05 0)
(0.201348 3.32106e-05 0)
(0.19766 0.00585307 0)
(0.198149 0.00633999 0)
(0.198803 0.00669377 0)
(0.199604 0.00684051 0)
(0.200449 0.0067594 0)
(0.201209 0.00648671 0)
(0.201809 0.00610875 0)
(0.202251 0.0057296 0)
(0.202583 0.0053883 0)
(0.202856 0.00505648 0)
(0.203105 0.00470212 0)
(0.203332 0.00432361 0)
(0.203528 0.00393436 0)
(0.203685 0.00353683 0)
(0.203804 0.00312653 0)
(0.203879 0.00270382 0)
(0.203891 0.00227181 0)
(0.203824 0.00184408 0)
(0.203685 0.00144889 0)
(0.203496 0.00111142 0)
(0.203279 0.000837551 0)
(0.203052 0.000621648 0)
(0.202828 0.00045465 0)
(0.202616 0.000331196 0)
(0.202418 0.000241866 0)
(0.202244 0.000182737 0)
(0.202085 0.000141066 0)
(0.201956 0.000116802 0)
(0.201832 9.55007e-05 0)
(0.201742 8.49237e-05 0)
(0.201638 6.99059e-05 0)
(0.201579 6.44657e-05 0)
(0.201483 5.19931e-05 0)
(0.201453 4.95356e-05 0)
(0.201355 3.90643e-05 0)
(0.198008 0.00550336 0)
(0.198427 0.00591147 0)
(0.198968 0.00622307 0)
(0.199639 0.00637456 0)
(0.200371 0.00634555 0)
(0.201052 0.00616476 0)
(0.201621 0.0058716 0)
(0.202074 0.00553569 0)
(0.202425 0.00521404 0)
(0.202706 0.00490576 0)
(0.202952 0.00458407 0)
(0.203179 0.00423415 0)
(0.203378 0.00386584 0)
(0.203538 0.00348686 0)
(0.20366 0.00309266 0)
(0.20374 0.00268721 0)
(0.203758 0.00227759 0)
(0.203702 0.00187195 0)
(0.203582 0.00149223 0)
(0.203415 0.00116317 0)
(0.203217 0.000892167 0)
(0.203006 0.000675125 0)
(0.202795 0.000504304 0)
(0.202595 0.000375856 0)
(0.202405 0.000280643 0)
(0.202236 0.000215856 0)
(0.20208 0.000168373 0)
(0.201954 0.000139647 0)
(0.20183 0.000113919 0)
(0.201741 0.000100659 0)
(0.201637 8.25472e-05 0)
(0.201579 7.56553e-05 0)
(0.201483 6.09037e-05 0)
(0.201453 5.77605e-05 0)
(0.201356 4.53769e-05 0)
(0.198317 0.00517732 0)
(0.198682 0.0055173 0)
(0.199132 0.00579093 0)
(0.199691 0.00594438 0)
(0.200323 0.00594851 0)
(0.200931 0.00583054 0)
(0.201456 0.00561447 0)
(0.201901 0.00533167 0)
(0.202265 0.00503614 0)
(0.202555 0.00474772 0)
(0.2028 0.00445375 0)
(0.203023 0.00413377 0)
(0.203223 0.00378871 0)
(0.203386 0.00343101 0)
(0.20351 0.00305635 0)
(0.203595 0.00266796 0)
(0.203621 0.0022793 0)
(0.203577 0.00189654 0)
(0.203474 0.00153351 0)
(0.203327 0.00121347 0)
(0.203149 0.000946126 0)
(0.202955 0.000728909 0)
(0.202758 0.00055495 0)
(0.202568 0.000421907 0)
(0.202387 0.000321016 0)
(0.202224 0.000250657 0)
(0.202073 0.000197303 0)
(0.201948 0.00016401 0)
(0.201826 0.00013366 0)
(0.201738 0.00011757 0)
(0.201635 9.6162e-05 0)
(0.201577 8.77137e-05 0)
(0.201482 7.05087e-05 0)
(0.201452 6.66337e-05 0)
(0.201355 5.21763e-05 0)
(0.198588 0.00487444 0)
(0.198915 0.00515474 0)
(0.199293 0.00539185 0)
(0.199755 0.00554357 0)
(0.200296 0.00557271 0)
(0.200839 0.00549568 0)
(0.201317 0.00534108 0)
(0.201739 0.00511462 0)
(0.202104 0.00485251 0)
(0.202402 0.00458495 0)
(0.202649 0.00431384 0)
(0.202867 0.00402298 0)
(0.203066 0.00370301 0)
(0.20323 0.00336769 0)
(0.203355 0.00301615 0)
(0.203445 0.00264655 0)
(0.20348 0.00227697 0)
(0.203448 0.00191686 0)
(0.203361 0.00157206 0)
(0.203234 0.00126195 0)
(0.203076 0.000998947 0)
(0.202899 0.000782533 0)
(0.202716 0.000606255 0)
(0.202538 0.000469114 0)
(0.202365 0.000362819 0)
(0.202209 0.000287041 0)
(0.202063 0.000227813 0)
(0.201941 0.000189891 0)
(0.201821 0.000154749 0)
(0.201734 0.000135699 0)
(0.201632 0.000110793 0)
(0.201575 0.000100687 0)
(0.20148 8.08462e-05 0)
(0.201451 7.61944e-05 0)
(0.201354 5.94914e-05 0)
(0.198825 0.00459334 0)
(0.199123 0.00482206 0)
(0.199448 0.00502402 0)
(0.199831 0.00516798 0)
(0.200287 0.00521742 0)
(0.200769 0.00516944 0)
(0.201204 0.00505854 0)
(0.201593 0.00488457 0)
(0.201947 0.00466098 0)
(0.202249 0.00441805 0)
(0.202498 0.00416721 0)
(0.202712 0.00390273 0)
(0.202907 0.00360942 0)
(0.203071 0.00329659 0)
(0.203197 0.00297011 0)
(0.20329 0.00262265 0)
(0.203335 0.00227112 0)
(0.203315 0.00193217 0)
(0.203244 0.0016069 0)
(0.203136 0.00130812 0)
(0.202997 0.00105017 0)
(0.202838 0.000835472 0)
(0.202669 0.000657801 0)
(0.202503 0.000517181 0)
(0.20234 0.000405841 0)
(0.202192 0.00032487 0)
(0.20205 0.000259828 0)
(0.201932 0.000217264 0)
(0.201815 0.000177194 0)
(0.201729 0.000155074 0)
(0.201628 0.000126477 0)
(0.201572 0.000114619 0)
(0.201478 9.19527e-05 0)
(0.201449 8.64805e-05 0)
(0.201353 6.73507e-05 0)
(0.199034 0.00433022 0)
(0.199308 0.00451647 0)
(0.199593 0.00468599 0)
(0.199914 0.00481636 0)
(0.200294 0.00487975 0)
(0.200716 0.00485619 0)
(0.201111 0.00477496 0)
(0.201466 0.00464432 0)
(0.2018 0.00446057 0)
(0.202097 0.00424615 0)
(0.202348 0.00401598 0)
(0.202559 0.00377455 0)
(0.202748 0.00350852 0)
(0.202912 0.00321855 0)
(0.203038 0.00291678 0)
(0.203132 0.0025948 0)
(0.203187 0.00226223 0)
(0.20318 0.00194233 0)
(0.203123 0.001637 0)
(0.203033 0.00135134 0)
(0.202914 0.00109937 0)
(0.202771 0.000887186 0)
(0.202618 0.000709099 0)
(0.202464 0.000565749 0)
(0.202312 0.000449816 0)
(0.202171 0.000363963 0)
(0.202035 0.00029324 0)
(0.201922 0.000246083 0)
(0.201807 0.000200984 0)
(0.201723 0.000175715 0)
(0.201624 0.00014324 0)
(0.201568 0.000129545 0)
(0.201475 0.000103861 0)
(0.201446 9.75273e-05 0)
(0.201351 7.57816e-05 0)
(0.199221 0.0040809 0)
(0.199471 0.00423465 0)
(0.199726 0.0043756 0)
(0.2 0.00448932 0)
(0.200316 0.00455821 0)
(0.200678 0.0045562 0)
(0.201034 0.00449688 0)
(0.201357 0.00439867 0)
(0.201666 0.00425207 0)
(0.201951 0.00406822 0)
(0.202199 0.00386107 0)
(0.202408 0.00364043 0)
(0.20259 0.00340067 0)
(0.202752 0.00313462 0)
(0.202879 0.00285597 0)
(0.202973 0.0025611 0)
(0.203035 0.00225007 0)
(0.203043 0.00194772 0)
(0.202999 0.00166155 0)
(0.202925 0.00139073 0)
(0.202825 0.00114605 0)
(0.2027 0.000937152 0)
(0.202561 0.000759599 0)
(0.202421 0.000614391 0)
(0.202279 0.000494431 0)
(0.202147 0.000404089 0)
(0.202018 0.000327899 0)
(0.201909 0.000276264 0)
(0.201798 0.000226083 0)
(0.201716 0.000197619 0)
(0.201618 0.000161098 0)
(0.201563 0.000145495 0)
(0.201472 0.000116597 0)
(0.201443 0.000109365 0)
(0.201349 8.48089e-05 0)
(0.199393 0.00384256 0)
(0.199615 0.00397297 0)
(0.199844 0.00409 0)
(0.200083 0.00418707 0)
(0.200348 0.0042538 0)
(0.200654 0.00426845 0)
(0.200971 0.00422796 0)
(0.201265 0.00415301 0)
(0.201546 0.00403802 0)
(0.201813 0.0038843 0)
(0.202053 0.00370248 0)
(0.202259 0.00350222 0)
(0.202436 0.0032864 0)
(0.202594 0.00304534 0)
(0.20272 0.00278867 0)
(0.202814 0.00252018 0)
(0.202881 0.00223355 0)
(0.202902 0.00194877 0)
(0.202873 0.00168023 0)
(0.202814 0.00142532 0)
(0.202731 0.00118961 0)
(0.202624 0.000984867 0)
(0.2025 0.000808727 0)
(0.202373 0.000662611 0)
(0.202243 0.000539311 0)
(0.202119 0.000444969 0)
(0.201998 0.000363605 0)
(0.201893 0.000307683 0)
(0.201786 0.000252423 0)
(0.201707 0.000220761 0)
(0.201612 0.000180047 0)
(0.201558 0.000162483 0)
(0.201467 0.000130181 0)
(0.201439 0.000122019 0)
(0.201347 9.44534e-05 0)
(0.199554 0.00361451 0)
(0.199745 0.00372793 0)
(0.19995 0.00382608 0)
(0.20016 0.00390834 0)
(0.200387 0.00396845 0)
(0.200643 0.00399288 0)
(0.200921 0.00396928 0)
(0.201186 0.00391183 0)
(0.20144 0.00382196 0)
(0.201686 0.00369583 0)
(0.201913 0.00353999 0)
(0.202113 0.00336105 0)
(0.202285 0.0031669 0)
(0.202437 0.00295092 0)
(0.202564 0.00271619 0)
(0.202658 0.00247188 0)
(0.202727 0.00221116 0)
(0.20276 0.00194541 0)
(0.202745 0.00169313 0)
(0.202699 0.00145429 0)
(0.202632 0.00122927 0)
(0.202542 0.0010298 0)
(0.202434 0.000855904 0)
(0.20232 0.000709861 0)
(0.202202 0.000584025 0)
(0.202088 0.000486271 0)
(0.201974 0.000400111 0)
(0.201875 0.000340173 0)
(0.201773 0.000279898 0)
(0.201696 0.000245086 0)
(0.201603 0.000200062 0)
(0.201551 0.00018051 0)
(0.201462 0.000144621 0)
(0.201435 0.000135503 0)
(0.201344 0.00010473 0)
(0.199702 0.00339742 0)
(0.199864 0.00349704 0)
(0.200044 0.00358091 0)
(0.20023 0.0036508 0)
(0.200426 0.0037031 0)
(0.200643 0.00373087 0)
(0.200881 0.00372093 0)
(0.201119 0.00367792 0)
(0.201347 0.00360745 0)
(0.20157 0.00350513 0)
(0.201781 0.00337393 0)
(0.201973 0.00321738 0)
(0.202139 0.00304365 0)
(0.202285 0.00285157 0)
(0.202409 0.00263936 0)
(0.202504 0.00241709 0)
(0.202574 0.00218182 0)
(0.202615 0.00193707 0)
(0.202615 0.00170056 0)
(0.202583 0.00147715 0)
(0.20253 0.00126417 0)
(0.202456 0.00107133 0)
(0.202364 0.000900529 0)
(0.202263 0.000755522 0)
(0.202156 0.000628056 0)
(0.202053 0.000527595 0)
(0.201947 0.000437113 0)
(0.201854 0.000373517 0)
(0.201756 0.000308364 0)
(0.201683 0.000270507 0)
(0.201593 0.000221092 0)
(0.201543 0.000199553 0)
(0.201456 0.00015991 0)
(0.201429 0.000149821 0)
(0.20134 0.000115646 0)
(0.199838 0.00319235 0)
(0.199974 0.00327922 0)
(0.200128 0.00335212 0)
(0.200292 0.00341203 0)
(0.200464 0.00345722 0)
(0.200649 0.00348422 0)
(0.200852 0.00348354 0)
(0.201061 0.00345286 0)
(0.201266 0.00339749 0)
(0.201466 0.0033149 0)
(0.201659 0.00320566 0)
(0.201839 0.00307143 0)
(0.201998 0.00291773 0)
(0.202137 0.00274765 0)
(0.202258 0.00255821 0)
(0.202353 0.00235683 0)
(0.202424 0.00214526 0)
(0.202471 0.00192283 0)
(0.202483 0.00170269 0)
(0.202464 0.00149396 0)
(0.202424 0.00129371 0)
(0.202366 0.00110889 0)
(0.202288 0.000942108 0)
(0.202201 0.000799006 0)
(0.202107 0.00067083 0)
(0.202013 0.000568453 0)
(0.201916 0.000474212 0)
(0.20183 0.000407416 0)
(0.201738 0.000337608 0)
(0.201668 0.000296888 0)
(0.201582 0.000243055 0)
(0.201533 0.000219566 0)
(0.201449 0.000176024 0)
(0.201423 0.000164962 0)
(0.201336 0.000127197 0)
(0.199959 0.00299945 0)
(0.200073 0.00307419 0)
(0.200205 0.00313799 0)
(0.200348 0.00318995 0)
(0.200498 0.00322932 0)
(0.200657 0.00325396 0)
(0.20083 0.00325842 0)
(0.201012 0.0032378 0)
(0.201194 0.00319458 0)
(0.201373 0.00312808 0)
(0.201547 0.0030377 0)
(0.201713 0.00292419 0)
(0.201863 0.00279016 0)
(0.201995 0.00264016 0)
(0.202111 0.00247265 0)
(0.202205 0.00229163 0)
(0.202277 0.00210156 0)
(0.202328 0.00190141 0)
(0.202351 0.00169878 0)
(0.202344 0.00150444 0)
(0.202316 0.00131724 0)
(0.202271 0.00114184 0)
(0.202209 0.000980228 0)
(0.202135 0.000839942 0)
(0.202052 0.000711963 0)
(0.201969 0.000608487 0)
(0.201881 0.000511076 0)
(0.201802 0.000441565 0)
(0.201716 0.000367378 0)
(0.201651 0.000324032 0)
(0.201568 0.000265811 0)
(0.201522 0.000240454 0)
(0.20144 0.000192906 0)
(0.201415 0.000180887 0)
(0.201331 0.000139364 0)
(0.200064 0.00281768 0)
(0.200162 0.00288132 0)
(0.200274 0.00293703 0)
(0.200397 0.00298255 0)
(0.200527 0.00301727 0)
(0.200666 0.00303953 0)
(0.200814 0.00304643 0)
(0.200971 0.00303345 0)
(0.201131 0.00300038 0)
(0.20129 0.00294717 0)
(0.201446 0.00287291 0)
(0.201596 0.00277784 0)
(0.201735 0.00266274 0)
(0.20186 0.00253138 0)
(0.20197 0.00238416 0)
(0.202062 0.00222284 0)
(0.202135 0.00205217 0)
(0.202188 0.00187277 0)
(0.202218 0.00168807 0)
(0.202223 0.00150798 0)
(0.202206 0.00133356 0)
(0.202174 0.00116856 0)
(0.202125 0.00101346 0)
(0.202064 0.00087717 0)
(0.201993 0.00075056 0)
(0.201921 0.000647088 0)
(0.201842 0.000547331 0)
(0.201771 0.000475741 0)
(0.201691 0.000397535 0)
(0.20163 0.000351843 0)
(0.201552 0.000289285 0)
(0.201508 0.000262154 0)
(0.20143 0.000210505 0)
(0.201406 0.000197551 0)
(0.201325 0.00015211 0)
(0.200156 0.00264543 0)
(0.200241 0.00269934 0)
(0.200336 0.00274753 0)
(0.200441 0.00278743 0)
(0.200554 0.00281821 0)
(0.200674 0.00283844 0)
(0.200801 0.00284639 0)
(0.200936 0.0028389 0)
(0.201075 0.00281435 0)
(0.201215 0.00277242 0)
(0.201354 0.00271217 0)
(0.201488 0.00263349 0)
(0.201615 0.00253635 0)
(0.201731 0.00242296 0)
(0.201835 0.00229476 0)
(0.201924 0.00215268 0)
(0.201996 0.00200035 0)
(0.202051 0.00183998 0)
(0.202087 0.00167291 0)
(0.202101 0.00150688 0)
(0.202095 0.00134435 0)
(0.202074 0.0011895 0)
(0.202037 0.00104131 0)
(0.201989 0.00090956 0)
(0.20193 0.000785055 0)
(0.201868 0.000682574 0)
(0.201799 0.000581453 0)
(0.201735 0.000508708 0)
(0.201662 0.000427182 0)
(0.201607 0.00037972 0)
(0.201534 0.000313119 0)
(0.201493 0.000284457 0)
(0.201418 0.000228717 0)
(0.201396 0.000214891 0)
(0.201317 0.00016541 0)
(0.200233 0.00248297 0)
(0.200308 0.00252821 0)
(0.20039 0.00256908 0)
(0.200479 0.00260341 0)
(0.200576 0.00263023 0)
(0.20068 0.00264826 0)
(0.20079 0.00265621 0)
(0.200906 0.00265207 0)
(0.201027 0.00263401 0)
(0.201149 0.00260121 0)
(0.201271 0.00255279 0)
(0.201391 0.00248835 0)
(0.201505 0.00240761 0)
(0.201611 0.0023115 0)
(0.201708 0.00220149 0)
(0.201792 0.00207846 0)
(0.201863 0.00194462 0)
(0.201918 0.00180284 0)
(0.201958 0.00165386 0)
(0.201979 0.0015031 0)
(0.201983 0.00135304 0)
(0.201972 0.0012087 0)
(0.201947 0.00106796 0)
(0.20191 0.000941019 0)
(0.201863 0.000818627 0)
(0.201811 0.000717145 0)
(0.201751 0.000614687 0)
(0.201696 0.000540904 0)
(0.20163 0.000456197 0)
(0.20158 0.000407218 0)
(0.201513 0.000336749 0)
(0.201474 0.00030681 0)
(0.201405 0.000247072 0)
(0.201383 0.000232527 0)
(0.201309 0.000178996 0)
(0.200296 0.00233541 0)
(0.200361 0.00237274 0)
(0.200432 0.00240647 0)
(0.20051 0.00243497 0)
(0.200594 0.00245732 0)
(0.200683 0.00247233 0)
(0.200779 0.00247884 0)
(0.200879 0.00247549 0)
(0.200984 0.00246078 0)
(0.201091 0.0024337 0)
(0.201198 0.00239344 0)
(0.201303 0.00233949 0)
(0.201405 0.00227157 0)
(0.201501 0.00219 0)
(0.20159 0.00209572 0)
(0.201669 0.00198977 0)
(0.201737 0.00187341 0)
(0.201792 0.00174928 0)
(0.201833 0.00161819 0)
(0.20186 0.00148406 0)
(0.201871 0.00134835 0)
(0.201869 0.0012167 0)
(0.201853 0.00108614 0)
(0.201827 0.000966858 0)
(0.201791 0.000849047 0)
(0.20175 0.000750574 0)
(0.201699 0.000648211 0)
(0.201652 0.00057431 0)
(0.201595 0.000486824 0)
(0.20155 0.000436483 0)
(0.201489 0.000362008 0)
(0.201454 0.000330662 0)
(0.201389 0.000266621 0)
(0.201369 0.000251231 0)
(0.201299 0.000193288 0)
(0.200408 0.00205947 0)
(0.200454 0.00208584 0)
(0.200503 0.00210938 0)
(0.200557 0.00212901 0)
(0.200614 0.00214409 0)
(0.200675 0.00215372 0)
(0.20074 0.002157 0)
(0.200809 0.00215302 0)
(0.200881 0.00214083 0)
(0.200956 0.00211969 0)
(0.201032 0.00208904 0)
(0.201108 0.00204854 0)
(0.201184 0.00199797 0)
(0.201258 0.00193749 0)
(0.201329 0.00186739 0)
(0.201396 0.00178844 0)
(0.201456 0.00170113 0)
(0.20151 0.00160723 0)
(0.201555 0.00150709 0)
(0.201591 0.00140365 0)
(0.201616 0.00129659 0)
(0.201632 0.00119148 0)
(0.201637 0.00108413 0)
(0.201633 0.000985082 0)
(0.201619 0.000882385 0)
(0.2016 0.000796535 0)
(0.20157 0.000700743 0)
(0.201542 0.000632753 0)
(0.201502 0.000544404 0)
(0.201471 0.000495392 0)
(0.201424 0.000415091 0)
(0.201398 0.000382858 0)
(0.201345 0.000310417 0)
(0.201329 0.000293906 0)
(0.201271 0.000226188 0)
(0.200438 0.00170224 0)
(0.200469 0.00171963 0)
(0.200501 0.00173504 0)
(0.200536 0.00174781 0)
(0.200573 0.0017576 0)
(0.200613 0.0017639 0)
(0.200655 0.0017662 0)
(0.2007 0.00176399 0)
(0.200747 0.0017568 0)
(0.200796 0.00174422 0)
(0.200848 0.00172589 0)
(0.200902 0.0017016 0)
(0.200957 0.00167111 0)
(0.201012 0.00163441 0)
(0.201067 0.00159136 0)
(0.20112 0.0015423 0)
(0.20117 0.00148706 0)
(0.201217 0.00142666 0)
(0.20126 0.00136059 0)
(0.201297 0.00129109 0)
(0.201329 0.00121624 0)
(0.201354 0.00114129 0)
(0.201372 0.00106052 0)
(0.201383 0.000985278 0)
(0.201388 0.000901039 0)
(0.201387 0.000831458 0)
(0.201379 0.000745351 0)
(0.201369 0.000687044 0)
(0.20135 0.000600514 0)
(0.201335 0.000556386 0)
(0.201309 0.000471976 0)
(0.201294 0.000441571 0)
(0.201261 0.000361074 0)
(0.201251 0.000344887 0)
(0.201212 0.000266304 0)
(0.200423 0.00144147 0)
(0.200445 0.00145584 0)
(0.200468 0.00146871 0)
(0.200494 0.0014796 0)
(0.200521 0.00148824 0)
(0.20055 0.00149432 0)
(0.20058 0.0014975 0)
(0.200612 0.00149748 0)
(0.200647 0.00149395 0)
(0.200683 0.00148663 0)
(0.20072 0.00147525 0)
(0.200759 0.00145963 0)
(0.200799 0.00143953 0)
(0.200839 0.00141494 0)
(0.20088 0.00138565 0)
(0.20092 0.00135192 0)
(0.200959 0.00131343 0)
(0.200997 0.001271 0)
(0.201033 0.00122373 0)
(0.201066 0.00117366 0)
(0.201097 0.00111828 0)
(0.201124 0.00106269 0)
(0.201147 0.00100025 0)
(0.201166 0.000942699 0)
(0.201181 0.000873941 0)
(0.201192 0.000819151 0)
(0.201198 0.0007443 0)
(0.201201 0.000697263 0)
(0.201199 0.000617069 0)
(0.201196 0.000580671 0)
(0.201187 0.000497842 0)
(0.201182 0.000471992 0)
(0.201166 0.000389056 0)
(0.201162 0.000374878 0)
(0.201142 0.000290484 0)
(0.200386 0.00123666 0)
(0.200402 0.00124895 0)
(0.20042 0.00125999 0)
(0.20044 0.0012694 0)
(0.20046 0.00127695 0)
(0.200482 0.00128238 0)
(0.200505 0.00128545 0)
(0.200529 0.00128594 0)
(0.200554 0.00128361 0)
(0.200581 0.0012783 0)
(0.200608 0.00126984 0)
(0.200637 0.00125818 0)
(0.200667 0.00124319 0)
(0.200697 0.00122494 0)
(0.200728 0.0012033 0)
(0.20076 0.00117856 0)
(0.200791 0.00115037 0)
(0.200823 0.00111949 0)
(0.200854 0.00108486 0)
(0.200883 0.00104837 0)
(0.200912 0.00100725 0)
(0.200939 0.000966354 0)
(0.200963 0.000918606 0)
(0.200986 0.000875606 0)
(0.201006 0.000820595 0)
(0.201023 0.000778978 0)
(0.201037 0.000715635 0)
(0.201048 0.000679468 0)
(0.201056 0.000607588 0)
(0.201062 0.000579294 0)
(0.201065 0.000501163 0)
(0.201067 0.000480579 0)
(0.201065 0.00039882 0)
(0.201065 0.000387202 0)
(0.201061 0.00030079 0)
(0.200335 0.00106056 0)
(0.200348 0.00107125 0)