/*--------------------------------*- C++ -*----------------------------------*\
| =========                 |                                                 |
| \\      /  F ield         | OpenFOAM: The Open Source CFD Toolbox           |
|  \\    /   O peration     | Version:  5.x                                   |
|   \\  /    A nd           | Web:      www.OpenFOAM.org                      |
|    \\/     M anipulation  |                                                 |
\*---------------------------------------------------------------------------*/
FoamFile
{
    version     2.0;
    format      ascii;
    class       volScalarField;
    location    "0.3";
    object      p;
}
// * * * * * * * * * * * * * * * * * * * * * * * * * * * * * * * * * * * * * //

dimensions      [0 2 -2 0 0 0 0];

internalField   nonuniform List<scalar> 
21600
(
0.044055246
0.041470971
0.036494858
0.031801788
0.028232225
0.025620474
0.023496063
0.021459845
0.019289919
0.016906838
0.014317527
0.011583121
0.0088071234
0.0061283284
0.0037090102
0.001712229
0.00025986519
-0.00059921048
-0.00089859603
-0.00074058598
-0.00026334209
0.00039433038
0.0011167859
0.0018206659
0.0024542672
0.0029913816
0.0034240055
0.0037564308
0.0040004077
0.0041710385
0.0042837797
0.0043527061
0.0043897523
0.00440455
0.0044045607
0.004395352
0.0043809163
0.0043639954
0.0043463696
0.004329112
0.0043127888
0.0042976238
0.0042836135
0.0042706208
0.0042584306
0.004246799
0.0042354736
0.0042242173
0.0042128126
0.0042010752
0.0041888484
0.0041760118
0.0041624705
0.0041481616
0.004133042
0.004117095
0.0041003162
0.0040827218
0.0040643334
0.0040451878
0.0040253209
0.0040047801
0.0039836073
0.0039618532
0.0039395598
0.0039167762
0.0038935405
0.0038698976
0.0038458794
0.0038215253
0.0037968605
0.0037719187
0.0037467183
0.0037212877
0.0036956393
0.0036697976
0.0036437701
0.0036175785
0.0035912265
0.0035647334
0.0035380995
0.0035113426
0.0034844602
0.0034574693
0.0034303653
0.0034031653
0.0033758624
0.0033484737
0.0033209903
0.0032934294
0.0032657802
0.0032380604
0.0032102577
0.0031823909
0.003154446
0.0031264425
0.0030983643
0.0030702314
0.003042025
0.0030137656
0.0029854318
0.0029570455
0.0029285839
0.0029000707
0.0028714811
0.00284284
0.0028141194
0.0027853455
0.002756488
0.0027275757
0.0026985766
0.0026695214
0.0026403746
0.0026111672
0.0025818613
0.0025524912
0.0025230182
0.0024934795
0.0024638326
0.0024341147
0.0024042803
0.00237437
0.0023443374
0.0023142255
0.0022839851
0.0022536605
0.0022232004
0.0021926514
0.00216196
0.0021311737
0.0021002383
0.0020692032
0.0020380129
0.0020067178
0.0019752614
0.0019436942
0.0019119598
0.0018801096
0.0018480867
0.001815942
0.0017836214
0.001751174
0.0017185464
0.0016857871
0.0016528452
0.0016197667
0.0015865054
0.001553102
0.0015195163
0.0014857838
0.0014518727
0.0014178101
0.0013835742
0.0013491834
0.0013146276
0.0012799134
0.0012450461
0.0012100175
0.001174855
0.0011395311
0.0011041
0.0010685084
0.0010328404
0.00099701173
0.00096114644
0.00092512561
0.00088912043
0.00085296932
0.00081689391
0.00078068363
0.00074462403
0.00070845071
0.00067252308
0.00063650243
0.00060084422
0.00056511933
0.00052990437
0.00049464844
0.00046008308
0.00042550976
0.00039184438
0.00035821447
0.00032574456
0.00029336434
0.00026245448
0.00023168768
0.00020277404
0.00017405692
0.00014766108
0.00012152732
9.8277649e-05
7.5369158e-05
5.6054739e-05
3.7159729e-05
2.2786337e-05
8.9169284e-06
8.3424996e-07
-6.6783497e-06
-6.5069389e-06
-6.3239297e-06
0.03954854
0.038357083
0.03504911
0.031198035
0.027843178
0.025208138
0.023059063
0.021064238
0.018986399
0.016715711
0.014240667
0.011616703
0.0089460218
0.0063669882
0.0040367777
0.0021015085
0.00067181026
-0.00020193948
-0.00054181017
-0.00043535949
-9.3611058e-06
0.00060262822
0.0012854627
0.0019550692
0.0025605873
0.0030760297
0.0034926103
0.0038136931
0.0040498921
0.0042151882
0.0043241635
0.0043903014
0.0044251561
0.0044381183
0.0044365001
0.0044257819
0.0044099096
0.0043916045
0.0043726414
0.0043540963
0.0043365411
0.0043202052
0.0043050896
0.0042910593
0.0042778999
0.0042653662
0.0042532031
0.0042411692
0.0042290424
0.0042166337
0.0042037819
0.004190362
0.0041762751
0.0041614547
0.0041458545
0.0041294548
0.0041122487
0.00409425
0.0040754783
0.0040559685
0.0040357551
0.0040148839
0.0039933958
0.0039713403
0.0039487586
0.0039256989
0.0039021985
0.0038783016
0.0038540396
0.0038294512
0.0038045612
0.0037794027
0.0037539939
0.0037283625
0.0037025209
0.0036764929
0.0036502861
0.0036239213
0.0035974024
0.003570748
0.0035439586
0.0035170513
0.0034900237
0.0034628924
0.0034356528
0.0034083214
0.0033808917
0.0033533801
0.0033257778
0.0032981016
0.0032703408
0.0032425127
0.0032146052
0.0031866365
0.0031585931
0.0031304937
0.0031023228
0.0030740995
0.0030458057
0.003017461
0.0029890447
0.0029605779
0.0029320383
0.0029034489
0.0028747857
0.0028460725
0.0028172823
0.0027884401
0.0027595167
0.0027305395
0.002701478
0.0026723613
0.0026431553
0.0026138894
0.0025845273
0.0025551016
0.0025255753
0.0024959837
0.0024662862
0.0024365178
0.0024066353
0.0023766769
0.0023465986
0.0023164408
0.0022861569
0.0022557883
0.0022252869
0.0021946958
0.002163965
0.0021331386
0.0021021655
0.002071092
0.0020398659
0.0020085339
0.0019770433
0.0019454407
0.0019136737
0.0018817894
0.0018497354
0.0018175579
0.0017852076
0.0017527286
0.0017200726
0.0016872828
0.0016543138
0.0016212058
0.0015879187
0.0015544867
0.0015208763
0.0014871161
0.0014531813
0.0014190918
0.0013848333
0.0013504163
0.0013158388
0.0012810991
0.001246211
0.0012111574
0.001175975
0.0011406267
0.0011051765
0.0010695609
0.0010338747
0.00099802229
0.00096213943
0.00092609528
0.00089007325
0.00085389908
0.00081780743
0.00078157428
0.00074549907
0.00070930303
0.00067336045
0.00063731706
0.00060164454
0.00056589691
0.00053066835
0.00049538952
0.00046081119
0.00042621498
0.00039253727
0.00035888443
0.00032640276
0.00029399964
0.00026307888
0.00023228902
0.00020336541
0.00017462528
0.00014822056
0.00012206398
9.8806613e-05
7.5875762e-05
5.6555384e-05
3.7638521e-05
2.326155e-05
9.3712581e-06
1.2887581e-06
-6.2440735e-06
-6.0653619e-06
-5.8964316e-06
0.036324807
0.035849181
0.033738249
0.030712134
0.027641136
0.024975616
0.022737283
0.020721035
0.018702548
0.016544692
0.014211943
0.011747275
0.0092461775
0.0068362843
0.004655001
0.0028261046
0.0014425247
0.00054999337
0.00013732642
0.00013872506
0.00045070163
0.00095689255
0.0015511233
0.00215113
0.0027013326
0.0031730663
0.0035577489
0.0038579795
0.0040822737
0.0042419533
0.0043491708
0.0044155986
0.0044516147
0.0044659188
0.0044654537
0.004455529
0.0044400375
0.0044217147
0.0044023847
0.0043831885
0.0043647652
0.0043474073
0.0043311703
0.004315964
0.0043016087
0.0042878865
0.0042745622
0.0042614094
0.0042482158
0.0042347984
0.0042209987
0.0042066921
0.0041917782
0.0041761884
0.0041598732
0.0041428098
0.0041249874
0.0041064165
0.0040871127
0.0040671075
0.0040464321
0.0040251295
0.0040032377
0.0039808038
0.0039578666
0.0039344724
0.0039106565
0.0038864615
0.0038619171
0.0038370611
0.0038119167
0.0037865165
0.0037608775
0.0037350269
0.0037089761
0.0036827484
0.0036563506
0.0036298032
0.0036031093
0.0035762874
0.0035493372
0.0035222757
0.0034951002
0.0034678268
0.0034404508
0.0034129883
0.0033854324
0.0033577993
0.0033300801
0.0033022911
0.0032744216
0.0032464886
0.0032184799
0.0031904136
0.0031622758
0.0031340853
0.0031058263
0.0030775178
0.0030491416
0.003020717
0.0029922234
0.0029636816
0.0029350694
0.0029064097
0.0028776783
0.0028488989
0.0028200446
0.0027911399
0.0027621561
0.00273312
0.0027040015
0.0026748292
0.0026455693
0.0026162509
0.0025868378
0.0025573623
0.002527788
0.0024981492
0.0024684061
0.0024385929
0.0024086672
0.0023786662
0.002348547
0.0023183487
0.0022880259
0.0022576189
0.0022270805
0.0021964528
0.0021656869
0.0021348254
0.002103819
0.002072712
0.0020414542
0.0020100902
0.0019785694
0.0019469362
0.0019151403
0.0018832267
0.0018511453
0.0018189396
0.0017865632
0.0017540571
0.0017213762
0.0016885603
0.0016555676
0.0016224344
0.0015891246
0.0015556683
0.0015220363
0.0014882525
0.001454297
0.0014201848
0.0013859065
0.0013514673
0.0013168709
0.0012821096
0.0012472035
0.0012121287
0.001176929
0.00114156
0.0011060933
0.0010704574
0.0010347554
0.00099888288
0.00096298494
0.00092692089
0.00089088444
0.00085469053
0.00081858501
0.00078233218
0.0007462437
0.00071002802
0.00067407278
0.00063800955
0.00060232501
0.00056655732
0.0005313175
0.00049601815
0.0004614292
0.00042681222
0.00039312452
0.00035945056
0.00032695942
0.00029453484
0.00026360542
0.00023279346
0.0002038621
0.00017509926
0.00014868778
0.0001225079
9.9244714e-05
7.6290006e-05
5.69651e-05
3.8023415e-05
2.3643494e-05
9.7273324e-06
1.6438783e-06
-5.9149375e-06
-5.7487915e-06
-5.6093244e-06
0.034037998
0.03382694
0.032404679
0.030044578
0.027318849
0.024720679
0.022434795
0.020390618
0.018415861
0.016368028
0.014190454
0.011907827
0.0096001916
0.0073775103
0.0053566588
0.0036424107
0.0023136365
0.001411807
0.00093377065
0.00083185974
0.0010242462
0.0014129574
0.0019031641
0.0024169071
0.0028991793
0.0033193887
0.0036663888
0.0039405298
0.0041479872
0.0042976502
0.0043994391
0.0044632421
0.0044981662
0.0045120805
0.0045114209
0.0045012092
0.0044851939
0.0044660572
0.0044456269
0.0044250802
0.0044051089
0.0043860626
0.0043680515
0.0043510333
0.0043348673
0.0043193629
0.0043043067
0.0042894917
0.0042747202
0.0042598175
0.0042446288
0.0042290292
0.0042129158
0.0041962156
0.0041788738
0.0041608614
0.0041421617
0.0041227785
0.0041027214
0.0040820163
0.0040606889
0.0040387776
0.004016316
0.0039933475
0.0039699073
0.0039460389
0.0039217748
0.0038971553
0.0038722082
0.0038469695
0.0038214611
0.0037957141
0.0037697447
0.0037435792
0.0037172279
0.0036907133
0.0036640415
0.0036372323
0.0036102881
0.0035832269
0.0035560478
0.0035287674
0.0035013825
0.0034739089
0.0034463412
0.0034186952
0.0033909635
0.0033631619
0.0033352811
0.0033073371
0.0032793188
0.003251243
0.0032230972
0.0031948992
0.0031666348
0.0031383226
0.0031099464
0.0030815253
0.0030530403
0.0030245111
0.0029959165
0.0029672773
0.0029385712
0.0029098208
0.0028810019
0.0028521381
0.0028232022
0.0027942186
0.0027651585
0.0027360486
0.0027068587
0.0026776171
0.0026482903
0.0026189069
0.0025894311
0.0025598946
0.0025302614
0.0025005653
0.0024707668
0.0024408995
0.0024109216
0.0023808697
0.0023507013
0.002320455
0.0022900858
0.0022596333
0.0022290512
0.0021983805
0.0021675732
0.002136671
0.0021056254
0.0020744798
0.0020431851
0.0020117843
0.0019802284
0.0019485602
0.0019167312
0.0018847843
0.0018526715
0.0018204341
0.0017880278
0.0017554914
0.0017227822
0.0016899374
0.0016569178
0.0016237569
0.0015904215
0.0015569386
0.0015232822
0.0014894729
0.0014554942
0.0014213574
0.001387057
0.0013525941
0.0013179767
0.0012831924
0.0012482663
0.0012131692
0.0011779505
0.0011425597
0.0011070749
0.0010714178
0.0010356985
0.00099980519
0.00096389065
0.00092780621
0.00089175389
0.00085553987
0.00081941904
0.0007831463
0.00074704311
0.00071080766
0.00067483829
0.00063875515
0.00060305709
0.00056726926
0.00053201661
0.00049669665
0.0004620954
0.00042745753
0.0003937579
0.00036006268
0.0003275598
0.00029511356
0.00026417276
0.00023333833
0.00020439598
0.0001756098
0.00014918756
0.00012298339
9.9709311e-05
7.6729224e-05
5.739313e-05
3.8424214e-05
2.4032275e-05
1.0086683e-05
1.9882927e-06
-5.5984405e-06
-5.4879704e-06
-5.3818875e-06
0.032213901
0.032081494
0.031034278
0.029163773
0.026807799
0.024374172
0.022116029
0.020069282
0.01813396
0.016189044
0.014166043
0.012067443
0.0099523874
0.0079112167
0.0060424583
0.0044359775
0.0031606428
0.0022552209
0.0017228073
0.0015299781
0.0016129257
0.0018903631
0.002279117
0.0027072316
0.0031216789
0.0034904899
0.0037995535
0.0040464888
0.0042352363
0.0043727172
0.00446706
0.0045266048
0.0045592357
0.0045719334
0.0045705342
0.0045596803
0.0045428997
0.0045227634
0.0045010622
0.0044789818
0.0044572513
0.0044362699
0.0044162015
0.0043970542
0.0043787321
0.0043610816
0.0043439203
0.0043270646
0.0043103346
0.0042935673
0.0042766145
0.0042593537
0.004241682
0.0042235233
0.0042048193
0.0041855357
0.0041656504
0.004145161
0.0041240716
0.0041024017
0.0040801719
0.0040574148
0.0040341596
0.0040104449
0.0039863021
0.0039617706
0.00393688
0.0039116671
0.0038861575
0.0038603845
0.0038343685
0.0038081384
0.003781709
0.0037551049
0.0037283355
0.0037014219
0.0036743692
0.0036471959
0.0036199038
0.0035925097
0.0035650122
0.0035374272
0.0035097507
0.0034819979
0.0034541631
0.0034262611
0.0033982841
0.0033702472
0.0033421408
0.0033139802
0.0032857541
0.0032574787
0.0032291413
0.0032007592
0.0031723179
0.0031438357
0.0031152961
0.0030867175
0.0030580811
0.0030294059
0.0030006708
0.0029718962
0.0029430596
0.0029141835
0.0028852434
0.0028562626
0.002827214
0.0027981216
0.0027689564
0.002739745
0.0027104571
0.0026811208
0.0026517025
0.0026222305
0.0025926692
0.00256305
0.002533337
0.0025035636
0.0024736902
0.0024437504
0.0024137023
0.0023835823
0.0023533483
0.0023230381
0.0022926073
0.0022620947
0.0022314546
0.0022007274
0.0021698657
0.0021389103
0.0021078135
0.0020766178
0.0020452748
0.0020138267
0.0019822254
0.0019505126
0.0019186408
0.0018866516
0.0018544984
0.0018222211
0.0017897768
0.0017572025
0.0017244574
0.0016915766
0.0016585232
0.0016253281
0.0015919606
0.0015584453
0.0015247587
0.0014909185
0.0014569111
0.0014227448
0.0013884174
0.0013539263
0.0013192832
0.001284472
0.0012495215
0.0012143986
0.0011791569
0.0011437413
0.0011082346
0.0010725536
0.0010368135
0.001000897
0.00096496268
0.00092885577
0.00089278457
0.00085654869
0.00082040968
0.00078411554
0.00074799489
0.00071173842
0.0006757522
0.0006396481
0.00060393382
0.00056812492
0.00053285664
0.00049751525
0.00046289872
0.00042823919
0.00039452431
0.00036080706
0.00032828864
0.00029581988
0.00026486322
0.00023400526
0.00020504657
0.00017623563
0.00014979602
0.0001235656
0.00010027228
7.7264036e-05
5.7905791e-05
3.8905675e-05
2.4486533e-05
1.0506476e-05
2.3686807e-06
-5.2479323e-06
-5.2569146e-06
-5.1927645e-06
0.030638903
0.030518401
0.029679872
0.028157299
0.026147422
0.023941816
0.021783974
0.019774692
0.017885757
0.016033524
0.014151368
0.012224505
0.010289769
0.0084170215
0.0066882325
0.0051810964
0.003957016
0.0030530648
0.0024771526
0.0022068077
0.0021928791
0.0023686866
0.0026623727
0.0030087936
0.0033576063
0.0036761113
0.0039476019
0.0041669715
0.0043359982
0.0044599048
0.0045453566
0.0045993814
0.0046287415
0.0046395284
0.0046369298
0.0046251475
0.004607436
0.0045862122
0.0045631993
0.0045395693
0.0045160731
0.0044931482
0.0044710061
0.0044497007
0.00442918
0.0044093276
0.004389993
0.0043710151
0.0043522326
0.0043334938
0.00431466
0.0042956121
0.0042762493
0.0042564941
0.0042362867
0.0042155882
0.0041943734
0.0041726341
0.0041503701
0.0041275948
0.0041043246
0.0040805862
0.0040564051
0.0040318145
0.004006843
0.0039815249
0.0039558877
0.0039299642
0.0039037783
0.0038773599
0.0038507283
0.0038239094
0.0037969177
0.0037697751
0.0037424908
0.0037150835
0.0036875582
0.0036599314
0.0036322049
0.0036043936
0.0035764965
0.0035485274
0.003520483
0.0034923767
0.003464203
0.0034359751
0.0034076857
0.0033793481
0.0033509531
0.0033225146
0.0032940218
0.0032654895
0.0032369055
0.0032082855
0.003179616
0.0031509135
0.0031221621
0.0030933791
0.0030645461
0.0030356808
0.0030067629
0.0029778115
0.0029488049
0.0029197642
0.0028906658
0.0028615318
0.0028323357
0.0028031004
0.0027737975
0.0027444526
0.0027150362
0.0026855752
0.0026560366
0.002626448
0.0025967742
0.0025670461
0.002537228
0.0025073525
0.0024773807
0.0024473451
0.0024172048
0.0023869952
0.0023566747
0.0023262805
0.0022957685
0.0022651771
0.0022344609
0.0022036596
0.0021727265
0.0021417014
0.0021105377
0.0020792765
0.0020478706
0.0020163609
0.0019847004
0.0019529297
0.0019210023
0.0018889586
0.0018567531
0.0018244245
0.001791931
0.0017593084
0.001726517
0.0016935907
0.0016604938
0.0016272558
0.0015938474
0.0015602915
0.0015265663
0.0014926878
0.0014586442
0.0014244418
0.0013900803
0.001355555
0.0013208798
0.0012860362
0.0012510556
0.001215902
0.0011806318
0.0011451871
0.0011096538
0.0010739451
0.0010381798
0.001002237
0.00096627883
0.00093014675
0.000894053
0.00085779299
0.00082163242
0.00078531506
0.00074917382
0.00071289486
0.00067688881
0.00064076261
0.00060502917
0.00056919836
0.0005339114
0.00049854793
0.00046391283
0.00042923112
0.00039549728
0.00036175746
0.00032921918
0.0002967272
0.00026574942
0.00023486693
0.00020588531
0.00017704808
0.00015058266
0.00012432366
0.00010100002
7.7960141e-05
5.8564553e-05
3.9528427e-05
2.5059842e-05
1.1040115e-05
2.8252571e-06
-4.8226149e-06
-5.0353809e-06
-5.0318401e-06
0.029225223
0.029097207
0.028388694
0.027119311
0.025406605
0.02344673
0.021439063
0.019508603
0.017679872
0.015911891
0.01415227
0.01237754
0.010605457
0.0088861911
0.0072858929
0.0058712728
0.0046976637
0.0038008554
0.0031923467
0.0028579504
0.0027601794
0.0028448728
0.0030508713
0.0033202125
0.003605831
0.0038750207
0.0041091069
0.0043005266
0.0044489844
0.0045581318
0.00463337
0.0046806053
0.0047055969
0.0047135858
0.0047091
0.0046958665
0.0046768298
0.0046542217
0.0046296738
0.0046043254
0.0045789354
0.0045539684
0.0045296751
0.004506148
0.0044833753
0.0044612732
0.0044397209
0.0044185771
0.004397698
0.004376942
0.00435618
0.0043352959
0.0043141929
0.0042927913
0.0042710311
0.0042488686
0.0042262763
0.0042032395
0.0041797551
0.0041558293
0.0041314752
0.0041067125
0.0040815637
0.0040560556
0.0040302145
0.0040040691
0.0039776453
0.0039509708
0.0039240687
0.0038969643
0.0038696769
0.0038422286
0.0038146339
0.0037869113
0.0037590708
0.0037311277
0.0037030882
0.0036749655
0.0036467627
0.0036184917
0.0035901529
0.0035617573
0.0035333031
0.0035048008
0.0034762467
0.0034476511
0.0034190083
0.0033903287
0.003361605
0.0033328482
0.0033040493
0.0032752206
0.0032463516
0.0032174555
0.0031885204
0.0031595604
0.0031305613
0.0031015377
0.0030724732
0.0030433831
0.0030142487
0.0029850869
0.0029558779
0.0029266404
0.0028973527
0.0028680345
0.002838661
0.002809253
0.0027797839
0.0027502772
0.0027207048
0.0026910918
0.0026614069
0.0026316756
0.0026018645
0.0025720026
0.0025420557
0.0025120545
0.0024819616
0.0024518078
0.0024215537
0.002391233
0.0023608057
0.0023303071
0.0022996947
0.0022690049
0.0022381943
0.0022073005
0.0021762786
0.0021451666
0.0021139193
0.0020825763
0.0020510919
0.0020195051
0.0019877708
0.0019559276
0.0019239307
0.0018918188
0.0018595481
0.0018271553
0.0017946005
0.0017619175
0.0017290684
0.0016960854
0.0016629344
0.001629643
0.0015961837
0.0015625776
0.0015288048
0.0014948791
0.0014607908
0.001426544
0.0013921406
0.0013575737
0.0013228593
0.0012879765
0.0012529592
0.001217769
0.0011824645
0.0011469854
0.0011114201
0.0010756791
0.0010398838
0.0010039107
0.00096792446
0.00093176396
0.00089564383
0.00085935702
0.00082317147
0.00078682881
0.0007506639
0.00071436088
0.00067833212
0.00064218276
0.00060642738
0.00057057398
0.00053526545
0.00049987958
0.00046522277
0.00043051874
0.00039676227
0.00036299974
0.00033043716
0.00029792162
0.00026691701
0.00023600932
0.00020699726
0.00017813247
0.00015163106
0.0001253413
0.00010197332
7.8898474e-05
5.9445402e-05
4.036896e-05
2.5820119e-05
1.1757054e-05
3.412791e-06
-4.2681893e-06
-4.7837378e-06
-4.8670709e-06
0.027935345
0.027798535
0.027182268
0.026104142
0.02463666
0.022910526
0.021077051
0.01925752
0.017506589
0.015819709
0.014165841
0.012522186
0.010893549
0.0093128334
0.0078311159
0.0065045097
0.0053824508
0.004499141
0.0038685486
0.0034827882
0.0033137127
0.0033178296
0.0034438217
0.0036409272
0.003865861
0.0040866582
0.0042833933
0.0044464629
0.0045736353
0.0046670406
0.0047309082
0.0047701537
0.0047896512
0.0047938609
0.0047866725
0.0047713293
0.0047504446
0.00472604
0.0046996338
0.0046723137
0.004644832
0.0046176669
0.0045910988
0.0045652505
0.004540144
0.0045157225
0.0044918913
0.0044685258
0.0044454983
0.0044226756
0.0043999382
0.0043771723
0.0043542853
0.0043311953
0.0043078428
0.0042841785
0.0042601734
0.0042358056
0.0042110698
0.004185964
0.004160499
0.0041346863
0.0041085463
0.004082098
0.0040553666
0.0040283737
0.0040011448
0.0039737012
0.0039460661
0.0039182593
0.0038903007
0.0038622072
0.0038339948
0.0038056771
0.003777266
0.0037487723
0.0037202043
0.0036915708
0.0036628775
0.0036341318
0.003605337
0.0035764997
0.0035476211
0.0035187074
0.0034897578
0.0034607785
0.0034317668
0.0034027289
0.0033736606
0.0033445688
0.0033154478
0.0032863056
0.0032571352
0.0032279456
0.0031987283
0.003169493
0.0031402291
0.0031109471
0.0030816339
0.0030523007
0.0030229326
0.0029935422
0.0029641134
0.0029346608
0.0029051663
0.0028756455
0.0028460773
0.0028164784
0.0027868258
0.002757139
0.0027273936
0.0026976106
0.0026677624
0.0026378707
0.0026079057
0.0025778924
0.0025478004
0.0025176564
0.0024874264
0.0024571375
0.002426754
0.0023963057
0.0023657564
0.0023351373
0.0023044096
0.0022736059
0.0022426865
0.0022116852
0.0021805606
0.002149347
0.0021180029
0.002086564
0.0020549881
0.0020233107
0.0019914902
0.0019595615
0.0019274834
0.0018952908
0.0018629437
0.0018304749
0.0017978481
0.0017650933
0.0017321766
0.0016991261
0.0016659116
0.0016325567
0.0015990376
0.0015653718
0.001531543
0.0014975613
0.0014634205
0.0014291212
0.0013946689
0.0013600528
0.0013252926
0.0012903638
0.001255304
0.0012200709
0.0011847269
0.0011492078
0.0011136057
0.0010778277
0.0010419984
0.0010059908
0.00096997288
0.00093378053
0.00089763101
0.00086131459
0.00082510148
0.00078873141
0.00075254065
0.00071621206
0.00068015864
0.00064398521
0.00060820608
0.0005723297
0.00053699766
0.00050158943
0.00046690866
0.00043218261
0.00039840067
0.00036461578
0.00033202508
0.00029948623
0.00026844934
0.00023751644
0.00020846607
0.00017957322
0.00015302446
0.00012670264
0.00010327378
8.0161811e-05
6.0626438e-05
4.1507172e-05
2.6839285e-05
1.2731136e-05
4.1936191e-06
-3.5264371e-06
-4.4465792e-06
-4.6494506e-06
0.02675111
0.026610587
0.026067147
0.025137032
0.023869099
0.022351488
0.02069566
0.019005937
0.017349071
0.015745705
0.014186323
0.012655567
0.011152044
0.0096956075
0.0083237764
0.0070820972
0.0060135684
0.0051500516
0.0045069582
0.0040812566
0.0038524097
0.0037860221
0.0038396446
0.0039694729
0.0041363706
0.0043098053
0.0044693086
0.0046037161
0.0047090526
0.0047859612
0.004837524
0.0048677396
0.0048806971
0.0048801605
0.0048694312
0.004851283
0.0048279907
0.0048013473
0.0047727374
0.0047431768
0.0047133944
0.0046838678
0.0046548961
0.0046266229
0.0045990973
0.0045722833
0.0045461087
0.0045204621
0.0044952311
0.004470289
0.0044455255
0.0044208285
0.00439611
0.0043712852
0.0043462959
0.0043210867
0.0042956277
0.0042698894
0.0042438644
0.0042175427
0.0041909328
0.0041640377
0.0041368762
0.0041094591
0.0040818106
0.0040539449
0.0040258873
0.0039976523
0.0039692641
0.0039407354
0.0039120879
0.0038833322
0.0038544866
0.0038255589
0.0037965636
0.003767506
0.0037383976
0.0037092416
0.0036800472
0.0036508163
0.0036215561
0.0035922676
0.003562956
0.0035336221
0.0035042693
0.0034748979
0.00344551
0.0034161059
0.0033866862
0.0033572519
0.0033278023
0.0032983393
0.0032688611
0.0032393708
0.0032098649
0.0031803471
0.0031508123
0.0031212645
0.0030916963
0.0030621127
0.0030325044
0.0030028779
0.0029732228
0.0029435474
0.0029138395
0.0028841083
0.0028543386
0.0028245406
0.0027946976
0.0027648223
0.0027348968
0.0027049352
0.0026749166
0.0026448556
0.0026147293
0.0025845558
0.0025543112
0.0025240151
0.0024936405
0.0024632072
0.0024326865
0.0024021014
0.0023714223
0.0023406733
0.0023098226
0.0022788956
0.0022478596
0.0022167412
0.0021855064
0.0021541818
0.0021227332
0.0020911889
0.0020595142
0.0020277368
0.0019958229
0.0019637996
0.0019316331
0.0018993508
0.0018669204
0.0018343668
0.0018016614
0.0017688263
0.0017358355
0.0017027093
0.0016694253
0.0016359989
0.0016024144
0.0015686812
0.0015347911
0.0015007461
0.001466548
0.0014321893
0.0013976836
0.0013630119
0.0013282019
0.001293221
0.0012581151
0.0012228338
0.0011874471
0.0011518833
0.0011162419
0.0010804226
0.0010445571
0.0010085115
0.0009724602
0.00093623303
0.00090005299
0.00086370461
0.00082746318
0.00079106404
0.00075484708
0.00071849185
0.00068241364
0.00064621571
0.00061041281
0.00057451357
0.00053915786
0.00050372788
0.00046902263
0.00043427552
0.00040046686
0.00036666074
0.00033403949
0.00030147847
0.00027040492
0.00023944787
0.00021035191
0.00018143177
0.00015482408
0.00012847049
0.00010496285
8.1813616e-05
6.2168119e-05
4.3005763e-05
2.8175332e-05
1.4020914e-05
5.221938e-06
-2.5515323e-06
-3.9682903e-06
-4.329476e-06
0.025661492
0.025523585
0.02504111
0.024228509
0.023122521
0.021784734
0.020297128
0.018744407
0.017193228
0.015678645
0.014208334
0.01277711
0.011383041
0.010037738
0.0087675288
0.0076077749
0.0065944443
0.0057561865
0.0051088976
0.0046532621
0.0043750174
0.0042475333
0.0042362347
0.0043038662
0.0044156384
0.004543015
0.0046656246
0.0047712299
0.004854357
0.0049142238
0.0049527684
0.0049731036
0.0049786066
0.0049724297
0.0049573508
0.0049357086
0.0049094467
0.0048801189
0.004848958
0.0048168881
0.0047845968
0.0047525458
0.004721041
0.0046902377
0.0046602049
0.0046309222
0.0046023357
0.004574345
0.0045468507
0.0045197319
0.0044928868
0.0044662043
0.0044396011
0.0044129893
0.0043863119
0.004359508
0.0043325466
0.0043053907
0.0042780311
0.0042504494
0.0042226523
0.0041946345
0.004166413
0.0041379906
0.0041093903
0.0040806189
0.0040517017
0.0040226462
0.0039934771
0.0039642008
0.0039348401
0.0039053994
0.0038758992
0.0038463411
0.0038167428
0.0037871034
0.0037574379
0.0037277436
0.0036980334
0.0036683035
0.0036385648
0.0036088128
0.0035790568
0.0035492916
0.0035195252
0.003489752
0.0034599788
0.0034301997
0.0034004205
0.0033706358
0.0033408504
0.0033110596
0.0032812673
0.0032514698
0.0032216697
0.0031918636
0.0031620526
0.0031322336
0.0031024059
0.0030725668
0.0030427142
0.0030128469
0.0029829617
0.002953059
0.0029231342
0.0028931881
0.0028632136
0.0028332123
0.0028031757
0.0027731079
0.0027429992
0.002712855
0.0026826629
0.0026524286
0.0026221382
0.0025918002
0.0025614003
0.0025309479
0.0025004258
0.0024698438
0.0024391833
0.0024084568
0.0023776452
0.0023467617
0.0023157853
0.0022847302
0.0022535749
0.0022223348
0.0021909868
0.0021595463
0.0021279906
0.002096336
0.0020645596
0.0020326774
0.0020006672
0.0019685442
0.0019362868
0.0019039096
0.0018713933
0.0018387499
0.0018059633
0.0017730428
0.0017399756
0.0017067686
0.0016734129
0.0016399101
0.001606258
0.0015724526
0.0015384995
0.0015043865
0.0014701294
0.0014357068
0.0014011464
0.0013664149
0.001331554
0.0012965171
0.0012613644
0.0012260312
0.0011906016
0.0011549897
0.001119309
0.0010834455
0.0010475444
0.0010114583
0.00097537458
0.00093911067
0.00090290138
0.00086651971
0.00083025156
0.00079382256
0.00075758134
0.00072119926
0.00068509839
0.00064887631
0.00061305187
0.00057713066
0.00054175331
0.000506303
0.0004715749
0.00043680856
0.00040297395
0.00036914877
0.00033649637
0.00030391555
0.00027280255
0.00024182385
0.00021267626
0.00018373133
0.00015705389
0.00013067086
0.00010706663
8.3882182e-05
6.409835e-05
4.4894224e-05
2.9857837e-05
1.5654148e-05
6.5293252e-06
-1.32289e-06
-3.3099275e-06
-3.8758576e-06
0.024658122
0.024528715
0.024099056
0.023382179
0.022407959
0.021222558
0.019887443
0.018470078
0.01703059
0.015609964
0.014227337
0.012887144
0.011590366
0.010344535
0.0091676615
0.0080860321
0.0071284514
0.0063196561
0.0056751355
0.0051982781
0.0048799565
0.0047001393
0.0046311662
0.0046418417
0.0047017525
0.0047847615
0.0048711323
0.0049480233
0.005008747
0.0050512061
0.0050762116
0.005086002
0.0050832881
0.005070681
0.0050505039
0.0050247074
0.0049949237
0.0049624676
0.0049284067
0.0048935562
0.0048585443
0.004823802
0.0047896295
0.0047561848
0.0047235499
0.0046917152
0.0046606414
0.004630237
0.0046004136
0.0045710551
0.0045420673
0.0045133399
0.0044847935
0.0044563375
0.0044279159
0.0043994622
0.0043709446
0.0043423189
0.004313574
0.0042846834
0.0042556519
0.0042264661
0.0041971412
0.0041676722
0.004138081
0.0041083668
0.0040785546
0.0040486451
0.0040186635
0.0039886095
0.0039585073
0.0039283549
0.0038981745
0.0038679622
0.0038377379
0.0038074953
0.0037772522
0.0037470003
0.003716756
0.0036865097
0.0036562761
0.0036260449
0.0035958295
0.0035656189
0.0035354254
0.0035052375
0.0034750667
0.003444901
0.0034147513
0.0033846058
0.0033544747
0.0033243466
0.0032942314
0.0032641181
0.0032340156
0.0032039134
0.003173819
0.0031437218
0.0031136279
0.003083527
0.0030534242
0.0030233103
0.0029931897
0.0029630545
0.002932908
0.0029027423
0.0028725587
0.0028423497
0.0028121157
0.0027818512
0.002751556
0.0027212253
0.0026908568
0.0026604456
0.0026299884
0.0025994828
0.002568925
0.0025383132
0.0025076414
0.0024769077
0.0024461054
0.0024152348
0.0023842889
0.0023532683
0.0023221645
0.0022909787
0.0022597027
0.002228338
0.0021968758
0.0021653168
0.0021336529
0.0021018853
0.0020700064
0.0020380165
0.0020059095
0.001973684
0.0019413351
0.0019088604
0.0018762578
0.0018435218
0.0018106538
0.0017776452
0.0017445014
0.001711211
0.0016777837
0.0016442017
0.0016104824
0.001576602
0.0015425863
0.0015084028
0.0014740874
0.0014395984
0.0014049842
0.0013701904
0.0013352799
0.0013001848
0.0012649867
0.0012295997
0.001194129
0.0011584672
0.0011227493
0.0010868403
0.0010509059
0.0010147783
0.00097866485
0.00094236357
0.00090612802
0.00086971284
0.00083342134
0.00079696275
0.00076070084
0.00072429267
0.00068817291
0.00065192793
0.00061608579
0.00058014437
0.00054474903
0.00050928068
0.00047453289
0.00043975017
0.00040589183
0.00037205091
0.00033936816
0.00030677124
0.00027561735
0.00024462102
0.00021541709
0.00018645157
0.00015969491
0.00013328658
0.00010956954
8.63535e-05
6.6405598e-05
4.7161121e-05
3.1880522e-05
1.7620281e-05
8.1164581e-06
1.4879624e-07
-2.4600119e-06
-3.289537e-06
0.023734119
0.023618605
0.023235895
0.02259839
0.021732136
0.020674728
0.019474184
0.018184544
0.016857549
0.015534116
0.014239559
0.012985609
0.011777331
0.010621072
0.0095293447
0.0085210893
0.0076184599
0.0068419512
0.0062058864
0.0057154009
0.005365438
0.005141495
0.0050219191
0.0049810448
0.0049927297
0.0050334819
0.0050846254
0.0051331434
0.0051714462
0.0051962815
0.005207384
0.0052061309
0.0051945911
0.0051748854
0.0051489422