/*--------------------------------*- C++ -*----------------------------------*\
| =========                 |                                                 |
| \\      /  F ield         | OpenFOAM: The Open Source CFD Toolbox           |
|  \\    /   O peration     | Version:  5.x                                   |
|   \\  /    A nd           | Web:      www.OpenFOAM.org                      |
|    \\/     M anipulation  |                                                 |
\*---------------------------------------------------------------------------*/
FoamFile
{
    version     2.0;
    format      ascii;
    class       surfaceScalarField;
    location    "0.3";
    object      phi;
}
// * * * * * * * * * * * * * * * * * * * * * * * * * * * * * * * * * * * * * //

dimensions      [0 3 -1 0 0 0 0];

internalField   nonuniform List<scalar> 
42870
(
7.853124e-08
2.9354034e-09
-8.1466643e-08
7.4583488e-08
3.9477525e-09
7.0421907e-08
4.161581e-09
6.6312244e-08
4.1096625e-09
6.2244584e-08
4.0676598e-09
5.8175183e-08
4.0694017e-09
5.4096087e-08
4.0790951e-09
5.0026843e-08
4.0692441e-09
4.6007317e-08
4.0195259e-09
4.2086658e-08
3.9206599e-09
3.8317758e-08
3.7688995e-09
3.475577e-08
3.5619881e-09
3.1461284e-08
3.2944859e-09
2.8490854e-08
2.9704302e-09
2.5885073e-08
2.605781e-09
2.3671872e-08
2.213201e-09
2.1853735e-08
1.818137e-09
2.0405659e-08
1.4480763e-09
1.9280948e-08
1.1247109e-09
1.8422084e-08
8.5886431e-10
1.77701e-08
6.5198333e-10
1.7271105e-08
4.9899503e-10
1.6879452e-08
3.9165287e-10
1.6558664e-08
3.2078793e-10
1.6282267e-08
2.7639696e-10
1.6031408e-08
2.508598e-10
1.5792774e-08
2.3863407e-10
1.5558046e-08
2.3472701e-10
1.5322979e-08
2.350675e-10
1.5086163e-08
2.3681595e-10
1.4847906e-08
2.3825684e-10
1.4609409e-08
2.3849752e-10
1.4372211e-08
2.3719712e-10
1.4137863e-08
2.3434813e-10
1.390773e-08
2.3013316e-10
1.3682915e-08
2.2481552e-10
1.346423e-08
2.1868444e-10
1.3252221e-08
2.1200931e-10
1.3047191e-08
2.0502995e-10
1.2849253e-08
1.9793842e-10
1.2658364e-08
1.90889e-10
1.2474373e-08
1.8399049e-10
1.2297049e-08
1.7732404e-10
1.2126112e-08
1.7093685e-10
1.1961251e-08
1.648617e-10
1.1802143e-08
1.5910709e-10
1.1648466e-08
1.5367788e-10
1.1499901e-08
1.4856458e-10
1.135614e-08
1.4376039e-10
1.1216895e-08
1.392454e-10
1.1081888e-08
1.3500683e-10
1.0950867e-08
1.3102093e-10
1.0823593e-08
1.2727419e-10
1.0699851e-08
1.2374239e-10
1.0579437e-08
1.204136e-10
1.0462173e-08
1.1726465e-10
1.0347886e-08
1.1428625e-10
1.0236429e-08
1.1145699e-10
1.0127659e-08
1.0877077e-10
1.002145e-08
1.0620801e-10
9.9176846e-09
1.0376584e-10
9.8162582e-09
1.0142629e-10
9.7170687e-09
9.9189517e-11
9.6200299e-09
9.7038811e-11
9.5250529e-09
9.497711e-11
9.4320644e-09
9.2988548e-11
9.3409859e-09
9.1078531e-11
9.2517543e-09
8.923154e-11
9.1642992e-09
8.7455132e-11
9.0785655e-09
8.5733657e-11
8.9944889e-09
8.4076574e-11
8.9120211e-09
8.2467803e-11
8.8311026e-09
8.091858e-11
8.7516905e-09
7.9412088e-11
8.6737293e-09
7.7961247e-11
8.5971811e-09
7.6548231e-11
8.5219935e-09
7.5187596e-11
8.4481331e-09
7.3860298e-11
8.3755505e-09
7.2582589e-11
8.3042164e-09
7.1334061e-11
8.2340837e-09
7.0132727e-11
8.165127e-09
6.8956631e-11
8.0973014e-09
6.7825647e-11
8.0305853e-09
6.6716146e-11
7.9649353e-09
6.5649955e-11
7.9003337e-09
6.460164e-11
7.8367386e-09
6.3595159e-11
7.7741354e-09
6.2603128e-11
7.7124837e-09
6.1651769e-11
7.6517721e-09
6.0711565e-11
7.591961e-09
5.9811131e-11
7.5330424e-09
5.8918643e-11
7.4749771e-09
5.806528e-11
7.4177604e-09
5.7216749e-11
7.3613535e-09
5.6406985e-11
7.3057544e-09
5.559904e-11
7.2509246e-09
5.482978e-11
7.1968652e-09
5.4059394e-11
7.1435374e-09
5.3327867e-11
7.0909451e-09
5.25923e-11
7.0390491e-09
5.1895988e-11
6.9878564e-09
5.1192721e-11
6.9373271e-09
5.0529316e-11
6.8874711e-09
4.9856041e-11
6.8382476e-09
4.9223455e-11
6.7896695e-09
4.857808e-11
6.7416951e-09
4.7974437e-11
6.6943401e-09
4.7355053e-11
6.6475614e-09
4.6778625e-11
6.601378e-09
4.6183441e-11
6.5557454e-09
4.5632602e-11
6.5106854e-09
4.5059951e-11
6.4661522e-09
4.4533253e-11
6.4221705e-09
4.3981668e-11
6.3786927e-09
4.3477798e-11
6.3357469e-09
4.2945836e-11
6.2932834e-09
4.2463465e-11
6.2513337e-09
4.1949747e-11
6.2098459e-09
4.1487733e-11
6.1688548e-09
4.0991088e-11
6.1283065e-09
4.0548366e-11
6.0882389e-09
4.0067581e-11
6.0485958e-09
3.9643069e-11
6.0094188e-09
3.9177062e-11
5.9706489e-09
3.876985e-11
5.9323313e-09
3.8317613e-11
5.8944045e-09
3.7926777e-11
5.8569172e-09
3.7487307e-11
5.8198052e-09
3.7111969e-11
5.7831209e-09
3.6684343e-11
5.7467972e-09
3.6323656e-11
5.7108902e-09
3.5906981e-11
5.6753301e-09
3.5560167e-11
5.6401764e-09
3.5153652e-11
5.6053564e-09
3.4819975e-11
5.5709337e-09
3.4422742e-11
5.5368323e-09
3.4101376e-11
5.5031197e-09
3.371267e-11
5.4697167e-09
3.3402946e-11
5.4366947e-09
3.3022021e-11
5.4039716e-09
3.2723155e-11
5.3716224e-09
3.2349197e-11
5.3395618e-09
3.2060581e-11
5.3078688e-09
3.169295e-11
5.2764551e-09
3.1413741e-11
5.2454035e-09
3.1051619e-11
5.2146224e-09
3.0781101e-11
5.1841985e-09
3.0423833e-11
5.1540371e-09
3.0161381e-11
5.1242289e-09
2.9808263e-11
5.094676e-09
2.9552864e-11
5.0654728e-09
2.9203185e-11
5.0365186e-09
2.895421e-11
5.0079113e-09
2.8607291e-11
4.9795477e-09
2.8363642e-11
4.9515287e-09
2.8018934e-11
4.923749e-09
2.7779746e-11
4.8963123e-09
2.7436648e-11
4.8691116e-09
2.7200731e-11
4.842253e-09
2.6858586e-11
4.8156282e-09
2.6624771e-11
4.7893449e-09
2.6283314e-11
4.7632946e-09
2.6050364e-11
4.7375857e-09
2.5708871e-11
4.7121103e-09
2.5475354e-11
4.6869767e-09
2.5133681e-11
4.6620784e-09
2.4898281e-11
4.6375226e-09
2.4555736e-11
4.6132055e-09
2.4317132e-11
4.589232e-09
2.3973498e-11
4.5655017e-09
2.3730294e-11
4.5421165e-09
2.3385254e-11
4.5189807e-09
2.3135785e-11
4.4961904e-09
2.2790229e-11
4.4736586e-09
2.2531868e-11
4.4514708e-09
2.2187745e-11
4.429554e-09
2.1916839e-11
4.4079763e-09
2.1577691e-11
4.3866859e-09
2.1290411e-11
4.365726e-09
2.0959907e-11
4.3450727e-09
2.0653255e-11
4.3247377e-09
2.0334963e-11
4.3047302e-09
2.0007483e-11
4.2850244e-09
1.9705824e-11
4.2656691e-09
1.9355345e-11
4.2465901e-09
1.9078966e-11
4.2278891e-09
1.8701046e-11
4.2094254e-09
1.8463643e-11
4.191372e-09
1.8053452e-11
4.1734999e-09
1.7872078e-11
4.1560718e-09
1.7428106e-11
4.1387468e-09
1.7324983e-11
4.1218996e-09
1.6847151e-11
4.1050416e-09
1.6858009e-11
4.0886944e-09
1.6347272e-11
4.0721678e-09
1.6526544e-11
4.0561767e-09
1.59911e-11
4.039769e-09
1.6407752e-11
4.0239515e-09
1.581745e-11
1.7144453e-11
8.58636e-08
2.6016505e-09
-8.5529847e-08
8.6002295e-08
3.8090573e-09
8.5650122e-08
4.5137544e-09
8.5016377e-08
4.7434079e-09
8.4242777e-08
4.8412591e-09
8.3347509e-08
4.9646696e-09
8.2290448e-08
5.1361567e-09
8.1048678e-08
5.311014e-09
7.9627464e-08
5.4407396e-09
7.8047585e-08
5.5005392e-09
7.6334375e-08
5.4821091e-09
7.451528e-08
5.381083e-09
7.2617698e-08
5.1920683e-09
7.067076e-08
4.9173683e-09
6.8709397e-08
4.5671447e-09
6.6767201e-08
4.1553961e-09
6.4876618e-08
3.7087202e-09
6.3064731e-08
3.2599632e-09
6.1349261e-08
2.8401817e-09
5.9737364e-08
2.4707612e-09
5.8227778e-08
2.1615689e-09
5.6814651e-08
1.9121222e-09
5.548998e-08
1.7163237e-09
5.4243206e-08
1.5675617e-09
5.3067415e-08
1.4521878e-09
5.1956086e-08
1.3621895e-09
5.0901509e-08
1.2932109e-09
4.9897042e-08
1.2391935e-09
4.8937272e-08
1.1948377e-09
4.8017976e-08
1.1561119e-09
4.7135903e-08
1.1203299e-09
4.6288525e-08
1.0858755e-09
4.5473834e-08
1.0518882e-09
4.4690195e-08
1.0179873e-09
4.3936222e-08
9.8410633e-10
4.3210688e-08
9.5034978e-10
4.2512449e-08
9.1692343e-10
4.1840403e-08
8.840549e-10
4.1193457e-08
8.5197633e-10
4.0570516e-08
8.208791e-10
3.9970479e-08
7.9092648e-10
3.9392244e-08
7.62225e-10
3.8834715e-08
7.3485362e-10
3.8296811e-08
7.0883993e-10
3.7777476e-08
6.8419723e-10
3.7275689e-08
6.6089367e-10
3.679047e-08
6.3889756e-10
3.6320884e-08
6.1815007e-10
3.5866043e-08
5.9860148e-10
3.5425114e-08
5.8017406e-10
3.4997312e-08
5.6280893e-10
3.458191e-08
5.464229e-10
3.4178226e-08
5.3095845e-10
3.3785634e-08
5.1633404e-10
3.3403549e-08
5.024989e-10
3.3031437e-08
4.8937677e-10
3.2668797e-08
4.7692625e-10
3.2315176e-08
4.6507799e-10
3.1970145e-08
4.5380109e-10
3.163332e-08
4.430331e-10
3.1304332e-08
4.3275361e-10
3.0982853e-08
4.2290619e-10
3.0668562e-08
4.1348013e-10
3.0361177e-08
4.0442395e-10
3.0060418e-08
3.9573571e-10
2.976604e-08
3.8736742e-10
2.9477793e-08
3.7932487e-10
2.9195463e-08
3.7156198e-10
2.8918827e-08
3.6409127e-10
2.8647693e-08
3.5686715e-10
2.8381862e-08
3.4990808e-10
2.8121161e-08
3.4316801e-10
2.7865409e-08
3.3667088e-10
2.7614452e-08
3.3036916e-10
2.7368121e-08
3.2429193e-10
2.712628e-08
3.1838934e-10
2.6888772e-08
3.1269549e-10
2.6655475e-08
3.0715752e-10
2.6426243e-08
3.0181464e-10
2.6200967e-08
2.9661051e-10
2.597951e-08
2.915896e-10
2.5761775e-08
2.8669146e-10
2.5547634e-08
2.8196616e-10
2.5337002e-08
2.7734873e-10
2.5129757e-08
2.7289509e-10
2.4925823e-08
2.685353e-10
2.4725087e-08
2.6433163e-10
2.4527481e-08
2.6020864e-10
2.4332898e-08
2.5623533e-10
2.4141279e-08
2.523302e-10
2.3952521e-08
2.4856945e-10
2.3766574e-08
2.4486492e-10
2.3583339e-08
2.4130054e-10
2.3402775e-08
2.3778095e-10
2.3224784e-08
2.3439839e-10
2.3049333e-08
2.3104965e-10
2.2876327e-08
2.2783586e-10
2.2705741e-08
2.2464527e-10
2.253748e-08
2.2158851e-10
2.2371528e-08
2.1854451e-10
2.220779e-08
2.1563408e-10
2.2046257e-08
2.127261e-10
2.1886834e-08
2.0995231e-10
2.1729519e-08
2.0717074e-10
2.1574218e-08
2.0452481e-10
2.1420935e-08
2.0186087e-10
2.1269575e-08
1.9933484e-10
2.1120149e-08
1.9678043e-10
2.0972561e-08
1.9436695e-10
2.082683e-08
1.919146e-10
2.0682855e-08
1.8960693e-10
2.0540666e-08
1.8724971e-10
2.0400157e-08
1.8504171e-10
2.0261366e-08
1.8277327e-10
2.0124184e-08
1.8065931e-10
1.9988656e-08
1.7847364e-10
1.9854671e-08
1.7644839e-10
1.9722281e-08
1.7433985e-10
1.9591371e-08
1.7239847e-10
1.9462e-08
1.7036187e-10
1.9334048e-08
1.6849983e-10
1.9207586e-08
1.6653017e-10
1.9082486e-08
1.6474322e-10
1.8958827e-08
1.6283588e-10
1.8836476e-08
1.6112019e-10
1.8715523e-08
1.5927079e-10
1.8595827e-08
1.5762266e-10
1.8477488e-08
1.5582695e-10
1.8360357e-08
1.5424284e-10
1.8244544e-08
1.5249673e-10
1.8129895e-08
1.5097331e-10
1.8016529e-08
1.4927299e-10
1.7904282e-08
1.4780727e-10
1.7793286e-08
1.4614907e-10
1.7683368e-08
1.4473809e-10
1.7574673e-08
1.4311823e-10
1.7467015e-08
1.41759e-10
1.7360554e-08
1.4017397e-10
1.7255093e-08
1.3886388e-10
1.7150805e-08
1.3731017e-10
1.7047481e-08
1.3604645e-10
1.694531e-08
1.3452049e-10
1.684407e-08
1.333008e-10
1.6743964e-08
1.3179924e-10
1.6644757e-08
1.3062073e-10
1.6546668e-08
1.2913979e-10
1.644945e-08
1.2800002e-10
1.6353337e-08
1.2653635e-10
1.6258065e-08
1.2543304e-10
1.6163891e-08
1.2398291e-10
1.6070531e-08
1.2291299e-10
1.5978261e-08
1.2147272e-10
1.5886781e-08
1.2043392e-10
1.5796389e-08
1.1899963e-10
1.5706764e-08
1.179888e-10
1.5618226e-08
1.165569e-10
1.5530434e-08
1.1557134e-10
1.5443733e-08
1.141378e-10
1.535776e-08
1.1317404e-10
1.5272884e-08
1.117347e-10
1.5188719e-08
1.1078951e-10
1.5105661e-08
1.0934077e-10
1.5023301e-08
1.0841056e-10
1.4942062e-08
1.0694772e-10
1.4861509e-08
1.0602875e-10
1.4782095e-08
1.0454812e-10
1.4703356e-08
1.0363674e-10
1.4625778e-08
1.0213336e-10
1.4548869e-08
1.0122621e-10
1.4473147e-08
9.9695866e-11
1.4398088e-08
9.8789478e-11
1.4324245e-08
9.722771e-11
1.4251063e-08
9.6318586e-11
1.417913e-08
9.4723259e-11
1.4107855e-08
9.3806048e-11
1.4037866e-08
9.2177457e-11
1.3968537e-08
9.1245282e-11
1.3900527e-08
8.9587511e-11
1.3833184e-08
8.8633316e-11
1.3767193e-08
8.6951546e-11
1.3701875e-08
8.5970827e-11
1.3637939e-08
8.4270873e-11
1.3574683e-08
8.3263791e-11
1.3512835e-08
8.1554003e-11
1.3451668e-08
8.0521734e-11
1.3391927e-08
7.8820285e-11
1.3332866e-08
7.7761932e-11
1.327523e-08
7.6099988e-11
1.3218266e-08
7.5017274e-11
1.3162702e-08
7.3436449e-11
1.3107786e-08
7.2344006e-11
1.305421e-08
7.0900265e-11
1.3001231e-08
6.9826523e-11
1.2949481e-08
6.8608304e-11
1.2898226e-08
6.7602461e-11
1.2848009e-08
6.6742693e-11
1.2798096e-08
6.5904707e-11
1.2748932e-08
6.5572076e-11
1.2699781e-08
6.4967984e-11
6.6995971e-11
8.9427e-08
2.5354226e-09
-8.9360772e-08
8.9784956e-08
3.4511014e-09
9.0027771e-08
4.2709393e-09
9.0103366e-08
4.6678128e-09
9.0113268e-08
4.8313578e-09
9.0109963e-08
4.9679743e-09
9.0094329e-08
5.1517903e-09
9.0035637e-08
5.3697061e-09
8.9909576e-08
5.5668013e-09
8.9704829e-08
5.7052862e-09
8.9417323e-08
5.7696152e-09
8.9045066e-08
5.7533396e-09
8.8583895e-08
5.6532399e-09
8.803271e-08
5.4685533e-09
8.7396521e-08
5.2033332e-09
8.668293e-08
4.8689872e-09
8.5904899e-08
4.4867514e-09
8.5079556e-08
4.0853062e-09
8.422479e-08
3.6949476e-09
8.3355372e-08
3.3401789e-09
8.2481487e-08
3.0354538e-09
8.1608869e-08
2.7847401e-09
8.0740199e-08
2.5849939e-09
7.9878165e-08
2.4295957e-09
7.9022456e-08
2.307897e-09
7.8172755e-08
2.2118905e-09
7.7329284e-08
2.1366821e-09
7.6491516e-08
2.0769613e-09
7.5658817e-08
2.0275364e-09
7.4830798e-08
1.9841308e-09
7.4007414e-08
1.9437138e-09
7.3188929e-08
1.9043606e-09
7.237583e-08
1.8649875e-09
7.1568759e-08
1.8250579e-09
7.0768452e-08
1.784414e-09
6.9975688e-08
1.7431139e-09
6.9191245e-08
1.7013664e-09
6.8415869e-08
1.6594302e-09
6.7650246e-08
1.6176002e-09
6.6894985e-08
1.5761396e-09
6.6150611e-08
1.5353004e-09
6.5417564e-08
1.4952726e-09
6.4696191e-08
1.4562266e-09
6.3986763e-08
1.4182681e-09
6.3289465e-08
1.3814945e-09
6.2604422e-08
1.3459369e-09
6.1931688e-08
1.3116314e-09
6.1271267e-08
1.2785718e-09
6.0623104e-08
1.2467642e-09
5.9987111e-08
1.2161668e-09
5.9363156e-08
1.1867645e-09
5.8751082e-08
1.1584968e-09
5.81507e-08
1.1313401e-09
5.756181e-08
1.1052244e-09
5.6984184e-08
1.0801249e-09
5.6417593e-08
1.0559677e-09
5.5861787e-08
1.0327316e-09
5.5316523e-08
1.0103422e-09
5.4781539e-08
9.8878459e-10
5.4256587e-08
9.6798538e-10
5.3741403e-08
9.4793793e-10
5.3235739e-08
9.2856984e-10
5.2739336e-08
9.098832e-10
5.2251954e-08
8.9180665e-10
5.1773338e-08
8.7435109e-10
5.130326e-08
8.5744537e-10
5.0841476e-08
8.4110893e-10
5.0387769e-08
8.2526956e-10
4.9941905e-08
8.0995516e-10
4.9503681e-08
7.950911e-10
4.9072875e-08
7.8071349e-10
4.8649299e-08
7.667446e-10
4.8232741e-08
7.5322869e-10
4.7823026e-08
7.4008377e-10
4.7419956e-08
7.2736242e-10
4.7023368e-08
7.1497738e-10
4.6633074e-08
7.0298978e-10
4.6248925e-08
6.9130613e-10
4.5870743e-08
6.799967e-10
4.5498392e-08
6.6896102e-10
4.5131703e-08
6.5827897e-10
4.4770552e-08
6.4784208e-10
4.4414778e-08
6.3774057e-10
4.4064269e-08
6.2785727e-10
4.3718871e-08
6.1829336e-10
4.3378484e-08
6.0892205e-10
4.304296e-08
5.998565e-10
4.2712209e-08
5.9095923e-10
4.2386088e-08
5.8235623e-10
4.206452e-08
5.7389823e-10
4.1747365e-08
5.6572498e-10
4.1434555e-08
5.5767429e-10
4.1125955e-08
5.4990077e-10
4.0821508e-08
5.4222814e-10
4.0521079e-08
5.3482711e-10
4.0224623e-08
5.2750594e-10
3.9932006e-08
5.2045271e-10
3.9643193e-08
5.1345875e-10
3.935805e-08
5.0673083e-10
3.9076553e-08
5.0004177e-10
3.8798569e-08
4.9361852e-10
3.8524081e-08
4.8721378e-10
3.8252957e-08
4.8107634e-10
3.7985191e-08
4.7493708e-10
3.7720647e-08
4.6906824e-10
3.7459331e-08
4.6317704e-10
3.7201105e-08
4.5756102e-10
3.6945984e-08
4.519017e-10
3.6693827e-08
4.4652392e-10
3.644466e-08
4.4108142e-10
3.6198338e-08
4.3592838e-10
3.5954899e-08
4.3068867e-10
3.5714193e-08
4.2574804e-10
3.5476268e-08
4.2069812e-10
3.5240969e-08
4.159585e-10
3.5008357e-08
4.1108604e-10
3.4778268e-08
4.0653671e-10
3.4550778e-08
4.0183005e-10
3.4325716e-08
3.9746116e-10
3.4103168e-08
3.9290941e-10
3.3882956e-08
3.8871175e-10
3.3665182e-08
3.8430444e-10
3.3449656e-08
3.8026941e-10
3.3236495e-08
3.7599679e-10
3.3025498e-08
3.7211649e-10
3.28168e-08
3.6796917e-10
3.2610186e-08
3.6423614e-10
3.2405808e-08
3.6020498e-10
3.2203439e-08
3.5661202e-10
3.2003248e-08
3.5268811e-10
3.1804993e-08
3.4922848e-10
3.1608862e-08
3.4540347e-10
3.1414598e-08
3.4207114e-10
3.1222411e-08
3.3833684e-10
3.1032023e-08
3.3512578e-10
3.0843667e-08
3.3147377e-10
3.0657048e-08
3.2837809e-10
3.0472422e-08
3.2480042e-10
3.0289471e-08
3.2181487e-10
3.0108478e-08
3.1830335e-10
2.9929102e-08
3.154225e-10
2.9751653e-08
3.1196906e-10
2.9575766e-08
3.0918829e-10
2.940178e-08
3.0578481e-10
2.9229302e-08
3.0309862e-10
2.9058706e-08
2.9973629e-10
2.8889566e-08
2.9714006e-10
2.8722291e-08
2.9381066e-10
2.8556424e-08
2.9129988e-10
2.8392413e-08
2.8799426e-10
2.8229763e-08
2.8556348e-10
2.8068963e-08
2.8227249e-10
2.7909479e-08
2.7991726e-10
2.7751848e-08
2.7663101e-10
2.7595491e-08
2.743458e-10
2.7440993e-08
2.710548e-10
2.728773e-08
2.6883471e-10
2.7136339e-08
2.6552813e-10
2.6986146e-08
2.6336706e-10
2.6837847e-08
2.6003384e-10
2.6690711e-08
2.5792629e-10
2.6545496e-08
2.5455552e-10
2.6401411e-08
2.5249525e-10
2.6259285e-08
2.4907417e-10
2.6118258e-08
2.4705509e-10
2.5979235e-08
2.4357186e-10
2.5841283e-08
2.4158783e-10
2.5705388e-08
2.3802841e-10
2.557054e-08
2.3607424e-10
2.5437811e-08
2.3242511e-10
2.5306105e-08
2.3049552e-10
2.517659e-08
2.2674257e-10
2.5048076e-08
2.2483299e-10
2.4921834e-08
2.209651e-10
2.4796571e-08
2.1906859e-10
2.4673671e-08
2.1507815e-10
2.4551729e-08
2.1318668e-10
2.4432245e-08
2.0907184e-10
2.43137e-08
2.0717797e-10
2.4197713e-08
2.0293891e-10
2.4082643e-08
2.0104076e-10
2.3970235e-08
1.9667928e-10
2.3858714e-08
1.9478427e-10
2.3749961e-08
1.9030672e-10
2.3642056e-08
1.884275e-10
2.353702e-08
1.8385596e-10
2.3432775e-08
1.8200665e-10
2.3331491e-08
1.7738463e-10
2.3230918e-08
1.7558952e-10
2.3133375e-08
1.7097945e-10
2.3036428e-08
1.6929117e-10
2.2942547e-08
1.6478106e-10
2.2849087e-08
1.6328657e-10
2.2758675e-08
1.5902016e-10
2.2668422e-08
1.5785624e-10
2.2581101e-08
1.5406328e-10
2.2493553e-08
1.5345311e-10
2.24086e-08
1.505245e-10
2.232304e-08
1.505285e-10
1.518353e-10
9.3183277e-08
2.53641e-09
-9.3184264e-08
9.3404795e-08
3.2295828e-09
9.368729e-08
3.9884441e-09
9.3890355e-08
4.4647485e-09
9.4015735e-08
4.7059774e-09
9.4131649e-08
4.8520601e-09
9.4277323e-08
5.0061171e-09
9.4448149e-08
5.1988799e-09
9.4624721e-08
5.3902292e-09
9.4789036e-08
5.5409712e-09
9.4929909e-08
5.6287424e-09
9.5040352e-08
5.6428961e-09
9.5111021e-08
5.5825709e-09
9.5132524e-08
5.4470505e-09
9.5097533e-08
5.2383243e-09
9.5000738e-08
4.9657823e-09
9.4841569e-08
4.6459203e-09
9.4625042e-08
4.3018326e-09
9.4360624e-08
3.9593658e-09
9.4059196e-08
3.6416074e-09
9.3730556e-08
3.3640938e-09
9.3381827e-08
3.1334691e-09
9.301801e-08
2.9488104e-09
9.26431e-08
2.8045057e-09
9.2258261e-08
2.6927359e-09
9.1863999e-08
2.6061526e-09
9.1461327e-08
2.5393548e-09
9.1050635e-08
2.4876528e-09
9.0631664e-08
2.4465079e-09
9.0203886e-08
2.4119086e-09
8.9766819e-08
2.3807803e-09
8.9320171e-08
2.3510094e-09
8.8863849e-08
2.3213094e-09
8.8397952e-08
2.2909545e-09
8.7922734e-08
2.2596325e-09
8.7438581e-08
2.2272664e-09
8.6945981e-08
2.1939662e-09
8.6445501e-08
2.1599102e-09
8.5937753e-08
2.1253483e-09
8.5423384e-08
2.0905094e-09
8.4903044e-08
2.0556399e-09
8.4377391e-08
2.0209257e-09
8.3847062e-08
1.9865554e-09
8.3312684e-08
1.9526461e-09
8.2774855e-08
1.9193238e-09
8.2234154e-08
1.8866379e-09
8.1691125e-08
1.8546606e-09
8.1146295e-08
1.8234017e-09
8.0600154e-08
1.7929048e-09
8.0053177e-08
1.7631441e-09
7.95058e-08
1.7341418e-09
7.8958446e-08
1.7058506e-09
7.8411502e-08
1.6782837e-09
7.7865345e-08
1.651381e-09
7.7320315e-08
1.6251547e-09
7.6776745e-08
1.5995377e-09
7.6234931e-08
1.5745455e-09
7.5695166e-08
1.5501074e-09
7.5157705e-08
1.526246e-09
7.4622802e-08
1.5028881e-09
7.4090675e-08
1.4800654e-09
7.3561543e-08
1.4577021e-09
7.3035586e-08
1.4358401e-09
7.2512991e-08
1.4144008e-09
7.1993906e-08
1.3934362e-09
7.1478488e-08
1.3728642e-09
7.096685e-08
1.3527466e-09
7.0459123e-08
1.3329961e-09
6.9955394e-08
1.3136848e-09
6.9455767e-08
1.2947182e-09
6.8960301e-08
1.2761789e-09
6.8469082e-08
1.2579642e-09
6.7982143e-08
1.2401674e-09
6.7499551e-08
1.2226761e-09
6.7021318e-08
1.2055948e-09
6.6547496e-08
1.1887999e-09
6.6078077e-08
1.172408e-09
6.5613101e-08
1.156283e-09
6.5152543e-08
1.1405543e-09
6.4696431e-08
1.1250727e-09
6.4244729e-08
1.1099816e-09
6.3797454e-08
1.0951166e-09
6.3354558e-08
1.0806366e-09
6.2916054e-08
1.0663613e-09
6.2481881e-08
1.0524663e-09
6.205205e-08
1.0387535e-09
6.1626489e-08
1.0254175e-09
6.1205207e-08
1.012241e-09
6.0788124e-08
9.9943871e-10
6.037525e-08
9.8677235e-10
5.9966497e-08
9.7447892e-10
5.9561874e-08
9.6229727e-10
5.9161286e-08
9.5048855e-10
5.8764747e-08
9.387669e-10
5.8372154e-08
9.274199e-10
5.7983526e-08
9.1613471e-10
5.7598751e-08
9.0522767e-10
5.7217853e-08
8.9435645e-10
5.6840715e-08
8.8386866e-10
5.6467367e-08
8.7338983e-10
5.6097684e-08
8.6330151e-10
5.5731704e-08
8.5319431e-10
5.5369293e-08
8.4348683e-10
5.5010499e-08
8.337317e-10
5.4655179e-08
8.2438751e-10
5.4303391e-08
8.1496569e-10
5.3954983e-08
8.059683e-10
5.3610023e-08
7.9686184e-10
5.3268352e-08
7.8819553e-10
5.2930046e-08
7.7938727e-10
5.2594937e-08
7.7103722e-10
5.2263115e-08
7.6251072e-10
5.19344e-08
7.5446307e-10
5.1608895e-08
7.4620274e-10
5.1286409e-08
7.3844451e-10
5.096706e-08
7.3043517e-10
5.0650643e-08
7.2295388e-10
5.0337292e-08
7.1518084e-10
5.0026788e-08
7.0796483e-10
4.9719284e-08
7.0041404e-10
4.9414543e-08
6.9345223e-10
4.9112738e-08
6.861099e-10
4.8813615e-08
6.7939188e-10
4.8517367e-08
6.7224486e-10
4.8223723e-08
6.6576089e-10
4.7932896e-08
6.5879626e-10
4.7644595e-08
6.5253707e-10
4.7359058e-08
6.4574197e-10
4.7075971e-08
6.3969847e-10
4.6795599e-08
6.3306008e-10
4.6517604e-08
6.272237e-10
4.6242278e-08
6.2072971e-10
4.5969256e-08
6.150928e-10
4.5698862e-08
6.0873097e-10
4.5430702e-08
6.0328569e-10
4.5165133e-08
5.970431e-10
4.4901729e-08
5.9178184e-10
4.4640884e-08
5.8564606e-10
4.4382136e-08
5.8056201e-10
4.412592e-08
5.7451993e-10
4.3871737e-08
5.696059e-10
4.3620061e-08
5.6364447e-10
4.3370355e-08
5.5889451e-10
4.3123139e-08
5.5300023e-10
4.2877831e-08
5.4840699e-10
4.2635002e-08
5.4256501e-10
4.239402e-08
5.3812248e-10
4.2155512e-08
5.323187e-10
4.1918791e-08
5.2802084e-10
4.1684546e-08
5.2223921e-10
4.1452031e-08
5.1807891e-10
4.1222e-08
5.1230328e-10
4.0993642e-08
5.082745e-10
4.0767787e-08
5.0248697e-10
4.054355e-08
4.9858246e-10
4.0321839e-08
4.9276548e-10
4.0101695e-08
4.8897876e-10
3.9884111e-08
4.8311212e-10
3.9668043e-08
4.7943489e-10
3.9454579e-08
4.7349776e-10
3.9242583e-08
4.6992297e-10
3.9033244e-08
4.6389383e-10
3.8825327e-08
4.6041291e-10
3.8620134e-08
4.5426731e-10
3.8416316e-08
4.5087252e-10
3.8215302e-08
4.4458625e-10
3.801562e-08
4.4126935e-10
3.7818834e-08
4.3481489e-10
3.7623338e-08
4.3156951e-10
3.7430845e-08
4.2491899e-10
3.7239602e-08
4.2173856e-10
3.7051481e-08
4.148629e-10
3.6864572e-08
4.1174265e-10
3.6680921e-08
4.0461585e-10
3.6498441e-08
4.0154837e-10
3.6319371e-08
3.9414855e-10
3.6141431e-08
3.9112634e-10
3.5967064e-08
3.8343894e-10
3.5793785e-08
3.8045658e-10
3.5624254e-08
3.7246964e-10
3.5455764e-08
3.6953115e-10
3.5291208e-08
3.6123532e-10
3.5127632e-08
3.5835973e-10
3.4968187e-08
3.4975234e-10
3.4809645e-08
3.4696983e-10
3.465543e-08
3.3807015e-10
3.4502019e-08
3.3541801e-10
3.4353128e-08
3.2627598e-10
3.4204906e-08
3.2381147e-10
3.4061378e-08
3.1450715e-10
3.3918337e-08
3.1233247e-10
3.3780129e-08
3.0298869e-10
3.3642157e-08
3.0125903e-10
3.3509085e-08
2.9209212e-10
3.3375913e-08
2.9102787e-10
3.3247552e-08
2.8242436e-10
3.3118693e-08
2.8231172e-10
3.2994137e-08
2.7508104e-10
3.286881e-08
2.7585496e-10
2.7484431e-10
9.7099453e-08
2.5419853e-09
-9.7105028e-08
9.72274e-08
3.1016365e-09
9.7471214e-08
3.7446296e-09
9.7702135e-08
4.2338272e-09
9.7869459e-08
4.5386541e-09
9.80037e-08
4.7178188e-09
9.8154237e-08
4.8555805e-09
9.8339744e-08
5.0133722e-09
9.8549848e-08
5.1801251e-09
9.876923e-08
5.3215892e-09
9.8985482e-08
5.4124906e-09
9.9189999e-08
5.438379e-09
9.9376221e-08
5.3963493e-09
9.9536945e-08
5.2863264e-09
9.9664262e-08
5.1110079e-09
9.9751362e-08
4.8786819e-09
9.9794366e-08
4.6029165e-09
9.9793599e-08
4.3025996e-09
9.9753787e-08
3.999178e-09
9.9682516e-08
3.7128782e-09
9.9587836e-08
3.458774e-09
9.9476525e-08
3.2447797e-09
9.9353687e-08
3.0716481e-09
9.9222858e-08
2.9353357e-09
9.908571e-08
2.8298834e-09
9.8943036e-08
2.7488266e-09
9.879568e-08
2.6867109e-09
9.8644156e-08
2.6391772e-09
9.8488314e-08
2.6023498e-09
9.8327506e-08
2.5727166e-09
9.8160878e-08
2.5474083e-09
9.7987602e-08
2.5242853e-09
9.7806959e-08
2.5019524e-09
9.7618372e-08
2.4795412e-09
9.7421391e-08
2.4566142e-09
9.7215694e-08
2.4329633e-09
9.7001065e-08
2.408595e-09
9.6777394e-08
2.383581e-09
9.6544645e-08
2.3580979e-09
9.6302856e-08
2.3322979e-09
9.6052111e-08
2.3063852e-09
9.5792542e-08
2.2804941e-09
9.5524303e-08
2.2547945e-09
9.5247581e-08
2.2293683e-09
9.4962568e-08
2.2043366e-09
9.4669482e-08
2.1797245e-09
9.4368531e-08
2.1556112e-09
9.4059951e-08
2.1319816e-09
9.3743965e-08
2.1088909e-09
9.3420818e-08
2.0862915e-09
9.3090738e-08
2.0642211e-09
9.2753979e-08
2.0426098e-09
9.2410773e-08
2.0214892e-09
9.2061379e-08
2.000775e-09
9.1706033e-08
1.9805007e-09
9.1344998e-08
1.960573e-09
9.0978511e-08
1.9410323e-09
9.0606839e-08
1.9217793e-09
9.023022e-08
1.902865e-09
8.9848923e-08
1.8841854e-09
8.9463183e-08
1.8658048e-09
8.9073271e-08
1.8476142e-09
8.8679419e-08
1.8296923e-09
8.8281895e-08
1.8119246e-09
8.7880927e-08
1.7944051e-09
8.7476778e-08
1.7770124e-09
8.7069669e-08
1.7598557e-09
8.6659861e-08
1.7428049e-09
8.624756e-08
1.725985e-09
8.5833024e-08
1.7092548e-09
8.5416447e-08
1.6927557e-09
8.4998078e-08
1.6763336e-09
8.4578098e-08
1.660147e-09
8.4156747e-08
1.6440267e-09
8.3734193e-08
1.628149e-09
8.3310665e-08
1.6123277e-09
8.2886315e-08
1.5967581e-09
8.2461363e-08
1.5812347e-09
8.2035944e-08
1.5659736e-09
8.1610269e-08
1.5507481e-09
8.1184454e-08
1.5357964e-09
8.0758702e-08
1.5208686e-09
8.0333111e-08
1.5062272e-09
7.9907876e-08
1.4915966e-09
7.9483077e-08
1.4772658e-09
7.9058899e-08
1.4629313e-09
7.8635405e-08
1.4489113e-09
7.8212774e-08
1.4348717e-09
7.7791051e-08
1.4211621e-09
7.7370408e-08
1.4074153e-09
7.6950872e-08
1.3940153e-09
7.653261e-08
1.3805586e-09
7.6115632e-08
1.3674667e-09
7.5700103e-08
1.3542965e-09
7.5286012e-08
1.341511e-09
7.4873522e-08
1.3286239e-09
7.4462607e-08
1.3161428e-09
7.4053429e-08
1.3035345e-09
7.3645942e-08
1.2913556e-09
7.3240311e-08
1.2790215e-09
7.283647e-08
1.2671418e-09
7.2434588e-08
1.2550763e-09
7.2034583e-08
1.2434928e-09
7.1636624e-08
1.2316903e-09
7.1240612e-08
1.2203995e-09
7.0846724e-08
1.2088536e-09
7.045484e-08
1.197852e-09
7.0065146e-08
1.1865559e-09
6.9677503e-08
1.1758393e-09
6.9292104e-08
1.1647858e-09
6.8908791e-08
1.1543499e-09
6.8527771e-08
1.143531e-09
6.8148863e-08
1.1333714e-09
6.7772287e-08
1.1227792e-09
6.739784e-08
1.1128915e-09
6.7025758e-08
1.1025172e-09
6.6655815e-08
1.0928966e-09
6.6288265e-08
1.082731e-09
6.5922857e-08
1.0733726e-09
6.5559865e-08
1.0634063e-09
6.5199012e-08
1.0543052e-09
6.4840593e-08
1.0445282e-09
6.4484306e-08
1.0356794e-09
6.4130469e-08
1.0260815e-09
6.377875e-08
1.0174803e-09
6.3429495e-08
1.0080508e-09
6.308234e-08
9.9969241e-10
6.2737662e-08
9.9042002e-10
6.2395061e-08
9.8229913e-10
6.2054949e-08
9.7317179e-10
6.171689e-08
9.6528335e-10
6.138133e-08
9.5628905e-10
6.1047794e-08
9.4862868e-10
6.0716771e-08
9.397548e-10
6.0387739e-08
9.3231747e-10
6.0061232e-08
9.2354988e-10
5.9736683e-08
9.1633043e-10
5.9414674e-08
9.0765514e-10
5.9094587e-08
9.0064914e-10
5.8777057e-08
8.9205055e-10
5.846141e-08
8.8525273e-10
5.8148339e-08
8.7671486e-10
5.7837113e-08
8.7012135e-10
5.7528486e-08
8.6162705e-10
5.7221661e-08
8.5523186e-10
5.6917464e-08
8.4676156e-10
5.6615027e-08
8.4056023e-10
5.631525e-08
8.3209501e-10
5.6017188e-08
8.2608282e-10
5.5721827e-08
8.1760022e-10
5.5428135e-08
8.1177102e-10
5.513719e-08
8.0324829e-10
5.4847868e-08
7.9759698e-10
5.4561347e-08
7.8900799e-10
5.4276401e-08
7.8352791e-10
5.399432e-08
7.748466e-10
5.3713767e-08
7.6953195e-10
5.3436151e-08
7.6072787e-10
5.3160016e-08
7.555702e-10
5.2886902e-08
7.4661141e-10
5.2615221e-08
7.4160418e-10
5.2346658e-08
7.3245689e-10
5.207948e-08
7.2759091e-10
5.181553e-08
7.1821678e-10
5.1552918e-08
7.1348453e-10
5.129366e-08
7.0384445e-10
5.1035693e-08
6.9923701e-10
5.078122e-08
6.8928687e-10
5.0527992e-08
6.8479826e-10
5.0278418e-08
6.7449238e-10
5.0030041e-08
6.7011594e-10
4.9785498e-08
6.5940629e-10
4.9542102e-08
6.5513835e-10
4.9302738e-08
6.4397959e-10
4.9064473e-08
6.3981359e-10
4.8830457e-08
6.2816429e-10
4.8597488e-08
6.2409503e-10
4.8369005e-08
6.1192207e-10
4.8141514e-08
6.0794821e-10
4.7918762e-08
5.9522103e-10
4.7696938e-08
5.9135501e-10
4.7480127e-08
5.7804659e-10
4.7264165e-08
5.7432171e-10
4.7053503e-08
5.6041404e-10
4.6843592e-08
5.56881e-10
4.6639277e-08
5.4238517e-10
4.6435588e-08
5.3910744e-10
4.6237787e-08
5.2407639e-10
4.6040453e-08
5.2114609e-10
4.5849281e-08
5.0567887e-10
4.5658368e-08
5.03246e-10
4.5473845e-08
4.8751093e-10
4.5289316e-08
4.857881e-10
4.5111305e-08
4.7010346e-10
4.4932969e-08
4.6936362e-10
4.4761055e-08
4.5433816e-10
4.4588499e-08
4.5486825e-10
4.4421741e-08
4.4183912e-10
4.4254092e-08
4.4350392e-10
4.3838131e-10
1.0115474e-07
2.5428584e-09
-1.0115561e-07
1.0124024e-07
3.0161329e-09
1.014353e-07
3.549569e-09
1.0165495e-07
4.014182e-09
1.018444e-07
4.3492014e-09
1.0199809e-07
4.5641313e-09
1.0214775e-07
4.7059184e-09
1.0232111e-07
4.8400125e-09
1.0252142e-07
4.9798217e-09
1.0273754e-07
5.1054685e-09
1.0295658e-07
5.1934508e-09
1.0316826e-07
5.2266906e-09
1.0336654e-07
5.1980732e-09
1.0354596e-07
5.1069079e-09
1.0370028e-07
4.9566839e-09
1.0382402e-07
4.754945e-09
1.0391336e-07
4.5135765e-09
1.0396763e-07
4.2483254e-09
1.0398978e-07
3.97703e-09
1.0398566e-07
3.7170011e-09
1.0396227e-07
3.4821615e-09
1.0392616e-07
3.2808938e-09
1.0388233e-07
3.1154768e-09
1.0383413e-07
2.9835392e-09
1.037836e-07
2.8804134e-09
1.037319e-07
2.8005204e-09
1.036799e-07
2.7387182e-09
1.0362821e-07
2.6908653e-09
1.0357698e-07
2.6535747e-09
1.0352586e-07
2.6238338e-09
1.0347417e-07
2.5991038e-09
1.0342112e-07
2.5773396e-09
1.0336594e-07
2.5571316e-09
1.0330796e-07
2.537521e-09
1.0324657e-07
2.5179955e-09
1.0318129e-07
2.4982461e-09
1.0311167e-07
2.4782137e-09
1.0303737e-07
2.4578793e-09
1.029581e-07
2.4373712e-09
1.0287363e-07
2.4167677e-09
1.0278377e-07
2.3962464e-09
1.0268838e-07
2.3758845e-09
1.0258733e-07
2.3558447e-09
1.0248053e-07
2.3361636e-09
1.023679e-07
2.3169687e-09
1.0224938e-07
2.2982474e-09
1.0212489e-07
2.2800957e-09
1.0199442e-07
2.2624603e-09