/*--------------------------------*- C++ -*----------------------------------*\
| =========                 |                                                 |
| \\      /  F ield         | OpenFOAM: The Open Source CFD Toolbox           |
|  \\    /   O peration     | Version:  5.x                                   |
|   \\  /    A nd           | Web:      www.OpenFOAM.org                      |
|    \\/     M anipulation  |                                                 |
\*---------------------------------------------------------------------------*/
FoamFile
{
    version     2.0;
    format      ascii;
    class       volVectorField;
    location    "0.3";
    object      U;
}
// * * * * * * * * * * * * * * * * * * * * * * * * * * * * * * * * * * * * * //

dimensions      [0 1 -1 0 0 0 0];

internalField   nonuniform List<vector> 
21600
(
(0.94285633 0.0081631431 0)
(0.8962546 0.0122492 0)
(0.85178631 0.013939139 0)
(0.80667095 0.014110402 0)
(0.76006026 0.013757698 0)
(0.71214031 0.013400771 0)
(0.66352512 0.013130946 0)
(0.61485194 0.012850097 0)
(0.56666392 0.012440782 0)
(0.51947384 0.011837317 0)
(0.4738076 0.011016464 0)
(0.43027817 0.0099827418 0)
(0.38954703 0.0087423114 0)
(0.35240512 0.0073234405 0)
(0.31944558 0.0057432919 0)
(0.29112227 0.0040847681 0)
(0.26758713 0.0024997126 0)
(0.24863136 0.0011513542 0)
(0.23373823 0.00014647681 0)
(0.22223928 -0.00049883799 0)
(0.2134488 -0.00084302964 0)
(0.20672204 -0.00097234549 0)
(0.20150247 -0.000962519 0)
(0.19731537 -0.00086214441 0)
(0.19380092 -0.00071162142 0)
(0.19069936 -0.00054446828 0)
(0.18781837 -0.00038217552 0)
(0.18503041 -0.00023831005 0)
(0.18226205 -0.00011964924 0)
(0.17948041 -2.7266179e-05 0)
(0.17667872 4.129557e-05 0)
(0.17386626 8.9926637e-05 0)
(0.17105928 0.00012273056 0)
(0.16827656 0.00014345271 0)
(0.16553526 0.0001552866 0)
(0.16285036 0.00016080492 0)
(0.16023294 0.00016200903 0)
(0.15769135 0.00016038317 0)
(0.15523028 0.00015700278 0)
(0.15285251 0.00015260293 0)
(0.1505581 0.0001476814 0)
(0.14834624 0.00014254632 0)
(0.14621428 0.00013739569 0)
(0.14415957 0.00013233512 0)
(0.14217821 0.0001274336 0)
(0.14026685 0.00012271052 0)
(0.13842125 0.00011818197 0)
(0.13663807 0.00011384695 0)
(0.13491315 0.00010971527 0)
(0.13324343 0.00010577678 0)
(0.13162508 0.00010203586 0)
(0.13005548 9.8478078e-05 0)
(0.12853122 9.5105482e-05 0)
(0.12705015 9.1900069e-05 0)
(0.12560924 8.8862238e-05 0)
(0.12420683 8.5971656e-05 0)
(0.12284025 8.3228756e-05 0)
(0.12150822 8.0612415e-05 0)
(0.12020839 7.8124496e-05 0)
(0.11893986 7.5744023e-05 0)
(0.1177005 7.3474944e-05 0)
(0.11648969 7.1296707e-05 0)
(0.11530551 6.9215557e-05 0)
(0.11414759 6.7211414e-05 0)
(0.11301413 6.5292933e-05 0)
(0.11190496 6.3440419e-05 0)
(0.11081839 6.1664815e-05 0)
(0.10975439 5.994644e-05 0)
(0.10871135 5.8298195e-05 0)
(0.10768938 5.670003e-05 0)
(0.1066869 5.5166639e-05 0)
(0.10570414 5.3677398e-05 0)
(0.10473956 5.2248719e-05 0)
(0.10379347 5.0859167e-05 0)
(0.10286436 4.952673e-05 0)
(0.10195264 4.8228925e-05 0)
(0.10105678 4.6985248e-05 0)
(0.10017729 4.5772037e-05 0)
(0.099312665 4.4610318e-05 0)
(0.09846346 4.3475151e-05 0)
(0.097628191 4.2389116e-05 0)
(0.096807479 4.1325921e-05 0)
(0.095999849 4.0309795e-05 0)
(0.095205978 3.9312987e-05 0)
(0.094424406 3.8361361e-05 0)
(0.093655855 3.742565e-05 0)
(0.092898886 3.6533493e-05 0)
(0.092154256 3.5654069e-05 0)
(0.09142055 3.4816848e-05 0)
(0.090698549 3.3989332e-05 0)
(0.089986872 3.3202855e-05 0)
(0.08928631 3.2423159e-05 0)
(0.088595525 3.168354e-05 0)
(0.087915302 3.0947935e-05 0)
(0.087244358 3.0251685e-05 0)
(0.086583456 2.9556828e-05 0)
(0.085931382 2.8900809e-05 0)
(0.085288858 2.8243689e-05 0)
(0.084654754 2.7625087e-05 0)
(0.084029731 2.7002994e-05 0)
(0.083412761 2.6419245e-05 0)
(0.082804421 2.5829669e-05 0)
(0.082203809 2.5278388e-05 0)
(0.081611389 2.4719025e-05 0)
(0.081026413 2.4198051e-05 0)
(0.0804492 2.3666828e-05 0)
(0.079879185 2.3174216e-05 0)
(0.07931651 2.2669253e-05 0)
(0.078760829 2.2203206e-05 0)
(0.078212065 2.1722738e-05 0)
(0.07767013 2.1281549e-05 0)
(0.077134687 2.0823938e-05 0)
(0.076605952 2.0406087e-05 0)
(0.076083275 1.9969913e-05 0)
(0.075567229 1.9574011e-05 0)
(0.075056793 1.9157881e-05 0)
(0.074552959 1.8782531e-05 0)
(0.074054269 1.8385136e-05 0)
(0.073562201 1.8029134e-05 0)
(0.07307479 1.7649373e-05 0)
(0.072594074 1.7311587e-05 0)
(0.072117499 1.6948336e-05 0)
(0.071647749 1.6627629e-05 0)
(0.07118159 1.6279897e-05 0)
(0.070722447 1.5975301e-05 0)
(0.070266304 1.5642189e-05 0)
(0.069817436 1.5352738e-05 0)
(0.069370927 1.5033377e-05 0)
(0.068932029 1.4758164e-05 0)
(0.068494793 1.445177e-05 0)
(0.068065582 1.4189922e-05 0)
(0.067637272 1.3895752e-05 0)
(0.067217492 1.3646468e-05 0)
(0.066797777 1.3363893e-05 0)
(0.066387195 1.3126433e-05 0)
(0.065975756 1.2854775e-05 0)
(0.065574163 1.2628334e-05 0)
(0.065170695 1.2367047e-05 0)
(0.064777907 1.2150978e-05 0)
(0.064382115 1.1899538e-05 0)
(0.063997972 1.1693099e-05 0)
(0.063609574 1.1450954e-05 0)
(0.063233941 1.1253583e-05 0)
(0.062852659 1.1020359e-05 0)
(0.062485427 1.0831328e-05 0)
(0.062110995 1.0606535e-05 0)
(0.061752082 1.0425227e-05 0)
(0.061384242 1.0208535e-05 0)
(0.061033592 1.0034436e-05 0)
(0.060672088 9.8255046e-06 0)
(0.060329677 9.6578256e-06 0)
(0.059974261 9.4563612e-06 0)
(0.059640094 9.2946445e-06 0)
(0.059290521 9.1003965e-06 0)
(0.058964638 8.9438476e-06 0)
(0.058620665 8.7566983e-06 0)
(0.058303141 8.6047434e-06 0)
(0.057964526 8.424587e-06 0)
(0.057655471 8.2764529e-06 0)
(0.057321974 8.1031544e-06 0)
(0.057021545 7.9581209e-06 0)
(0.056692921 7.7918743e-06 0)
(0.056401313 7.6492096e-06 0)
(0.056077313 7.4898937e-06 0)
(0.055794774 7.3487795e-06 0)
(0.055475143 7.1967132e-06 0)
(0.055201967 7.0564273e-06 0)
(0.054886441 6.9115605e-06 0)
(0.054622979 6.7714092e-06 0)
(0.054311277 6.634033e-06 0)
(0.054057937 6.4932764e-06 0)
(0.05374976 6.3635908e-06 0)
(0.053507013 6.2213155e-06 0)
(0.053202032 6.1002592e-06 0)
(0.052970413 5.9549567e-06 0)
(0.052668263 5.8440222e-06 0)
(0.052448376 5.6935697e-06 0)
(0.052148642 5.5950238e-06 0)
(0.051941159 5.4372182e-06 0)
(0.05164336 5.3531718e-06 0)
(0.051449022 5.1862863e-06 0)
(0.051152594 5.1184727e-06 0)
(0.050972207 4.9415515e-06 0)
(0.05067647 4.8918814e-06 0)
(0.050510906 4.7033181e-06 0)
(0.050215023 4.6756705e-06 0)
(0.050065205 4.4722374e-06 0)
(0.049768134 4.472685e-06 0)
(0.049635022 4.2505049e-06 0)
(0.049335436 4.2859993e-06 0)
(0.049220013 4.0422448e-06 0)
(0.048916162 4.1213567e-06 0)
(0.048819409 3.852511e-06 0)
(0.048508894 3.9894634e-06 0)
(0.048431773 3.689638e-06 0)
(0.048111121 3.9068357e-06 0)
(0.048054664 3.5665667e-06 0)
(0.04771835 3.8962516e-06 0)
(0.047685131 3.4753391e-06 0)
(0.047321391 4.1533543e-06 0)
(0.97296415 0.015505773 0)
(0.97177526 0.022703635 0)
(0.97036714 0.026284396 0)
(0.96736481 0.027304998 0)
(0.96176041 0.02731675 0)
(0.9532658 0.02725596 0)
(0.94206238 0.027363491 0)
(0.92849687 0.027518742 0)
(0.91286782 0.027533777 0)
(0.8954544 0.027288025 0)
(0.87647889 0.026719278 0)
(0.85621109 0.025803036 0)
(0.83492381 0.024518732 0)
(0.81300986 0.022862596 0)
(0.79082059 0.02084301 0)
(0.76875317 0.01852413 0)
(0.74717478 0.016037827 0)
(0.72636145 0.013552972 0)
(0.70649492 0.011233386 0)
(0.68766318 0.0091938478 0)
(0.66991179 0.0074866551 0)
(0.65322705 0.0061080291 0)
(0.63758155 0.0050263932 0)
(0.62289595 0.0041964919 0)
(0.60908421 0.0035766388 0)
(0.59606978 0.0031306677 0)
(0.58376132 0.0028205491 0)
(0.57207319 0.0026080013 0)
(0.56093144 0.0024592512 0)
(0.5502781 0.0023483485 0)
(0.5400671 0.002257623 0)
(0.53026428 0.00217614 0)
(0.52084215 0.002097784 0)
(0.5117804 0.0020195538 0)
(0.50306115 0.0019404139 0)
(0.49467057 0.0018604252 0)
(0.48659463 0.0017802585 0)
(0.47882171 0.0017007873 0)
(0.47133868 0.0016229308 0)
(0.46413426 0.0015474653 0)
(0.45719516 0.001475031 0)
(0.45051 0.0014060445 0)
(0.44406532 0.0013407848 0)
(0.43784993 0.0012793398 0)
(0.43185059 0.001221722 0)
(0.42605669 0.0011678094 0)
(0.42045567 0.0011174603 0)
(0.41503794 0.0010704478 0)
(0.40979184 0.0010265714 0)
(0.40470896 0.00098556777 0)
(0.39977872 0.0009472301 0)
(0.39499399 0.0009113036 0)
(0.39034528 0.0008776069 0)
(0.38582673 0.0008459116 0)
(0.38142985 0.00081607092 0)
(0.37714997 0.00078788629 0)
(0.3729795 0.00076124622 0)
(0.36891481 0.00073598012 0)
(0.36494908 0.00071200894 0)
(0.36107957 0.00068918605 0)
(0.35730008 0.00066746072 0)
(0.35360865 0.00064670536 0)
(0.34999956 0.0006268931 0)
(0.34647149 0.00060791068 0)
(0.34301911 0.000589751 0)
(0.33964163 0.00057231081 0)
(0.33633401 0.00055559917 0)
(0.33309591 0.00053951892 0)
(0.32992251 0.0005240922 0)
(0.32681384 0.00050922477 0)
(0.32376526 0.00049494969 0)
(0.32077713 0.00048117339 0)
(0.31784493 0.00046793851 0)
(0.3149693 0.00045515047 0)
(0.31214583 0.00044286053 0)
(0.30937543 0.00043097164 0)
(0.30665374 0.000419543 0)
(0.3039819 0.00040847415 0)
(0.30135566 0.00039783217 0)
(0.29877632 0.00038751256 0)
(0.29623971 0.00037759021 0)
(0.2937473 0.00036795577 0)
(0.29129501 0.0003586921 0)
(0.28888443 0.00034968461 0)
(0.28651158 0.00034102441 0)
(0.28417816 0.00033259119 0)
(0.28188027 0.00032448458 0)
(0.27961969 0.00031657811 0)
(0.27739266 0.00030898017 0)
(0.27520096 0.0003015575 0)
(0.27304099 0.00029442756 0)
(0.27091452 0.00028744974 0)
(0.26881812 0.0002807509 0)
(0.26675351 0.00027418265 0)
(0.26471747 0.0002678817 0)
(0.26271159 0.00026169132 0)
(0.26073293 0.00025575844 0)
(0.25878289 0.00024991739 0)
(0.25685885 0.00024432563 0)
(0.25496196 0.00023880801 0)
(0.25308999 0.00023353293 0)
(0.25124375 0.00022831515 0)
(0.24942147 0.00022333445 0)
(0.24762354 0.00021839503 0)
(0.24584873 0.00021368849 0)
(0.24409693 0.0002090079 0)
(0.24236755 0.00020455708 0)
(0.24065983 0.00020011744 0)
(0.23897396 0.00019590543 0)
(0.2373084 0.00019169029 0)
(0.23566424 0.00018770153 0)
(0.23403905 0.00018369577 0)
(0.23243494 0.00017991602 0)
(0.23084842 0.00017610586 0)
(0.2292828 0.00017252205 0)
(0.22773335 0.00016889463 0)
(0.22620477 0.00016549447 0)
(0.22469087 0.00016203781 0)
(0.22319798 0.00015881014 0)
(0.22171822 0.00015551344 0)
(0.22025976 0.00015244788 0)
(0.21881278 0.00014930082 0)
(0.21738757 0.0001463876 0)
(0.21597209 0.00014338082 0)
(0.21457904 0.00014061108 0)
(0.21319385 0.00013773584 0)
(0.21183196 0.00013510115 0)
(0.21047589 0.00013234921 0)
(0.20914424 0.0001298417 0)
(0.20781617 0.00012720541 0)
(0.20651391 0.00012481769 0)
(0.2052128 0.00012228994 0)
(0.20393914 0.00012001523 0)
(0.20266398 0.00011758946 0)
(0.20141822 0.00011542133 0)
(0.20016804 0.00011309111 0)
(0.19894954 0.00011102327 0)
(0.19772341 0.00010878279 0)
(0.19653163 0.00010680968 0)
(0.19532864 0.0001046534 0)
(0.19416309 0.00010276944 0)
(0.19298238 0.000100692 0)
(0.19184266 9.8892261e-05 0)
(0.19068339 9.6888869e-05 0)
(0.18956918 9.5168162e-05 0)
(0.18843052 9.3233867e-05 0)
(0.18734157 9.1587544e-05 0)
(0.18622274 8.9718055e-05 0)
(0.1851589 8.8141895e-05 0)
(0.18405912 8.6332885e-05 0)
(0.18302031 8.4821996e-05 0)
(0.18193882 8.3069433e-05 0)
(0.18092507 8.1620009e-05 0)
(0.17986112 7.9920019e-05 0)
(0.17887257 7.8527458e-05 0)
(0.17782543 7.6876702e-05 0)
(0.17686231 7.5537115e-05 0)
(0.17583124 7.3932175e-05 0)
(0.17489392 7.2641153e-05 0)
(0.17387818 7.1078759e-05 0)
(0.17296714 6.9832247e-05 0)
(0.171966 6.8310006e-05 0)
(0.17108187 6.710392e-05 0)
(0.17009459 6.5618653e-05 0)
(0.16923814 6.4448867e-05 0)
(0.16826395 6.2998692e-05 0)
(0.16743612 6.1861424e-05 0)
(0.16647423 6.0443494e-05 0)
(0.16567613 5.9335315e-05 0)
(0.16472571 5.7947797e-05 0)
(0.16395864 5.6865305e-05 0)
(0.16301882 5.5506311e-05 0)
(0.16228426 5.4446004e-05 0)
(0.16135408 5.3115916e-05 0)
(0.16065374 5.2072729e-05 0)
(0.15973216 5.0773973e-05 0)
(0.15906794 4.9741444e-05 0)
(0.15815376 4.8479324e-05 0)
(0.15752782 4.7450936e-05 0)
(0.15661968 4.623105e-05 0)
(0.15603439 4.5202247e-05 0)
(0.15513066 4.4029907e-05 0)
(0.15458864 4.299934e-05 0)
(0.1536874 4.1881103e-05 0)
(0.15319145 4.0847e-05 0)
(0.15229034 3.9796166e-05 0)
(0.15184349 3.8753576e-05 0)
(0.15093956 3.7791678e-05 0)
(0.15054502 3.6735764e-05 0)
(0.14963453 3.5889377e-05 0)
(0.14929565 3.4821954e-05 0)
(0.14837373 3.4125017e-05 0)
(0.14809399 3.3052431e-05 0)
(0.147154 3.2558594e-05 0)
(0.14693704 3.1492378e-05 0)
(0.14596956 3.1281545e-05 0)
(0.14581945 3.0253524e-05 0)
(0.14480989 3.0411364e-05 0)
(0.14473363 2.9455156e-05 0)
(0.14365726 3.1025939e-05 0)
(0.97629288 0.015441377 0)
(0.97665295 0.020972927 0)
(0.9785318 0.024705909 0)
(0.98109817 0.026462036 0)
(0.98335244 0.027134569 0)
(0.9847259 0.027564621 0)
(0.98506886 0.028129402 0)
(0.98447418 0.02880943 0)
(0.98305933 0.029431766 0)
(0.9808913 0.029834325 0)
(0.97795751 0.02991105 0)
(0.97421337 0.029595461 0)
(0.96960178 0.02884849 0)
(0.96409365 0.027651157 0)
(0.95769419 0.026027671 0)
(0.95045624 0.024049409 0)
(0.942485 0.021840608 0)
(0.93390607 0.019557326 0)
(0.92486558 0.01735854 0)
(0.91549984 0.015366974 0)
(0.90594596 0.013652149 0)
(0.89631082 0.012227789 0)
(0.88668679 0.011072404 0)
(0.87712288 0.01014394 0)
(0.86764798 0.0094008417 0)
(0.85827885 0.008808867 0)
(0.8490058 0.0083349878 0)
(0.8398145 0.007947312 0)
(0.83069026 0.0076177871 0)
(0.8216247 0.0073244545 0)
(0.81261228 0.0070521026 0)
(0.80365362 0.0067912705 0)
(0.79475055 0.0065367897 0)
(0.78590962 0.0062862641 0)
(0.77713688 0.0060390702 0)
(0.76844173 0.0057955303 0)
(0.75983156 0.0055565238 0)
(0.75131618 0.0053230774 0)
(0.74290226 0.0050962737 0)
(0.73459847 0.0048770216 0)
(0.72640972 0.0046661098 0)
(0.71834289 0.0044640583 0)
(0.71040085 0.0042712494 0)
(0.70258862 0.0040878088 0)
(0.6949071 0.0039137757 0)
(0.68735969 0.0037489838 0)
(0.67994562 0.0035932545 0)
(0.67266704 0.0034462359 0)
(0.66552178 0.0033075986 0)
(0.65851099 0.00317687 0)
(0.65163146 0.0030536517 0)
(0.64488365 0.0029374292 0)
(0.63826357 0.0028278011 0)
(0.63177122 0.0027242604 0)
(0.62540204 0.0026264391 0)
(0.61915582 0.0025338626 0)
(0.61302758 0.002446215 0)
(0.60701703 0.002363066 0)
(0.60111893 0.0022841587 0)
(0.59533302 0.002209109 0)
(0.58965392 0.0021377191 0)
(0.58408146 0.0020696472 0)
(0.57861018 0.0020047506 0)
(0.57324008 0.0019427241 0)
(0.56796569 0.0018834741 0)
(0.5627872 0.0018267245 0)
(0.55769914 0.0017724243 0)
(0.55270192 0.0017203181 0)
(0.5477901 0.0016703909 0)
(0.54296432 0.0016224015 0)
(0.53821921 0.0015763659 0)
(0.5335556 0.0015320512 0)
(0.5289682 0.0014895011 0)
(0.52445805 0.0014484859 0)
(0.52001992 0.0014090737 0)
(0.51565505 0.0013710345 0)
(0.51135831 0.0013344587 0)
(0.50713108 0.0012991126 0)
(0.50296837 0.0012651084 0)
(0.49887164 0.0012322065 0)
(0.49483608 0.00120054 0)
(0.4908632 0.0011698615 0)
(0.48694838 0.0011403247 0)
(0.48309315 0.0011116721 0)
(0.4792931 0.0010840786 0)
(0.47554972 0.0010572755 0)
(0.47185887 0.0010314592 0)
(0.46822192 0.001006348 0)
(0.46463507 0.00098216035 0)
(0.46109952 0.00095859989 0)
(0.45761182 0.00093590769 0)
(0.45417292 0.000913771 0)
(0.45077984 0.00089245445 0)
(0.44743318 0.00087162748 0)
(0.44413048 0.00085157917 0)
(0.4408719 0.00083195947 0)
(0.43765563 0.00081308292 0)
(0.43448125 0.0007945783 0)
(0.43134769 0.00077678655 0)
(0.42825385 0.00075931351 0)
(0.42519953 0.00074252771 0)
(0.42218278 0.00072601043 0)
(0.41920444 0.00071015912 0)
(0.41626156 0.0006945288 0)
(0.41335614 0.00067954712 0)
(0.41048406 0.00066474109 0)
(0.4076487 0.00065056992 0)
(0.40484454 0.00063653085 0)
(0.40207655 0.00062311605 0)
(0.39933758 0.00060979132 0)
(0.39663443 0.00059708334 0)
(0.39395807 0.00058442472 0)
(0.3913174 0.00057237823 0)
(0.38870121 0.00056034145 0)
(0.38612079 0.0005489147 0)
(0.38356244 0.00053745872 0)
(0.3810402 0.00052661306 0)
(0.37853749 0.00051569992 0)
(0.37607148 0.00050539982 0)
(0.37362229 0.00049499457 0)
(0.3712107 0.0004852072 0)
(0.36881304 0.0004752772 0)
(0.36645416 0.00046597203 0)
(0.36410613 0.00045648719 0)
(0.36179839 0.00044763617 0)
(0.35949815 0.00043856848 0)
(0.35724008 0.00043014533 0)
(0.35498588 0.00042146836 0)
(0.35277614 0.00041344845 0)
(0.3505663 0.0004051375 0)
(0.34840364 0.00039749795 0)
(0.34623655 0.00038953021 0)
(0.34411986 0.00038224996 0)
(0.34199396 0.00037460393 0)
(0.3399222 0.00036766298 0)
(0.33783599 0.00036031798 0)
(0.33580827 0.00035369734 0)
(0.33376031 0.00034663428 0)
(0.33177582 0.00034031662 0)
(0.32976469 0.00033351719 0)
(0.32782277 0.00032748574 0)
(0.3258471 0.00032093263 0)
(0.32394718 0.00031517223 0)
(0.32200565 0.00030884902 0)
(0.32014729 0.0003033443 0)
(0.3182386 0.00029723476 0)
(0.31642149 0.00029197192 0)
(0.31454436 0.0002860613 0)
(0.31276834 0.00028102742 0)
(0.31092152 0.00027530086 0)
(0.30918656 0.00027048238 0)
(0.30736881 0.00026492587 0)
(0.30567504 0.00026031116 0)
(0.30388514 0.00025491088 0)
(0.30223286 0.00025048749 0)
(0.30046959 0.00024523084 0)
(0.29885929 0.00024098772 0)
(0.29712144 0.0002358617 0)
(0.29555378 0.00023178697 0)
(0.29384013 0.00022677919 0)
(0.29231601 0.00022286225 0)
(0.29062533 0.00021796155 0)
(0.28914587 0.00021419151 0)
(0.28747691 0.00020938564 0)
(0.28604348 0.00020575232 0)
(0.28439496 0.00020103107 0)
(0.28300921 0.00019752478 0)
(0.28137981 0.00019287657 0)
(0.28004367 0.00018948898 0)
(0.278432 0.00018490378 0)
(0.27714773 0.00018162688 0)
(0.27555233 0.00017709497 0)
(0.27432251 0.00017392154 0)
(0.27274181 0.00016943698 0)
(0.27156939 0.00016635778 0)
(0.27000164 0.00016191861 0)
(0.26888998 0.00015892322 0)
(0.26733322 0.00015453316 0)
(0.26628605 0.00015161178 0)
(0.26473804 0.00014727626 0)
(0.26375952 0.00014442377 0)
(0.26221765 0.00014014923 0)
(0.26131235 0.00013736793 0)
(0.25977351 0.00013316419 0)
(0.2589464 0.00013045902 0)
(0.25740682 0.00012634855 0)
(0.25666326 0.00012372311 0)
(0.25511829 0.00011974467 0)
(0.25446404 0.00011720775 0)
(0.25290777 0.00011341234 0)
(0.25234894 0.00011099167 0)
(0.25077376 0.00010744615 0)
(0.25031676 0.00010519071 0)
(0.24871256 0.0001019985 0)
(0.2483641 9.9990218e-05 0)
(0.24671695 9.7300824e-05 0)
(0.24648411 9.5702631e-05 0)
(0.24477403 9.370023e-05 0)
(0.24466456 9.2639777e-05 0)
(0.24286571 9.3811398e-05 0)
(0.97887429 0.014903215 0)
(0.97901205 0.018985624 0)
(0.98037849 0.022345484 0)
(0.98270509 0.024443536 0)
(0.98538847 0.025553944 0)
(0.98789838 0.026234038 0)
(0.99001399 0.026883298 0)
(0.99177314 0.027612147 0)
(0.99331306 0.028332407 0)
(0.99473961 0.028894585 0)
(0.99607185 0.029171894 0)
(0.99725056 0.029079216 0)
(0.99816998 0.028570995 0)
(0.99870601 0.027635713 0)
(0.99874531 0.026304461 0)
(0.99820126 0.024648685 0)
(0.9970288 0.022776015 0)
(0.99522534 0.020817917 0)
(0.99283232 0.01890736 0)
(0.98992554 0.01715447 0)
(0.98660402 0.015627435 0)
(0.98297204 0.014351079 0)
(0.97912355 0.013314197 0)
(0.9751319 0.012487241 0)
(0.97104466 0.011832016 0)
(0.96688918 0.011310169 0)
(0.96267089 0.010888984 0)
(0.958386 0.010540851 0)
(0.95402488 0.010242804 0)
(0.94957965 0.0099765428 0)
(0.94504186 0.0097286147 0)
(0.94040711 0.0094898772 0)
(0.9356712 0.0092547707 0)
(0.93083435 0.009020249 0)
(0.92589674 0.0087850876 0)
(0.92086265 0.0085491165 0)
(0.9157355 0.0083129173 0)
(0.91052215 0.0080773528 0)
(0.90522776 0.0078435166 0)
(0.8998604 0.007612415 0)
(0.89442577 0.0073850616 0)
(0.88893223 0.0071622324 0)
(0.88338533 0.0069446512 0)
(0.87779319 0.0067327717 0)
(0.87216088 0.0065270188 0)
(0.86649608 0.0063275674 0)
(0.86080327 0.0061346227 0)
(0.85508959 0.0059481559 0)
(0.84935886 0.0057682021 0)
(0.84361772 0.0055945798 0)
(0.83786936 0.0054272214 0)
(0.83211992 0.0052658585 0)
(0.82637201 0.00511038 0)
(0.8206313 0.0049604767 0)
(0.81489987 0.00481603 0)
(0.80918296 0.0046767157 0)
(0.80348215 0.0045424288 0)
(0.79780225 0.0044128439 0)
(0.79214441 0.0042878813 0)
(0.78651304 0.0041672212 0)
(0.78090886 0.0040508142 0)
(0.77533591 0.0039383472 0)
(0.76979456 0.0038298026 0)
(0.76428844 0.0037248725 0)
(0.75881761 0.0036235712 0)
(0.75338534 0.0035255932 0)
(0.7479914 0.0034309831 0)
(0.7426387 0.0033394333 0)
(0.73732677 0.0032510167 0)
(0.73205818 0.0031654199 0)
(0.72683228 0.0030827434 0)
(0.72165126 0.0030026653 0)
(0.71651438 0.0029253132 0)
(0.71142345 0.0028503538 0)
(0.70637769 0.002777942 0)
(0.70137852 0.0027077297 0)
(0.6964252 0.0026398997 0)
(0.69151873 0.0025740877 0)
(0.68665851 0.0025105052 0)
(0.68184507 0.00244877 0)
(0.67707802 0.0023891239 0)
(0.6723574 0.0023311646 0)
(0.66768314 0.0022751657 0)
(0.66305473 0.0022207025 0)
(0.65847248 0.0021680818 0)
(0.65393529 0.0021168548 0)
(0.64944398 0.002067364 0)
(0.64499674 0.002019134 0)
(0.64059505 0.0019725445 0)
(0.63623629 0.0019270913 0)
(0.63192271 0.001883193 0)
(0.62765078 0.0018403138 0)
(0.62342368 0.0017989136 0)
(0.6192368 0.0017584226 0)
(0.61509444 0.0017193442 0)
(0.61099077 0.0016810716 0)
(0.60693133 0.0016441539 0)
(0.60290895 0.0016079441 0)
(0.59893061 0.0015730396 0)
(0.59498755 0.00153875 0)
(0.59108845 0.0015057233 0)
(0.58722274 0.0014732227 0)
(0.58340104 0.0014419496 0)
(0.57961069 0.0014111177 0)
(0.57586455 0.0013814847 0)
(0.5721476 0.0013522107 0)
(0.56847521 0.001324113 0)
(0.56482969 0.0012962949 0)
(0.56122929 0.0012696361 0)
(0.55765327 0.0012431792 0)
(0.55412314 0.0012178703 0)
(0.5506147 0.0011926875 0)
(0.54715317 0.0011686466 0)
(0.54371044 0.0011446573 0)
(0.54031589 0.0011218086 0)
(0.53693701 0.0010989375 0)
(0.53360789 0.0010772105 0)
(0.53029105 0.0010553879 0)
(0.52702589 0.0010347173 0)
(0.5237693 0.0010138781 0)
(0.52056669 0.00099420346 0)
(0.5173686 0.00097428691 0)
(0.5142272 0.00095555192 0)
(0.5110859 0.00093650159 0)
(0.50800445 0.00091865406 0)
(0.50491825 0.00090041707 0)
(0.50189557 0.00088340825 0)
(0.49886282 0.00086593462 0)
(0.49589783 0.00084971853 0)
(0.49291689 0.00083296115 0)
(0.49000859 0.00081749504 0)
(0.48707788 0.00080141018 0)
(0.48422537 0.00078665466 0)
(0.48134331 0.00077120086 0)
(0.47854578 0.00075711832 0)
(0.47571081 0.00074225555 0)
(0.47296757 0.00072881051 0)
(0.47017817 0.00071450157 0)
(0.46748863 0.00070166137 0)
(0.46474328 0.00068787022 0)
(0.46210699 0.00067560339 0)
(0.45940419 0.00066229602 0)
(0.4568208 0.00065057405 0)
(0.45415905 0.00063771769 0)
(0.45162838 0.00062651176 0)
(0.4490062 0.00061407403 0)
(0.4465282 0.00060335838 0)
(0.4439441 0.00059130945 0)
(0.44151889 0.00058105957 0)
(0.43897139 0.00056936919 0)
(0.43659926 0.0005595603 0)
(0.43408687 0.00054819972 0)
(0.4317683 0.00053880977 0)
(0.42928951 0.00052775028 0)
(0.42702522 0.0005187567 0)
(0.42457852 0.00050797152 0)
(0.42236942 0.00049935374 0)
(0.41995326 0.00048881516 0)
(0.41780054 0.00048055185 0)
(0.41541336 0.00047023306 0)
(0.41331849 0.000462305 0)
(0.41095867 0.00045218074 0)
(0.40892341 0.00044456847 0)
(0.40658931 0.00043461175 0)
(0.40461579 0.00042729741 0)
(0.40230568 0.00041748399 0)
(0.40039636 0.00041045045 0)
(0.39810847 0.00040075409 0)
(0.39626623 0.00039398698 0)
(0.39399867 0.00038438343 0)
(0.39222682 0.00037786905 0)
(0.38997759 0.00036833465 0)
(0.3882799 0.00036206165 0)
(0.38604687 0.00035257792 0)
(0.38442761 0.00034653275 0)
(0.38220839 0.00033708712 0)
(0.38067239 0.00033125627 0)
(0.37846434 0.00032184458 0)
(0.377017 0.00031621671 0)
(0.37481708 0.00030683813 0)
(0.37346441 0.00030141055 0)
(0.3712691 0.00029206684 0)
(0.3700177 0.00028684993 0)
(0.36782286 0.00027754894 0)
(0.36667995 0.00027256085 0)
(0.36448061 0.00026332958 0)
(0.36345398 0.00025859149 0)
(0.36124404 0.00024948192 0)
(0.36034212 0.00024502886 0)
(0.35811394 0.00023611363 0)
(0.35734567 0.0002320156 0)
(0.35508962 0.00022339441 0)
(0.35446432 0.00021976271 0)
(0.35216797 0.0002115955 0)
(0.3516951 0.00020859991 0)
(0.34934217 0.00020114116 0)
(0.34903056 0.00019904401 0)
(0.34659997 0.00019278266 0)
(0.34645529 0.00019155987 0)
(0.34392471 0.00019051646 0)
(0.98093957 0.014586199 0)
(0.98101611 0.017841885 0)
(0.98201616 0.020815533 0)
(0.98385896 0.023054949 0)
(0.98620374 0.024478778 0)
(0.98862999 0.02536579 0)
(0.9908727 0.026046238 0)
(0.99288845 0.026702371 0)
(0.99477295 0.027336101 0)
(0.99664328 0.027844456 0)
(0.9985619 0.028107748 0)
(1.0005178 0.028037676 0)
(1.0024419 0.027589146 0)
(1.004234 0.026757638 0)
(1.0057871 0.02557746 0)
(1.0070059 0.024115948 0)
(1.0078187 0.02246648 0)
(1.0081875 0.0207386 0)
(1.0081112 0.019042546 0)
(1.0076262 0.017472357 0)
(1.0067973 0.016091095 0)
(1.0057061 0.014926757 0)
(1.0044337 0.013976303 0)
(1.0030497 0.013217202 0)
(1.0016034 0.012616623 0)
(1.0001236 0.012139509 0)
(0.99862097 0.011755519 0)
(0.99709451 0.011440094 0)
(0.99553684 0.011173537 0)
(0.99393838 0.010939943 0)
(0.99228869 0.010727013 0)
(0.99057799 0.01052567 0)
(0.98879736 0.010329853 0)
(0.98693942 0.010135754 0)
(0.98499831 0.0099414221 0)
(0.98296976 0.0097460053 0)
(0.98085101 0.0095495633 0)
(0.97864036 0.0093524956 0)
(0.97633734 0.0091555816 0)
(0.97394198 0.0089595393 0)
(0.97145526 0.0087652218 0)
(0.96887816 0.0085732393 0)
(0.96621254 0.0083842617 0)
(0.96345985 0.0081986561 0)
(0.9606225 0.0080168627 0)
(0.95770212 0.007839014 0)
(0.95470146 0.0076653586 0)
(0.9516222 0.0074958463 0)
(0.94846734 0.0073305984 0)
(0.9452385 0.0071694404 0)
(0.94193891 0.0070124212 0)
(0.9385701 0.0068592914 0)
(0.93513553 0.0067100728 0)
(0.93163659 0.0065644778 0)
(0.92807697 0.0064225318 0)
(0.92445789 0.0062839296 0)
(0.92078331 0.0061487176 0)
(0.91705421 0.0060165836 0)
(0.91327485 0.0058876051 0)
(0.90944592 0.0057614678 0)
(0.90557199 0.0056382853 0)
(0.90165344 0.0055177408 0)
(0.89769515 0.0053999855 0)
(0.89369713 0.0052846976 0)
(0.88966458 0.0051720653 0)
(0.88559708 0.0050617577 0)
(0.88150022 0.0049539988 0)
(0.87737303 0.004848443 0)
(0.87322153 0.0047453485 0)
(0.86904415 0.0046443495 0)
(0.86484735 0.0045457378 0)
(0.86062889 0.0044491235 0)
(0.85639575 0.0043548319 0)
(0.85214491 0.0042624449 0)
(0.84788394 0.0041723215 0)
(0.84360895 0.0040840111 0)
(0.83932816 0.0039979079 0)
(0.83503672 0.0039135257 0)
(0.83074362 0.003831296 0)
(0.82644292 0.0037506944 0)
(0.82214447 0.0036721921 0)
(0.81784115 0.0035952234 0)
(0.81354378 0.0035203022 0)
(0.80924392 0.0034468183 0)
(0.80495353 0.0033753312 0)
(0.80066269 0.0033051837 0)
(0.79638465 0.0032369847 0)
(0.79210785 0.003170027 0)
(0.78784703 0.0031049723 0)
(0.78358879 0.0030410598 0)
(0.77934956 0.002979008 0)
(0.77511393 0.0029179984 0)
(0.77090021 0.0028588109 0)
(0.76669076 0.0028005657 0)
(0.76250604 0.0027441082 0)
(0.75832593 0.0026884935 0)
(0.75417329 0.002634637 0)
(0.75002526 0.0025815237 0)
(0.74590743 0.0025301437 0)
(0.74179386 0.0024794069 0)
(0.73771321 0.0024303835 0)
(0.73363613 0.0023819033 0)
(0.72959474 0.0023351216 0)
(0.72555587 0.0022887832 0)
(0.72155552 0.0022441341 0)
(0.7175563 0.0021998279 0)
(0.71359853 0.0021572069 0)
(0.70964013 0.0021148277 0)
(0.70572626 0.0020741353 0)
(0.70180961 0.002033583 0)
(0.69794077 0.0019947245 0)
(0.69406659 0.0019559034 0)
(0.69024372 0.0019187895 0)
(0.68641254 0.0018816092 0)
(0.68263645 0.0018461549 0)
(0.67884862 0.0018105287 0)
(0.67511997 0.001776653 0)
(0.67137568 0.0017424982 0)
(0.66769504 0.0017101246 0)
(0.66399434 0.0016773626 0)
(0.6603622 0.0016464186 0)
(0.656705 0.0016149743 0)
(0.65312178 0.0015853913 0)
(0.64950787 0.0015551938 0)
(0.64597392 0.0015269072 0)
(0.642403 0.0014978887 0)
(0.63891865 0.0014708371 0)
(0.63539031 0.0014429325 0)
(0.63195586 0.0014170574 0)
(0.6284696 0.0013902041 0)
(0.62508534 0.0013654501 0)
(0.62164057 0.0013395893 0)
(0.61830683 0.0013159051 0)
(0.61490289 0.0012909802 0)
(0.61161999 0.001268316 0)
(0.60825614 0.0012442714 0)
(0.60502446 0.00122258 0)
(0.60169989 0.0011993635 0)
(0.59851986 0.0011786009 0)
(0.59523368 0.001156161 0)
(0.59210581 0.0011362845 0)
(0.58885709 0.0011145722 0)
(0.58578195 0.0010955428 0)
(0.58256968 0.0010745102 0)
(0.57954798 0.0010562883 0)
(0.57637107 0.0010358871 0)
(0.57340362 0.001018437 0)
(0.57026095 0.00099862273 0)
(0.56734871 0.00098191027 0)
(0.56423906 0.00096263651 0)
(0.56138316 0.00094662731 0)
(0.55830526 0.00092784998 0)
(0.55550702 0.00091251277 0)
(0.55245952 0.00089418679 0)
(0.54972047 0.00087949005 0)
(0.54670196 0.00086157301 0)
(0.54402387 0.00084748769 0)
(0.54103286 0.00082993477 0)
(0.53841778 0.00081643071 0)
(0.53545267 0.00079919863 0)
(0.53290297 0.00078624876 0)
(0.5299621 0.00076929482 0)
(0.52748048 0.00075687161 0)
(0.52456208 0.00074015124 0)
(0.52215164 0.00072822947 0)
(0.51925382 0.00071170047 0)
(0.51691809 0.00070025598 0)
(0.51403884 0.00068387369 0)
(0.5117818 0.0006728862 0)
(0.50891897 0.0006566078 0)
(0.50674512 0.00064605817 0)
(0.50389641 0.00062984153 0)
(0.5018108 0.00061971453 0)
(0.49897368 0.00060352382 0)
(0.49698198 0.00059380207 0)
(0.49415367 0.00057760878 0)
(0.49226221 0.00056827672 0)
(0.48943956 0.00055206337 0)
(0.4876554 0.0005431096 0)
(0.48483481 0.00052686333 0)
(0.48316576 0.00051828991 0)
(0.48034306 0.00050200231 0)
(0.47879773 0.00049383063 0)
(0.47596801 0.00047750233 0)
(0.47455576 0.0004697679 0)
(0.47171322 0.00045342586 0)
(0.47044417 0.00044617272 0)
(0.46758174 0.00042987895 0)
(0.46646677 0.0004231739 0)
(0.46357579 0.00040702351 0)
(0.46262637 0.00040098228 0)
(0.45969614 0.00038511659 0)
(0.45892405 0.00037990873 0)
(0.45594123 0.00036457171 0)
(0.45535797 0.00036042606 0)
(0.45230596 0.00034605607 0)
(0.4519213 0.00034323477 0)
(0.44878004 0.00033081521 0)
(0.44859842 0.00032907074 0)
(0.44534765 0.00032385788 0)
(0.98270457 0.014421066 0)
(0.98277972 0.017161289 0)
(0.98357779 0.019791997 0)
(0.98507045 0.021988594 0)
(0.98706351 0.023570883 0)
(0.98926051 0.024613141 0)
(0.99141143 0.02533769 0)
(0.99341045 0.02593174 0)
(0.99528511 0.026459075 0)
(0.99712009 0.026873101 0)
(0.99898404 0.027082107 0)
(1.0008918 0.027003736 0)
(1.002806 0.026591931 0)
(1.0046543 0.025841691 0)
(1.0063525 0.024784227 0)
(1.0078192 0.023479228 0)
(1.0089909 0.022006939 0)
(1.0098273 0.020459005 0)
(1.0103192 0.01892772 0)
(1.0104864 0.017493825 0)
(1.0103777 0.016215514 0)
(1.0100573 0.015122841 0)
(1.0095968 0.014219382 0)
(1.0090585 0.013489174 0)
(1.0084925 0.012905237 0)
(1.0079283 0.012437223 0)
(1.0073826 0.01205784 0)
(1.0068569 0.011744854 0)
(1.0063494 0.011480787 0)
(1.0058509 0.011251507 0)
(1.0053552 0.01104585 0)