# vtk DataFile Version 2.0
symmBound
ASCII
DATASET POLYDATA
POINTS 82 float
-0.02 0 0 -0.0195 0 0 -0.0195 0 0.001 -0.02 0
0.001 -0.019 0 0 -0.019 0 0.001 -0.0185 0 0
-0.0185 0 0.001 -0.018 0 0 -0.018 0 0.001 -0.0175
0 0 -0.0175 0 0.001 -0.017 0 0 -0.017 0
0.001 -0.0165 0 0 -0.0165 0 0.001 -0.016 0 0
-0.016 0 0.001 -0.0155 0 0 -0.0155 0 0.001 -0.015
0 0 -0.015 0 0.001 -0.0145 0 0 -0.0145 0
0.001 -0.014 0 0 -0.014 0 0.001 -0.0135 0 0
-0.0135 0 0.001 -0.013 0 0 -0.013 0 0.001 -0.0125
0 0 -0.0125 0 0.001 -0.012 0 0 -0.012 0
0.001 -0.0115 0 0 -0.0115 0 0.001 -0.011 0 0
-0.011 0 0.001 -0.0105 0 0 -0.0105 0 0.001 -0.01
0 0 -0.01 0 0.001 -0.0095 0 0 -0.0095 0
0.001 -0.009 0 0 -0.009 0 0.001 -0.0085 0 0
-0.0085 0 0.001 -0.008 0 0 -0.008 0 0.001 -0.0075
0 0 -0.0075 0 0.001 -0.007 0 0 -0.007 0
0.001 -0.0065 0 0 -0.0065 0 0.001 -0.006 0 0
-0.006 0 0.001 -0.0055 0 0 -0.0055 0 0.001 -0.005
0 0 -0.005 0 0.001 -0.0045 0 0 -0.0045 0
0.001 -0.004 0 0 -0.004 0 0.001 -0.0035 0 0
-0.0035 0 0.001 -0.003 0 0 -0.003 0 0.001 -0.0025
0 0 -0.0025 0 0.001 -0.002 0 0 -0.002 0
0.001 -0.0015 0 0 -0.0015 0 0.001 -0.001 0 0
-0.001 0 0.001 -0.0005 0 0 -0.0005 0 0.001 0
0 0 0 0 0.001 
POLYGONS 40 200
4 0 1 2 3 4 1 4 5 2 4
4 6 7 5 4 6 8 9 7 4
8 10 11 9 4 10 12 13 11 4
12 14 15 13 4 14 16 17 15 4
16 18 19 17 4 18 20 21 19 4
20 22 23 21 4 22 24 25 23 4
24 26 27 25 4 26 28 29 27 4
28 30 31 29 4 30 32 33 31 4
32 34 35 33 4 34 36 37 35 4
36 38 39 37 4 38 40 41 39 4
40 42 43 41 4 42 44 45 43 4
44 46 47 45 4 46 48 49 47 4
48 50 51 49 4 50 52 53 51 4
52 54 55 53 4 54 56 57 55 4
56 58 59 57 4 58 60 61 59 4
60 62 63 61 4 62 64 65 63 4
64 66 67 65 4 66 68 69 67 4
68 70 71 69 4 70 72 73 71 4
72 74 75 73 4 74 76 77 75 4
76 78 79 77 4 78 80 81 79 
CELL_DATA 40
FIELD attributes 3
patchID 1 40 float
4 4 4 4 4 4 4 4 4 4 4
4 4 4 4 4 4 4 4 4 4
4 4 4 4 4 4 4 4 4 4
4 4 4 4 4 4 4 4 4 
p 1 40 float
0.00439193 0.00445711 0.00446215 0.0044723 0.00445747 0.0044761 0.00447495 0.00450623 0.00451011 0.00454643 0.00455233
0.0045946 0.0046041 0.00465414 0.00466798 0.00472693 0.00474566 0.00481505 0.00483955 0.00492156 0.00495314
0.00505077 0.0050912 0.00520861 0.00526054 0.00540388 0.00547139 0.00564993 0.00573953 0.00596809 0.0060911
0.00639543 0.00657347 0.00700331 0.00728416 0.00795017 0.00846213 0.00970824 0.0109206 0.0138173 
U 3 40 float
0.491033 -0.000379806 0 0.509343 0.000386961 0 0.490365 -0.000393352 0 0.509867 0.000403293
0 0.489803 -0.000405493 0 0.510463 0.000421319 0 0.48915 -0.000418604 0
0.511062 0.000439711 0 0.488407 -0.000432051 0 0.511704 0.000459821 0 0.487587
-0.000445393 0 0.512403 0.00048178 0 0.486675 -0.000458779 0 0.513164 0.00050564
0 0.485655 -0.000472218 0 0.513999 0.000531647 0 0.484507 -0.000485698 0
0.514921 0.000560086 0 0.483206 -0.000499151 0 0.515949 0.000591336 0 0.48172
-0.000512301 0 0.517107 0.000625914 0 0.480005 -0.000524701 0 0.518428 0.000664407
0 0.477998 -0.000535464 0 0.519955 0.000707659 0 0.475611 -0.000543021 0
0.52175 0.000756738 0 0.472711 -0.00054432 0 0.523905 0.000812955 0 0.46909
-0.000533381 0 0.526556 0.000878403 0 0.4644 -0.000499279 0 0.529901 0.000957868
0 0.458014 -0.000408151 0 0.534213 0.0010637 0 0.448677 -0.000160625 0
0.539625 0.00117558 0 0.433157 0.000918092 0 0.545432 0.00264529 0 
POINT_DATA  82
FIELD attributes 2
p 1 82 float
0.00439193 0.00442452 0.00442452 0.00439193 0.00445963 0.00445963 0.00446722 0.00446722 0.00446489 0.00446489 0.00446679
0.00446679 0.00447552 0.00447552 0.00449059 0.00449059 0.00450817 0.00450817 0.00452827 0.00452827 0.00454938
0.00454938 0.00457347 0.00457347 0.00459935 0.00459935 0.00462912 0.00462912 0.00466106 0.00466106 0.00469745
0.00469745 0.00473629 0.00473629 0.00478035 0.00478035 0.0048273 0.0048273 0.00488056 0.00488056 0.00493735
0.00493735 0.00500195 0.00500195 0.00507099 0.00507099 0.00514991 0.00514991 0.00523458 0.00523458 0.00533221
0.00533221 0.00543763 0.00543763 0.00556066 0.00556066 0.00569473 0.00569473 0.00585381 0.00585381 0.00602959
0.00602959 0.00624327 0.00624327 0.00648445 0.00648445 0.00678839 0.00678839 0.00714373 0.00714373 0.00761717
0.00761717 0.00820615 0.00820615 0.00908518 0.00908518 0.0103144 0.0103144 0.0123689 0.0123689 0.0138173
0.0138173 
U 3 82 float
0.491033 -0.000379806 0 0.500188 3.57734e-06 0 0.500188 3.57734e-06 0 0.491033 -0.000379806
0 0.499854 -3.1958e-06 0 0.499854 -3.1958e-06 0 0.500116 4.97017e-06 0
0.500116 4.97017e-06 0 0.499835 -1.09992e-06 0 0.499835 -1.09992e-06 0 0.500133
7.91311e-06 0 0.500133 7.91311e-06 0 0.499806 1.35735e-06 0 0.499806 1.35735e-06
0 0.500106 1.05533e-05 0 0.500106 1.05533e-05 0 0.499734 3.83011e-06 0
0.499734 3.83011e-06 0 0.500055 1.38853e-05 0 0.500055 1.38853e-05 0 0.499645
7.21383e-06 0 0.499645 7.21383e-06 0 0.499995 1.81932e-05 0 0.499995 1.81932e-05
0 0.499539 1.15006e-05 0 0.499539 1.15006e-05 0 0.49992 2.34306e-05 0
0.49992 2.34306e-05 0 0.499409 1.67109e-05 0 0.499409 1.67109e-05 0 0.499827
2.97145e-05 0 0.499827 2.97145e-05 0 0.499253 2.29745e-05 0 0.499253 2.29745e-05
0 0.499714 3.7194e-05 0 0.499714 3.7194e-05 0 0.499063 3.04678e-05 0
0.499063 3.04678e-05 0 0.499578 4.60928e-05 0 0.499578 4.60928e-05 0 0.498835
3.95174e-05 0 0.498835 3.95174e-05 0 0.499414 5.68063e-05 0 0.499414 5.68063e-05
0 0.498556 5.06063e-05 0 0.498556 5.06063e-05 0 0.499216 6.98526e-05 0
0.499216 6.98526e-05 0 0.498213 6.44712e-05 0 0.498213 6.44712e-05 0 0.498976
8.60976e-05 0 0.498976 8.60976e-05 0 0.497783 8.23192e-05 0 0.497783 8.23192e-05
0 0.49868 0.000106859 0 0.49868 0.000106859 0 0.49723 0.000106209 0
0.49723 0.000106209 0 0.498308 0.000134318 0 0.498308 0.000134318 0 0.496498
0.000139787 0 0.496498 0.000139787 0 0.497823 0.000172511 0 0.497823 0.000172511
0 0.495478 0.000189562 0 0.495478 0.000189562 0 0.497151 0.000229295 0
0.497151 0.000229295 0 0.493958 0.000274859 0 0.493958 0.000274859 0 0.496114
0.000327772 0 0.496114 0.000327772 0 0.491445 0.000451535 0 0.491445 0.000451535
0 0.494151 0.00050748 0 0.494151 0.00050748 0 0.486391 0.00104684 0
0.486391 0.00104684 0 0.489295 0.00178169 0 0.489295 0.00178169 0 0.545432
0.00264529 0 0.545432 0.00264529 0 
