# vtk DataFile Version 2.0
symmBound
ASCII
DATASET POLYDATA
POINTS 82 float
-0.02 0 0 -0.0195 0 0 -0.0195 0 0.001 -0.02 0
0.001 -0.019 0 0 -0.019 0 0.001 -0.0185 0 0
-0.0185 0 0.001 -0.018 0 0 -0.018 0 0.001 -0.0175
0 0 -0.0175 0 0.001 -0.017 0 0 -0.017 0
0.001 -0.0165 0 0 -0.0165 0 0.001 -0.016 0 0
-0.016 0 0.001 -0.0155 0 0 -0.0155 0 0.001 -0.015
0 0 -0.015 0 0.001 -0.0145 0 0 -0.0145 0
0.001 -0.014 0 0 -0.014 0 0.001 -0.0135 0 0
-0.0135 0 0.001 -0.013 0 0 -0.013 0 0.001 -0.0125
0 0 -0.0125 0 0.001 -0.012 0 0 -0.012 0
0.001 -0.0115 0 0 -0.0115 0 0.001 -0.011 0 0
-0.011 0 0.001 -0.0105 0 0 -0.0105 0 0.001 -0.01
0 0 -0.01 0 0.001 -0.0095 0 0 -0.0095 0
0.001 -0.009 0 0 -0.009 0 0.001 -0.0085 0 0
-0.0085 0 0.001 -0.008 0 0 -0.008 0 0.001 -0.0075
0 0 -0.0075 0 0.001 -0.007 0 0 -0.007 0
0.001 -0.0065 0 0 -0.0065 0 0.001 -0.006 0 0
-0.006 0 0.001 -0.0055 0 0 -0.0055 0 0.001 -0.005
0 0 -0.005 0 0.001 -0.0045 0 0 -0.0045 0
0.001 -0.004 0 0 -0.004 0 0.001 -0.0035 0 0
-0.0035 0 0.001 -0.003 0 0 -0.003 0 0.001 -0.0025
0 0 -0.0025 0 0.001 -0.002 0 0 -0.002 0
0.001 -0.0015 0 0 -0.0015 0 0.001 -0.001 0 0
-0.001 0 0.001 -0.0005 0 0 -0.0005 0 0.001 0
0 0 0 0 0.001 
POLYGONS 40 200
4 0 1 2 3 4 1 4 5 2 4
4 6 7 5 4 6 8 9 7 4
8 10 11 9 4 10 12 13 11 4
12 14 15 13 4 14 16 17 15 4
16 18 19 17 4 18 20 21 19 4
20 22 23 21 4 22 24 25 23 4
24 26 27 25 4 26 28 29 27 4
28 30 31 29 4 30 32 33 31 4
32 34 35 33 4 34 36 37 35 4
36 38 39 37 4 38 40 41 39 4
40 42 43 41 4 42 44 45 43 4
44 46 47 45 4 46 48 49 47 4
48 50 51 49 4 50 52 53 51 4
52 54 55 53 4 54 56 57 55 4
56 58 59 57 4 58 60 61 59 4
60 62 63 61 4 62 64 65 63 4
64 66 67 65 4 66 68 69 67 4
68 70 71 69 4 70 72 73 71 4
72 74 75 73 4 74 76 77 75 4
76 78 79 77 4 78 80 81 79 
CELL_DATA 40
FIELD attributes 3
patchID 1 40 float
4 4 4 4 4 4 4 4 4 4 4
4 4 4 4 4 4 4 4 4 4
4 4 4 4 4 4 4 4 4 4
4 4 4 4 4 4 4 4 4 
p 1 40 float
0.00418688 0.00425206 0.00425709 0.00426723 0.00425239 0.00427101 0.00426984 0.0043011 0.00430496 0.00434125 0.00434712
0.00438937 0.00439883 0.00444884 0.00446264 0.00452155 0.00454023 0.00460958 0.00463403 0.00471599 0.00474751
0.00484509 0.00488546 0.0050028 0.00505467 0.00519793 0.00526537 0.00544383 0.00553335 0.00576183 0.00588476
0.00618901 0.00636695 0.0067967 0.00707745 0.00774337 0.00825523 0.00950126 0.0107135 0.0136101 
U 3 40 float
0.491033 -0.000379819 0 0.509343 0.000386974 0 0.490365 -0.000393367 0 0.509867 0.000403304
0 0.489804 -0.000405509 0 0.510463 0.000421328 0 0.48915 -0.000418624 0
0.511062 0.000439717 0 0.488407 -0.000432075 0 0.511704 0.000459822 0 0.487587
-0.000445424 0 0.512403 0.000481775 0 0.486676 -0.000458815 0 0.513164 0.000505628
0 0.485656 -0.000472262 0 0.513999 0.000531627 0 0.484508 -0.00048575 0
0.514921 0.000560055 0 0.483207 -0.000499212 0 0.51595 0.000591293 0 0.481721
-0.000512375 0 0.517108 0.000625856 0 0.480006 -0.00052479 0 0.518429 0.00066433
0 0.478 -0.00053557 0 0.519956 0.000707562 0 0.475613 -0.000543148 0
0.521752 0.000756616 0 0.472714 -0.00054447 0 0.523908 0.000812806 0 0.469093
-0.000533555 0 0.526559 0.000878226 0 0.464404 -0.000499475 0 0.529904 0.000957665
0 0.458018 -0.000408378 0 0.534217 0.00106346 0 0.448682 -0.000160886 0
0.539629 0.0011753 0 0.433162 0.000917856 0 0.545437 0.00264501 0 
POINT_DATA  82
FIELD attributes 2
p 1 82 float
0.00418688 0.00421947 0.00421947 0.00418688 0.00425457 0.00425457 0.00426216 0.00426216 0.00425981 0.00425981 0.0042617
0.0042617 0.00427042 0.00427042 0.00428547 0.00428547 0.00430303 0.00430303 0.0043231 0.0043231 0.00434419
0.00434419 0.00436825 0.00436825 0.0043941 0.0043941 0.00442384 0.00442384 0.00445574 0.00445574 0.0044921
0.0044921 0.00453089 0.00453089 0.00457491 0.00457491 0.00462181 0.00462181 0.00467501 0.00467501 0.00473175
0.00473175 0.0047963 0.0047963 0.00486527 0.00486527 0.00494413 0.00494413 0.00502874 0.00502874 0.0051263
0.0051263 0.00523165 0.00523165 0.0053546 0.0053546 0.00548859 0.00548859 0.00564759 0.00564759 0.0058233
0.0058233 0.00603688 0.00603688 0.00627798 0.00627798 0.00658182 0.00658182 0.00693707 0.00693707 0.00741041
0.00741041 0.0079993 0.0079993 0.00887824 0.00887824 0.0101074 0.0101074 0.0121618 0.0121618 0.0136101
0.0136101 
U 3 82 float
0.491033 -0.000379819 0 0.500188 3.57727e-06 0 0.500188 3.57727e-06 0 0.491033 -0.000379819
0 0.499854 -3.19661e-06 0 0.499854 -3.19661e-06 0 0.500116 4.96881e-06 0
0.500116 4.96881e-06 0 0.499835 -1.10236e-06 0 0.499835 -1.10236e-06 0 0.500133
7.90954e-06 0 0.500133 7.90954e-06 0 0.499806 1.35202e-06 0 0.499806 1.35202e-06
0 0.500106 1.05463e-05 0 0.500106 1.05463e-05 0 0.499734 3.82076e-06 0
0.499734 3.82076e-06 0 0.500055 1.38736e-05 0 0.500055 1.38736e-05 0 0.499646
7.19944e-06 0 0.499646 7.19944e-06 0 0.499995 1.81758e-05 0 0.499995 1.81758e-05
0 0.499539 1.14801e-05 0 0.499539 1.14801e-05 0 0.49992 2.34065e-05 0
0.49992 2.34065e-05 0 0.49941 1.66832e-05 0 0.49941 1.66832e-05 0 0.499827
2.96825e-05 0 0.499827 2.96825e-05 0 0.499253 2.29386e-05 0 0.499253 2.29386e-05
0 0.499715 3.71529e-05 0 0.499715 3.71529e-05 0 0.499064 3.04217e-05 0
0.499064 3.04217e-05 0 0.499579 4.60404e-05 0 0.499579 4.60404e-05 0 0.498836
3.94589e-05 0 0.498836 3.94589e-05 0 0.499415 5.67406e-05 0 0.499415 5.67406e-05
0 0.498557 5.0533e-05 0 0.498557 5.0533e-05 0 0.499218 6.97701e-05 0
0.499218 6.97701e-05 0 0.498214 6.438e-05 0 0.498214 6.438e-05 0 0.498978
8.5996e-05 0 0.498978 8.5996e-05 0 0.497785 8.22073e-05 0 0.497785 8.22073e-05
0 0.498683 0.000106734 0 0.498683 0.000106734 0 0.497233 0.000106073 0
0.497233 0.000106073 0 0.498311 0.000134168 0 0.498311 0.000134168 0 0.4965
0.000139625 0 0.4965 0.000139625 0 0.497826 0.000172335 0 0.497826 0.000172335
0 0.495481 0.000189375 0 0.495481 0.000189375 0 0.497154 0.000229095 0
0.497154 0.000229095 0 0.493961 0.000274643 0 0.493961 0.000274643 0 0.496118
0.000327541 0 0.496118 0.000327541 0 0.491449 0.000451287 0 0.491449 0.000451287
0 0.494155 0.000507206 0 0.494155 0.000507206 0 0.486396 0.00104658 0
0.486396 0.00104658 0 0.4893 0.00178143 0 0.4893 0.00178143 0 0.545437
0.00264501 0 0.545437 0.00264501 0 
