# vtk DataFile Version 2.0
symmBound
ASCII
DATASET POLYDATA
POINTS 82 float
-0.02 0 0 -0.0195 0 0 -0.0195 0 0.001 -0.02 0
0.001 -0.019 0 0 -0.019 0 0.001 -0.0185 0 0
-0.0185 0 0.001 -0.018 0 0 -0.018 0 0.001 -0.0175
0 0 -0.0175 0 0.001 -0.017 0 0 -0.017 0
0.001 -0.0165 0 0 -0.0165 0 0.001 -0.016 0 0
-0.016 0 0.001 -0.0155 0 0 -0.0155 0 0.001 -0.015
0 0 -0.015 0 0.001 -0.0145 0 0 -0.0145 0
0.001 -0.014 0 0 -0.014 0 0.001 -0.0135 0 0
-0.0135 0 0.001 -0.013 0 0 -0.013 0 0.001 -0.0125
0 0 -0.0125 0 0.001 -0.012 0 0 -0.012 0
0.001 -0.0115 0 0 -0.0115 0 0.001 -0.011 0 0
-0.011 0 0.001 -0.0105 0 0 -0.0105 0 0.001 -0.01
0 0 -0.01 0 0.001 -0.0095 0 0 -0.0095 0
0.001 -0.009 0 0 -0.009 0 0.001 -0.0085 0 0
-0.0085 0 0.001 -0.008 0 0 -0.008 0 0.001 -0.0075
0 0 -0.0075 0 0.001 -0.007 0 0 -0.007 0
0.001 -0.0065 0 0 -0.0065 0 0.001 -0.006 0 0
-0.006 0 0.001 -0.0055 0 0 -0.0055 0 0.001 -0.005
0 0 -0.005 0 0.001 -0.0045 0 0 -0.0045 0
0.001 -0.004 0 0 -0.004 0 0.001 -0.0035 0 0
-0.0035 0 0.001 -0.003 0 0 -0.003 0 0.001 -0.0025
0 0 -0.0025 0 0.001 -0.002 0 0 -0.002 0
0.001 -0.0015 0 0 -0.0015 0 0.001 -0.001 0 0
-0.001 0 0.001 -0.0005 0 0 -0.0005 0 0.001 0
0 0 0 0 0.001 
POLYGONS 40 200
4 0 1 2 3 4 1 4 5 2 4
4 6 7 5 4 6 8 9 7 4
8 10 11 9 4 10 12 13 11 4
12 14 15 13 4 14 16 17 15 4
16 18 19 17 4 18 20 21 19 4
20 22 23 21 4 22 24 25 23 4
24 26 27 25 4 26 28 29 27 4
28 30 31 29 4 30 32 33 31 4
32 34 35 33 4 34 36 37 35 4
36 38 39 37 4 38 40 41 39 4
40 42 43 41 4 42 44 45 43 4
44 46 47 45 4 46 48 49 47 4
48 50 51 49 4 50 52 53 51 4
52 54 55 53 4 54 56 57 55 4
56 58 59 57 4 58 60 61 59 4
60 62 63 61 4 62 64 65 63 4
64 66 67 65 4 66 68 69 67 4
68 70 71 69 4 70 72 73 71 4
72 74 75 73 4 74 76 77 75 4
76 78 79 77 4 78 80 81 79 
CELL_DATA 40
FIELD attributes 3
patchID 1 40 float
4 4 4 4 4 4 4 4 4 4 4
4 4 4 4 4 4 4 4 4 4
4 4 4 4 4 4 4 4 4 4
4 4 4 4 4 4 4 4 4 
p 1 40 float
0.00384665 0.00391182 0.00391682 0.00392691 0.003912 0.00393053 0.00392926 0.00396041 0.00396413 0.00400028 0.00400598
0.00404805 0.0040573 0.0041071 0.00412066 0.00417933 0.00419773 0.00426678 0.00429092 0.00437256 0.00440372
0.00450095 0.00454092 0.00465786 0.00470929 0.00485212 0.00491908 0.00509706 0.00518607 0.00541403 0.00553641
0.00584011 0.00601745 0.00644658 0.00672669 0.007392 0.00790321 0.00914868 0.0103603 0.0132564 
U 3 40 float
0.491034 -0.000379899 0 0.509342 0.000387073 0 0.490366 -0.000393458 0 0.509866 0.00040336
0 0.489805 -0.000405618 0 0.510462 0.000421402 0 0.489152 -0.00041879 0
0.511061 0.000439807 0 0.48841 -0.000432274 0 0.511704 0.000459884 0 0.48759
-0.00044564 0 0.512404 0.000481745 0 0.48668 -0.000459078 0 0.513167 0.000505573
0 0.48566 -0.000472542 0 0.514002 0.000531533 0 0.484514 -0.000486047 0
0.514926 0.00055983 0 0.483214 -0.000499587 0 0.515956 0.000590989 0 0.48173
-0.000512863 0 0.517116 0.000625483 0 0.480017 -0.000525372 0 0.518439 0.000663885
0 0.478012 -0.000536209 0 0.519968 0.000706983 0 0.475628 -0.00054401 0
0.521766 0.00075579 0 0.47273 -0.000545538 0 0.523924 0.000811784 0 0.469112
-0.000534711 0 0.526578 0.000877069 0 0.464426 -0.000500734 0 0.529927 0.000956404
0 0.458043 -0.000409825 0 0.534243 0.00106195 0 0.44871 -0.000162711 0
0.539659 0.00117325 0 0.433193 0.000916091 0 0.54547 0.00264305 0 
POINT_DATA  82
FIELD attributes 2
p 1 82 float
0.00384665 0.00387924 0.00387924 0.00384665 0.00391432 0.00391432 0.00392186 0.00392186 0.00391946 0.00391946 0.00392127
0.00392127 0.0039299 0.0039299 0.00394483 0.00394483 0.00396227 0.00396227 0.0039822 0.0039822 0.00400313
0.00400313 0.00402702 0.00402702 0.00405268 0.00405268 0.0040822 0.0040822 0.00411388 0.00411388 0.00414999
0.00414999 0.00418853 0.00418853 0.00423226 0.00423226 0.00427885 0.00427885 0.00433174 0.00433174 0.00438814
0.00438814 0.00445233 0.00445233 0.00452093 0.00452093 0.00459939 0.00459939 0.00468358 0.00468358 0.0047807
0.0047807 0.0048856 0.0048856 0.00500807 0.00500807 0.00514157 0.00514157 0.00530005 0.00530005 0.00547522
0.00547522 0.00568826 0.00568826 0.00592878 0.00592878 0.00623201 0.00623201 0.00658663 0.00658663 0.00705935
0.00705935 0.0076476 0.0076476 0.00852594 0.00852594 0.00975449 0.00975449 0.0118083 0.0118083 0.0132564
0.0132564 
U 3 82 float
0.491034 -0.000379899 0 0.500188 3.58733e-06 0 0.500188 3.58733e-06 0 0.491034 -0.000379899
0 0.499854 -3.19219e-06 0 0.499854 -3.19219e-06 0 0.500116 4.95125e-06 0
0.500116 4.95125e-06 0 0.499836 -1.12867e-06 0 0.499836 -1.12867e-06 0 0.500134
7.89232e-06 0 0.500134 7.89232e-06 0 0.499807 1.30613e-06 0 0.499807 1.30613e-06
0 0.500107 1.05085e-05 0 0.500107 1.05085e-05 0 0.499735 3.76669e-06 0
0.499735 3.76669e-06 0 0.500057 1.38052e-05 0 0.500057 1.38052e-05 0 0.499647
7.12196e-06 0 0.499647 7.12196e-06 0 0.499997 1.80526e-05 0 0.499997 1.80526e-05
0 0.499542 1.13337e-05 0 0.499542 1.13337e-05 0 0.499923 2.32474e-05 0
0.499923 2.32474e-05 0 0.499414 1.65155e-05 0 0.499414 1.65155e-05 0 0.499831
2.94955e-05 0 0.499831 2.94955e-05 0 0.499258 2.27428e-05 0 0.499258 2.27428e-05
0 0.49972 3.68915e-05 0 0.49972 3.68915e-05 0 0.49907 3.01217e-05 0
0.49907 3.01217e-05 0 0.499585 4.57011e-05 0 0.499585 4.57011e-05 0 0.498843
3.90629e-05 0 0.498843 3.90629e-05 0 0.499423 5.63101e-05 0 0.499423 5.63101e-05
0 0.498566 5.00558e-05 0 0.498566 5.00558e-05 0 0.499228 6.92564e-05 0
0.499228 6.92564e-05 0 0.498225 6.38378e-05 0 0.498225 6.38378e-05 0 0.49899
8.53869e-05 0 0.49899 8.53869e-05 0 0.497798 8.14866e-05 0 0.497798 8.14866e-05
0 0.498697 0.00010589 0 0.498697 0.00010589 0 0.497248 0.000105126 0
0.497248 0.000105126 0 0.498327 0.000133123 0 0.498327 0.000133123 0 0.496518
0.000138536 0 0.496518 0.000138536 0 0.497845 0.000171179 0 0.497845 0.000171179
0 0.495502 0.000188167 0 0.495502 0.000188167 0 0.497176 0.000227835 0
0.497176 0.000227835 0 0.493985 0.00027329 0 0.493985 0.00027329 0 0.496143
0.000326061 0 0.496143 0.000326061 0 0.491476 0.000449618 0 0.491476 0.000449618
0 0.494184 0.000505268 0 0.494184 0.000505268 0 0.486426 0.00104467 0
0.486426 0.00104467 0 0.489332 0.00177957 0 0.489332 0.00177957 0 0.54547
0.00264305 0 0.54547 0.00264305 0 
