# vtk DataFile Version 2.0
symmBound
ASCII
DATASET POLYDATA
POINTS 82 float
-0.02 0 0 -0.0195 0 0 -0.0195 0 0.001 -0.02 0
0.001 -0.019 0 0 -0.019 0 0.001 -0.0185 0 0
-0.0185 0 0.001 -0.018 0 0 -0.018 0 0.001 -0.0175
0 0 -0.0175 0 0.001 -0.017 0 0 -0.017 0
0.001 -0.0165 0 0 -0.0165 0 0.001 -0.016 0 0
-0.016 0 0.001 -0.0155 0 0 -0.0155 0 0.001 -0.015
0 0 -0.015 0 0.001 -0.0145 0 0 -0.0145 0
0.001 -0.014 0 0 -0.014 0 0.001 -0.0135 0 0
-0.0135 0 0.001 -0.013 0 0 -0.013 0 0.001 -0.0125
0 0 -0.0125 0 0.001 -0.012 0 0 -0.012 0
0.001 -0.0115 0 0 -0.0115 0 0.001 -0.011 0 0
-0.011 0 0.001 -0.0105 0 0 -0.0105 0 0.001 -0.01
0 0 -0.01 0 0.001 -0.0095 0 0 -0.0095 0
0.001 -0.009 0 0 -0.009 0 0.001 -0.0085 0 0
-0.0085 0 0.001 -0.008 0 0 -0.008 0 0.001 -0.0075
0 0 -0.0075 0 0.001 -0.007 0 0 -0.007 0
0.001 -0.0065 0 0 -0.0065 0 0.001 -0.006 0 0
-0.006 0 0.001 -0.0055 0 0 -0.0055 0 0.001 -0.005
0 0 -0.005 0 0.001 -0.0045 0 0 -0.0045 0
0.001 -0.004 0 0 -0.004 0 0.001 -0.0035 0 0
-0.0035 0 0.001 -0.003 0 0 -0.003 0 0.001 -0.0025
0 0 -0.0025 0 0.001 -0.002 0 0 -0.002 0
0.001 -0.0015 0 0 -0.0015 0 0.001 -0.001 0 0
-0.001 0 0.001 -0.0005 0 0 -0.0005 0 0.001 0
0 0 0 0 0.001 
POLYGONS 40 200
4 0 1 2 3 4 1 4 5 2 4
4 6 7 5 4 6 8 9 7 4
8 10 11 9 4 10 12 13 11 4
12 14 15 13 4 14 16 17 15 4
16 18 19 17 4 18 20 21 19 4
20 22 23 21 4 22 24 25 23 4
24 26 27 25 4 26 28 29 27 4
28 30 31 29 4 30 32 33 31 4
32 34 35 33 4 34 36 37 35 4
36 38 39 37 4 38 40 41 39 4
40 42 43 41 4 42 44 45 43 4
44 46 47 45 4 46 48 49 47 4
48 50 51 49 4 50 52 53 51 4
52 54 55 53 4 54 56 57 55 4
56 58 59 57 4 58 60 61 59 4
60 62 63 61 4 62 64 65 63 4
64 66 67 65 4 66 68 69 67 4
68 70 71 69 4 70 72 73 71 4
72 74 75 73 4 74 76 77 75 4
76 78 79 77 4 78 80 81 79 
CELL_DATA 40
FIELD attributes 3
patchID 1 40 float
4 4 4 4 4 4 4 4 4 4 4
4 4 4 4 4 4 4 4 4 4
4 4 4 4 4 4 4 4 4 4
4 4 4 4 4 4 4 4 4 
p 1 40 float
0.00381003 0.00387485 0.00387993 0.00389029 0.00387462 0.00389292 0.00389196 0.00392254 0.00392592 0.00396172 0.00396719
0.00400873 0.00401734 0.00406659 0.00408015 0.00413773 0.00415543 0.00422391 0.00424744 0.0043282 0.00435834
0.00445491 0.00449399 0.00461042 0.00465996 0.00480244 0.00486809 0.00504543 0.00513319 0.00535988 0.00548108
0.00578373 0.00595917 0.00638688 0.00666635 0.00732954 0.00784414 0.00909014 0.0103034 0.0132047 
U 3 40 float
0.491024 -0.000379234 0 0.509352 0.000397224 0 0.49036 -0.000401425 0 0.509872 0.000387507
0 0.489797 -0.000399514 0 0.510476 0.000429676 0 0.489142 -0.00041347 0
0.511075 0.000443126 0 0.488405 -0.000435051 0 0.511716 0.000438651 0 0.487587
-0.000447042 0 0.512417 0.000490144 0 0.486686 -0.00044421 0 0.513181 0.000506773
0 0.485672 -0.000469785 0 0.51401 0.000513013 0 0.484535 -0.000501192 0
0.514926 0.000562644 0 0.483253 -0.000488585 0 0.515951 0.000609929 0 0.481789
-0.000517185 0 0.517103 0.000627993 0 0.480087 -0.000558772 0 0.51842 0.000658011
0 0.478091 -0.000546113 0 0.519965 0.000732907 0 0.475708 -0.000529474 0
0.521792 0.000766126 0 0.472795 -0.000556126 0 0.52398 0.000776232 0 0.469153
-0.000567584 0 0.526656 0.000852676 0 0.46446 -0.00048828 0 0.530027 0.000989429
0 0.458105 -0.000366194 0 0.534348 0.00109511 0 0.448811 -0.00017066 0
0.539745 0.00114321 0 0.433318 0.000851027 0 0.545564 0.00259789 0 
POINT_DATA  82
FIELD attributes 2
p 1 82 float
0.00381003 0.00384244 0.00384244 0.00381003 0.00387739 0.00387739 0.00388511 0.00388511 0.00388246 0.00388246 0.00388377
0.00388377 0.00389244 0.00389244 0.00390725 0.00390725 0.00392423 0.00392423 0.00394382 0.00394382 0.00396445
0.00396445 0.00398796 0.00398796 0.00401303 0.00401303 0.00404197 0.00404197 0.00407337 0.00407337 0.00410894
0.00410894 0.00414658 0.00414658 0.00418967 0.00418967 0.00423567 0.00423567 0.00428782 0.00428782 0.00434327
0.00434327 0.00440662 0.00440662 0.00447445 0.00447445 0.00455221 0.00455221 0.00463519 0.00463519 0.0047312
0.0047312 0.00483527 0.00483527 0.00495676 0.00495676 0.00508931 0.00508931 0.00524653 0.00524653 0.00542048
0.00542048 0.00563241 0.00563241 0.00587145 0.00587145 0.00617303 0.00617303 0.00652662 0.00652662 0.00699795
0.00699795 0.00758684 0.00758684 0.00846714 0.00846714 0.00969675 0.00969675 0.011754 0.011754 0.0132047
0.0132047 
U 3 82 float
0.491024 -0.000379234 0 0.500188 8.99513e-06 0 0.500188 8.99513e-06 0 0.491024 -0.000379234
0 0.499856 -2.10073e-06 0 0.499856 -2.10073e-06 0 0.500116 -6.95895e-06 0
0.500116 -6.95895e-06 0 0.499834 -6.00304e-06 0 0.499834 -6.00304e-06 0 0.500136
1.50811e-05 0 0.500136 1.50811e-05 0 0.499809 8.10309e-06 0 0.499809 8.10309e-06
0 0.500109 1.48284e-05 0 0.500109 1.48284e-05 0 0.49974 4.03773e-06 0
0.49974 4.03773e-06 0 0.50006 1.8001e-06 0 0.50006 1.8001e-06 0 0.499651
-4.19524e-06 0 0.499651 -4.19524e-06 0 0.500002 2.15514e-05 0 0.500002 2.15514e-05
0 0.499551 2.2967e-05 0 0.499551 2.2967e-05 0 0.499933 3.12815e-05 0
0.499933 3.12815e-05 0 0.499426 1.84939e-05 0 0.499426 1.84939e-05 0 0.499841
2.16136e-05 0 0.499841 2.16136e-05 0 0.499273 5.91016e-06 0 0.499273 5.91016e-06
0 0.49973 3.07258e-05 0 0.49973 3.07258e-05 0 0.499089 3.70295e-05 0
0.499089 3.70295e-05 0 0.499602 6.06718e-05 0 0.499602 6.06718e-05 0 0.49887
4.63719e-05 0 0.49887 4.63719e-05 0 0.499446 5.54043e-05 0 0.499446 5.54043e-05
0 0.498595 3.46108e-05 0 0.498595 3.46108e-05 0 0.499253 4.96196e-05 0
0.499253 4.96196e-05 0 0.498255 5.59488e-05 0 0.498255 5.59488e-05 0 0.499028
9.33966e-05 0 0.499028 9.33966e-05 0 0.497836 0.000101717 0 0.497836 0.000101717
0 0.49875 0.000118326 0 0.49875 0.000118326 0 0.497294 0.000105 0
0.497294 0.000105 0 0.498387 0.000110053 0 0.498387 0.000110053 0 0.496566
0.000104324 0 0.496566 0.000104324 0 0.497905 0.000142546 0 0.497905 0.000142546
0 0.495558 0.000182198 0 0.495558 0.000182198 0 0.497244 0.000250575 0
0.497244 0.000250575 0 0.494066 0.000311618 0 0.494066 0.000311618 0 0.496227
0.000364458 0 0.496227 0.000364458 0 0.491579 0.000462225 0 0.491579 0.000462225
0 0.494278 0.000486274 0 0.494278 0.000486274 0 0.486531 0.000997117 0
0.486531 0.000997117 0 0.489441 0.00172446 0 0.489441 0.00172446 0 0.545564
0.00259789 0 0.545564 0.00259789 0 
