# vtk DataFile Version 2.0
symmBound
ASCII
DATASET POLYDATA
POINTS 82 float
-0.02 0 0 -0.0195 0 0 -0.0195 0 0.001 -0.02 0
0.001 -0.019 0 0 -0.019 0 0.001 -0.0185 0 0
-0.0185 0 0.001 -0.018 0 0 -0.018 0 0.001 -0.0175
0 0 -0.0175 0 0.001 -0.017 0 0 -0.017 0
0.001 -0.0165 0 0 -0.0165 0 0.001 -0.016 0 0
-0.016 0 0.001 -0.0155 0 0 -0.0155 0 0.001 -0.015
0 0 -0.015 0 0.001 -0.0145 0 0 -0.0145 0
0.001 -0.014 0 0 -0.014 0 0.001 -0.0135 0 0
-0.0135 0 0.001 -0.013 0 0 -0.013 0 0.001 -0.0125
0 0 -0.0125 0 0.001 -0.012 0 0 -0.012 0
0.001 -0.0115 0 0 -0.0115 0 0.001 -0.011 0 0
-0.011 0 0.001 -0.0105 0 0 -0.0105 0 0.001 -0.01
0 0 -0.01 0 0.001 -0.0095 0 0 -0.0095 0
0.001 -0.009 0 0 -0.009 0 0.001 -0.0085 0 0
-0.0085 0 0.001 -0.008 0 0 -0.008 0 0.001 -0.0075
0 0 -0.0075 0 0.001 -0.007 0 0 -0.007 0
0.001 -0.0065 0 0 -0.0065 0 0.001 -0.006 0 0
-0.006 0 0.001 -0.0055 0 0 -0.0055 0 0.001 -0.005
0 0 -0.005 0 0.001 -0.0045 0 0 -0.0045 0
0.001 -0.004 0 0 -0.004 0 0.001 -0.0035 0 0
-0.0035 0 0.001 -0.003 0 0 -0.003 0 0.001 -0.0025
0 0 -0.0025 0 0.001 -0.002 0 0 -0.002 0
0.001 -0.0015 0 0 -0.0015 0 0.001 -0.001 0 0
-0.001 0 0.001 -0.0005 0 0 -0.0005 0 0.001 0
0 0 0 0 0.001 
POLYGONS 40 200
4 0 1 2 3 4 1 4 5 2 4
4 6 7 5 4 6 8 9 7 4
8 10 11 9 4 10 12 13 11 4
12 14 15 13 4 14 16 17 15 4
16 18 19 17 4 18 20 21 19 4
20 22 23 21 4 22 24 25 23 4
24 26 27 25 4 26 28 29 27 4
28 30 31 29 4 30 32 33 31 4
32 34 35 33 4 34 36 37 35 4
36 38 39 37 4 38 40 41 39 4
40 42 43 41 4 42 44 45 43 4
44 46 47 45 4 46 48 49 47 4
48 50 51 49 4 50 52 53 51 4
52 54 55 53 4 54 56 57 55 4
56 58 59 57 4 58 60 61 59 4
60 62 63 61 4 62 64 65 63 4
64 66 67 65 4 66 68 69 67 4
68 70 71 69 4 70 72 73 71 4
72 74 75 73 4 74 76 77 75 4
76 78 79 77 4 78 80 81 79 
CELL_DATA 40
FIELD attributes 3
patchID 1 40 float
4 4 4 4 4 4 4 4 4 4 4
4 4 4 4 4 4 4 4 4 4
4 4 4 4 4 4 4 4 4 4
4 4 4 4 4 4 4 4 4 
p 1 40 float
0.00435861 0.00442379 0.00442883 0.00443898 0.00442415 0.00444278 0.00444162 0.0044729 0.00447677 0.00451309 0.00451899
0.00456126 0.00457075 0.00462079 0.00463462 0.00469357 0.00471229 0.00478167 0.00480617 0.00488818 0.00491974
0.00501737 0.00505779 0.0051752 0.00522712 0.00537044 0.00543795 0.00561647 0.00570606 0.00593462 0.00605761
0.00636194 0.00653996 0.00696979 0.00725063 0.00791663 0.00842857 0.00967467 0.010887 0.0137837 
U 3 40 float
0.491033 -0.000379807 0 0.509343 0.000386961 0 0.490365 -0.000393353 0 0.509867 0.000403293
0 0.489803 -0.000405493 0 0.510463 0.000421319 0 0.48915 -0.000418605 0
0.511062 0.00043971 0 0.488407 -0.000432052 0 0.511704 0.00045982 0 0.487587
-0.000445396 0 0.512403 0.000481778 0 0.486675 -0.000458782 0 0.513164 0.000505637
0 0.485655 -0.000472222 0 0.513999 0.000531643 0 0.484507 -0.000485703 0
0.514921 0.000560081 0 0.483206 -0.000499157 0 0.515949 0.000591329 0 0.48172
-0.000512309 0 0.517107 0.000625905 0 0.480005 -0.000524711 0 0.518428 0.000664395
0 0.477998 -0.000535476 0 0.519955 0.000707645 0 0.475611 -0.000543036 0
0.52175 0.000756721 0 0.472711 -0.000544338 0 0.523906 0.000812935 0 0.46909
-0.000533402 0 0.526556 0.000878379 0 0.464401 -0.000499303 0 0.529901 0.00095784
0 0.458015 -0.000408179 0 0.534214 0.00106366 0 0.448678 -0.000160658 0
0.539625 0.00117555 0 0.433158 0.000918062 0 0.545433 0.00264525 0 
POINT_DATA  82
FIELD attributes 2
p 1 82 float
0.00435861 0.0043912 0.0043912 0.00435861 0.00442631 0.00442631 0.0044339 0.0044339 0.00443156 0.00443156 0.00443346
0.00443346 0.0044422 0.0044422 0.00445726 0.00445726 0.00447484 0.00447484 0.00449493 0.00449493 0.00451604
0.00451604 0.00454012 0.00454012 0.004566 0.004566 0.00459577 0.00459577 0.0046277 0.0046277 0.00466409
0.00466409 0.00470293 0.00470293 0.00474698 0.00474698 0.00479392 0.00479392 0.00484717 0.00484717 0.00490396
0.00490396 0.00496856 0.00496856 0.00503758 0.00503758 0.00511649 0.00511649 0.00520116 0.00520116 0.00529878
0.00529878 0.00540419 0.00540419 0.00552721 0.00552721 0.00566127 0.00566127 0.00582034 0.00582034 0.00599611
0.00599611 0.00620977 0.00620977 0.00645095 0.00645095 0.00675487 0.00675487 0.00711021 0.00711021 0.00758363
0.00758363 0.0081726 0.0081726 0.00905162 0.00905162 0.0102808 0.0102808 0.0123353 0.0123353 0.0137837
0.0137837 
U 3 82 float
0.491033 -0.000379807 0 0.500188 3.57732e-06 0 0.500188 3.57732e-06 0 0.491033 -0.000379807
0 0.499854 -3.19588e-06 0 0.499854 -3.19588e-06 0 0.500116 4.97002e-06 0
0.500116 4.97002e-06 0 0.499835 -1.1002e-06 0 0.499835 -1.1002e-06 0 0.500133
7.91266e-06 0 0.500133 7.91266e-06 0 0.499806 1.35669e-06 0 0.499806 1.35669e-06
0 0.500106 1.05524e-05 0 0.500106 1.05524e-05 0 0.499734 3.82891e-06 0
0.499734 3.82891e-06 0 0.500055 1.38838e-05 0 0.500055 1.38838e-05 0 0.499645
7.21199e-06 0 0.499645 7.21199e-06 0 0.499995 1.81909e-05 0 0.499995 1.81909e-05
0 0.499539 1.1498e-05 0 0.499539 1.1498e-05 0 0.49992 2.34275e-05 0
0.49992 2.34275e-05 0 0.49941 1.67073e-05 0 0.49941 1.67073e-05 0 0.499827
2.97104e-05 0 0.499827 2.97104e-05 0 0.499253 2.29699e-05 0 0.499253 2.29699e-05
0 0.499714 3.71887e-05 0 0.499714 3.71887e-05 0 0.499063 3.04618e-05 0
0.499063 3.04618e-05 0 0.499578 4.60861e-05 0 0.499578 4.60861e-05 0 0.498835
3.95098e-05 0 0.498835 3.95098e-05 0 0.499414 5.67979e-05 0 0.499414 5.67979e-05
0 0.498556 5.05968e-05 0 0.498556 5.05968e-05 0 0.499216 6.98419e-05 0
0.499216 6.98419e-05 0 0.498213 6.44594e-05 0 0.498213 6.44594e-05 0 0.498976
8.60844e-05 0 0.498976 8.60844e-05 0 0.497783 8.23048e-05 0 0.497783 8.23048e-05
0 0.498681 0.000106843 0 0.498681 0.000106843 0 0.497231 0.000106191 0
0.497231 0.000106191 0 0.498308 0.000134298 0 0.498308 0.000134298 0 0.496498
0.000139766 0 0.496498 0.000139766 0 0.497823 0.000172488 0 0.497823 0.000172488
0 0.495478 0.000189538 0 0.495478 0.000189538 0 0.497151 0.000229269 0
0.497151 0.000229269 0 0.493958 0.000274831 0 0.493958 0.000274831 0 0.496114
0.000327742 0 0.496114 0.000327742 0 0.491446 0.000451503 0 0.491446 0.000451503
0 0.494152 0.000507444 0 0.494152 0.000507444 0 0.486392 0.0010468 0
0.486392 0.0010468 0 0.489295 0.00178166 0 0.489295 0.00178166 0 0.545433
0.00264525 0 0.545433 0.00264525 0 
