# vtk DataFile Version 2.0
symmBound
ASCII
DATASET POLYDATA
POINTS 82 float
-0.02 0 0 -0.0195 0 0 -0.0195 0 0.001 -0.02 0
0.001 -0.019 0 0 -0.019 0 0.001 -0.0185 0 0
-0.0185 0 0.001 -0.018 0 0 -0.018 0 0.001 -0.0175
0 0 -0.0175 0 0.001 -0.017 0 0 -0.017 0
0.001 -0.0165 0 0 -0.0165 0 0.001 -0.016 0 0
-0.016 0 0.001 -0.0155 0 0 -0.0155 0 0.001 -0.015
0 0 -0.015 0 0.001 -0.0145 0 0 -0.0145 0
0.001 -0.014 0 0 -0.014 0 0.001 -0.0135 0 0
-0.0135 0 0.001 -0.013 0 0 -0.013 0 0.001 -0.0125
0 0 -0.0125 0 0.001 -0.012 0 0 -0.012 0
0.001 -0.0115 0 0 -0.0115 0 0.001 -0.011 0 0
-0.011 0 0.001 -0.0105 0 0 -0.0105 0 0.001 -0.01
0 0 -0.01 0 0.001 -0.0095 0 0 -0.0095 0
0.001 -0.009 0 0 -0.009 0 0.001 -0.0085 0 0
-0.0085 0 0.001 -0.008 0 0 -0.008 0 0.001 -0.0075
0 0 -0.0075 0 0.001 -0.007 0 0 -0.007 0
0.001 -0.0065 0 0 -0.0065 0 0.001 -0.006 0 0
-0.006 0 0.001 -0.0055 0 0 -0.0055 0 0.001 -0.005
0 0 -0.005 0 0.001 -0.0045 0 0 -0.0045 0
0.001 -0.004 0 0 -0.004 0 0.001 -0.0035 0 0
-0.0035 0 0.001 -0.003 0 0 -0.003 0 0.001 -0.0025
0 0 -0.0025 0 0.001 -0.002 0 0 -0.002 0
0.001 -0.0015 0 0 -0.0015 0 0.001 -0.001 0 0
-0.001 0 0.001 -0.0005 0 0 -0.0005 0 0.001 0
0 0 0 0 0.001 
POLYGONS 40 200
4 0 1 2 3 4 1 4 5 2 4
4 6 7 5 4 6 8 9 7 4
8 10 11 9 4 10 12 13 11 4
12 14 15 13 4 14 16 17 15 4
16 18 19 17 4 18 20 21 19 4
20 22 23 21 4 22 24 25 23 4
24 26 27 25 4 26 28 29 27 4
28 30 31 29 4 30 32 33 31 4
32 34 35 33 4 34 36 37 35 4
36 38 39 37 4 38 40 41 39 4
40 42 43 41 4 42 44 45 43 4
44 46 47 45 4 46 48 49 47 4
48 50 51 49 4 50 52 53 51 4
52 54 55 53 4 54 56 57 55 4
56 58 59 57 4 58 60 61 59 4
60 62 63 61 4 62 64 65 63 4
64 66 67 65 4 66 68 69 67 4
68 70 71 69 4 70 72 73 71 4
72 74 75 73 4 74 76 77 75 4
76 78 79 77 4 78 80 81 79 
CELL_DATA 40
FIELD attributes 3
patchID 1 40 float
4 4 4 4 4 4 4 4 4 4 4
4 4 4 4 4 4 4 4 4 4
4 4 4 4 4 4 4 4 4 4
4 4 4 4 4 4 4 4 4 
p 1 40 float
0.00402721 0.0040924 0.00409741 0.00410755 0.00409269 0.00411128 0.00411008 0.00414132 0.00414514 0.0041814 0.00418723
0.00422943 0.00423884 0.00428879 0.00430253 0.00436138 0.00437999 0.00444926 0.00447364 0.00455551 0.00458694
0.00468443 0.0047247 0.00484195 0.0048937 0.00503685 0.00510418 0.00528252 0.00537191 0.00560026 0.00572305
0.00602717 0.00620496 0.00663455 0.00691515 0.00758093 0.00809262 0.00933851 0.0105506 0.0134471 
U 3 40 float
0.491033 -0.00037984 0 0.509343 0.000386994 0 0.490365 -0.00039339 0 0.509867 0.000403324
0 0.489804 -0.000405536 0 0.510463 0.000421344 0 0.489151 -0.000418657 0
0.511062 0.000439727 0 0.488408 -0.000432115 0 0.511704 0.000459826 0 0.487588
-0.000445472 0 0.512403 0.00048177 0 0.486677 -0.000458874 0 0.513165 0.000505611
0 0.485657 -0.000472332 0 0.514 0.000531596 0 0.484509 -0.000485832 0
0.514923 0.000560008 0 0.483209 -0.00049931 0 0.515951 0.000591225 0 0.481724
-0.000512493 0 0.51711 0.000625765 0 0.480009 -0.000524932 0 0.518432 0.00066421
0 0.478003 -0.000535741 0 0.519959 0.000707409 0 0.475617 -0.000543352 0
0.521756 0.000756423 0 0.472718 -0.000544712 0 0.523912 0.000812567 0 0.469098
-0.000533839 0 0.526563 0.000877942 0 0.464409 -0.000499795 0 0.52991 0.000957338
0 0.458024 -0.000408749 0 0.534224 0.00106308 0 0.448688 -0.000161315 0
0.539637 0.00117483 0 0.43317 0.000917469 0 0.545445 0.00264456 0 
POINT_DATA  82
FIELD attributes 2
p 1 82 float
0.00402721 0.00405981 0.00405981 0.00402721 0.0040949 0.0040949 0.00410248 0.00410248 0.00410012 0.00410012 0.00410198
0.00410198 0.00411068 0.00411068 0.0041257 0.0041257 0.00414323 0.00414323 0.00416327 0.00416327 0.00418431
0.00418431 0.00420833 0.00420833 0.00423413 0.00423413 0.00426381 0.00426381 0.00429566 0.00429566 0.00433195
0.00433195 0.00437069 0.00437069 0.00441463 0.00441463 0.00446145 0.00446145 0.00451458 0.00451458 0.00457123
0.00457123 0.00463569 0.00463569 0.00470457 0.00470457 0.00478332 0.00478332 0.00486782 0.00486782 0.00496528
0.00496528 0.00507051 0.00507051 0.00519335 0.00519335 0.00532721 0.00532721 0.00548609 0.00548609 0.00566166
0.00566166 0.00587511 0.00587511 0.00611606 0.00611606 0.00641976 0.00641976 0.00677485 0.00677485 0.00724804
0.00724804 0.00783678 0.00783678 0.00871557 0.00871557 0.00994456 0.00994456 0.0119988 0.0119988 0.0134471
0.0134471 
U 3 82 float
0.491033 -0.00037984 0 0.500188 3.57719e-06 0 0.500188 3.57719e-06 0 0.491033 -0.00037984
0 0.499854 -3.19788e-06 0 0.499854 -3.19788e-06 0 0.500116 4.96676e-06 0
0.500116 4.96676e-06 0 0.499835 -1.10617e-06 0 0.499835 -1.10617e-06 0 0.500133
7.904e-06 0 0.500133 7.904e-06 0 0.499807 1.34369e-06 0 0.499807 1.34369e-06
0 0.500106 1.05354e-05 0 0.500106 1.05354e-05 0 0.499735 3.80618e-06 0
0.499735 3.80618e-06 0 0.500056 1.38555e-05 0 0.500056 1.38555e-05 0 0.499646
7.17687e-06 0 0.499646 7.17687e-06 0 0.499996 1.81486e-05 0 0.499996 1.81486e-05
0 0.49954 1.14478e-05 0 0.49954 1.14478e-05 0 0.499921 2.33686e-05 0
0.499921 2.33686e-05 0 0.499411 1.66396e-05 0 0.499411 1.66396e-05 0 0.499828
2.96322e-05 0 0.499828 2.96322e-05 0 0.499254 2.28821e-05 0 0.499254 2.28821e-05
0 0.499716 3.70879e-05 0 0.499716 3.70879e-05 0 0.499066 3.03489e-05 0
0.499066 3.03489e-05 0 0.49958 4.59575e-05 0 0.49958 4.59575e-05 0 0.498838
3.93663e-05 0 0.498838 3.93663e-05 0 0.499417 5.66363e-05 0 0.499417 5.66363e-05
0 0.49856 5.04165e-05 0 0.49856 5.04165e-05 0 0.49922 6.96389e-05 0
0.49922 6.96389e-05 0 0.498217 6.42346e-05 0 0.498217 6.42346e-05 0 0.498981
8.58338e-05 0 0.498981 8.58338e-05 0 0.497788 8.20282e-05 0 0.497788 8.20282e-05
0 0.498686 0.000106535 0 0.498686 0.000106535 0 0.497237 0.000105855 0
0.497237 0.000105855 0 0.498315 0.000133928 0 0.498315 0.000133928 0 0.496505
0.000139364 0 0.496505 0.000139364 0 0.49783 0.000172051 0 0.49783 0.000172051
0 0.495486 0.000189073 0 0.495486 0.000189073 0 0.49716 0.000228772 0
0.49716 0.000228772 0 0.493967 0.000274294 0 0.493967 0.000274294 0 0.496124
0.000327165 0 0.496124 0.000327165 0 0.491456 0.000450883 0 0.491456 0.000450883
0 0.494162 0.000506759 0 0.494162 0.000506759 0 0.486403 0.00104615 0
0.486403 0.00104615 0 0.489307 0.00178102 0 0.489307 0.00178102 0 0.545445
0.00264456 0 0.545445 0.00264456 0 
