# vtk DataFile Version 2.0
symmBound
ASCII
DATASET POLYDATA
POINTS 82 float
-0.02 0 0 -0.0195 0 0 -0.0195 0 0.001 -0.02 0
0.001 -0.019 0 0 -0.019 0 0.001 -0.0185 0 0
-0.0185 0 0.001 -0.018 0 0 -0.018 0 0.001 -0.0175
0 0 -0.0175 0 0.001 -0.017 0 0 -0.017 0
0.001 -0.0165 0 0 -0.0165 0 0.001 -0.016 0 0
-0.016 0 0.001 -0.0155 0 0 -0.0155 0 0.001 -0.015
0 0 -0.015 0 0.001 -0.0145 0 0 -0.0145 0
0.001 -0.014 0 0 -0.014 0 0.001 -0.0135 0 0
-0.0135 0 0.001 -0.013 0 0 -0.013 0 0.001 -0.0125
0 0 -0.0125 0 0.001 -0.012 0 0 -0.012 0
0.001 -0.0115 0 0 -0.0115 0 0.001 -0.011 0 0
-0.011 0 0.001 -0.0105 0 0 -0.0105 0 0.001 -0.01
0 0 -0.01 0 0.001 -0.0095 0 0 -0.0095 0
0.001 -0.009 0 0 -0.009 0 0.001 -0.0085 0 0
-0.0085 0 0.001 -0.008 0 0 -0.008 0 0.001 -0.0075
0 0 -0.0075 0 0.001 -0.007 0 0 -0.007 0
0.001 -0.0065 0 0 -0.0065 0 0.001 -0.006 0 0
-0.006 0 0.001 -0.0055 0 0 -0.0055 0 0.001 -0.005
0 0 -0.005 0 0.001 -0.0045 0 0 -0.0045 0
0.001 -0.004 0 0 -0.004 0 0.001 -0.0035 0 0
-0.0035 0 0.001 -0.003 0 0 -0.003 0 0.001 -0.0025
0 0 -0.0025 0 0.001 -0.002 0 0 -0.002 0
0.001 -0.0015 0 0 -0.0015 0 0.001 -0.001 0 0
-0.001 0 0.001 -0.0005 0 0 -0.0005 0 0.001 0
0 0 0 0 0.001 
POLYGONS 40 200
4 0 1 2 3 4 1 4 5 2 4
4 6 7 5 4 6 8 9 7 4
8 10 11 9 4 10 12 13 11 4
12 14 15 13 4 14 16 17 15 4
16 18 19 17 4 18 20 21 19 4
20 22 23 21 4 22 24 25 23 4
24 26 27 25 4 26 28 29 27 4
28 30 31 29 4 30 32 33 31 4
32 34 35 33 4 34 36 37 35 4
36 38 39 37 4 38 40 41 39 4
40 42 43 41 4 42 44 45 43 4
44 46 47 45 4 46 48 49 47 4
48 50 51 49 4 50 52 53 51 4
52 54 55 53 4 54 56 57 55 4
56 58 59 57 4 58 60 61 59 4
60 62 63 61 4 62 64 65 63 4
64 66 67 65 4 66 68 69 67 4
68 70 71 69 4 70 72 73 71 4
72 74 75 73 4 74 76 77 75 4
76 78 79 77 4 78 80 81 79 
CELL_DATA 40
FIELD attributes 3
patchID 1 40 float
4 4 4 4 4 4 4 4 4 4 4
4 4 4 4 4 4 4 4 4 4
4 4 4 4 4 4 4 4 4 4
4 4 4 4 4 4 4 4 4 
p 1 40 float
0.00429795 0.00436313 0.00436816 0.00437831 0.00436348 0.00438211 0.00438094 0.00441222 0.00441609 0.0044524 0.00445829
0.00450055 0.00451003 0.00456006 0.00457389 0.00463283 0.00465153 0.00472091 0.00474539 0.00482738 0.00485893
0.00495655 0.00499696 0.00511434 0.00516625 0.00530955 0.00537704 0.00555555 0.00564512 0.00587365 0.00599663
0.00630093 0.00647893 0.00690873 0.00718955 0.00785553 0.00836745 0.00961353 0.0108258 0.0137225 
U 3 40 float
0.491033 -0.00037981 0 0.509343 0.000386964 0 0.490365 -0.000393357 0 0.509867 0.000403296
0 0.489803 -0.000405498 0 0.510463 0.000421321 0 0.48915 -0.000418611 0
0.511062 0.000439712 0 0.488407 -0.000432059 0 0.511704 0.00045982 0 0.487587
-0.000445404 0 0.512403 0.000481777 0 0.486676 -0.000458791 0 0.513164 0.000505634
0 0.485655 -0.000472233 0 0.513999 0.000531638 0 0.484507 -0.000485716 0
0.514921 0.000560072 0 0.483206 -0.000499172 0 0.515949 0.000591318 0 0.481721
-0.000512327 0 0.517108 0.00062589 0 0.480005 -0.000524733 0 0.518428 0.000664376
0 0.477998 -0.000535503 0 0.519955 0.000707621 0 0.475612 -0.000543068 0
0.521751 0.00075669 0 0.472712 -0.000544376 0 0.523906 0.000812897 0 0.469091
-0.000533446 0 0.526557 0.000878334 0 0.464402 -0.000499353 0 0.529902 0.000957789
0 0.458016 -0.000408237 0 0.534215 0.0010636 0 0.448679 -0.000160724 0
0.539627 0.00117547 0 0.433159 0.000918002 0 0.545434 0.00264518 0 
POINT_DATA  82
FIELD attributes 2
p 1 82 float
0.00429795 0.00433054 0.00433054 0.00429795 0.00436565 0.00436565 0.00437324 0.00437324 0.0043709 0.0043709 0.00437279
0.00437279 0.00438152 0.00438152 0.00439658 0.00439658 0.00441415 0.00441415 0.00443424 0.00443424 0.00445534
0.00445534 0.00447942 0.00447942 0.00450529 0.00450529 0.00453505 0.00453505 0.00456697 0.00456697 0.00460336
0.00460336 0.00464218 0.00464218 0.00468622 0.00468622 0.00473315 0.00473315 0.00478639 0.00478639 0.00484316
0.00484316 0.00490774 0.00490774 0.00497675 0.00497675 0.00505565 0.00505565 0.0051403 0.0051403 0.0052379
0.0052379 0.0053433 0.0053433 0.00546629 0.00546629 0.00560033 0.00560033 0.00575938 0.00575938 0.00593514
0.00593514 0.00614878 0.00614878 0.00638993 0.00638993 0.00669383 0.00669383 0.00704914 0.00704914 0.00752254
0.00752254 0.00811149 0.00811149 0.00899049 0.00899049 0.0102197 0.0102197 0.0122742 0.0122742 0.0137225
0.0137225 
U 3 82 float
0.491033 -0.00037981 0 0.500188 3.5773e-06 0 0.500188 3.5773e-06 0 0.491033 -0.00037981
0 0.499854 -3.19614e-06 0 0.499854 -3.19614e-06 0 0.500116 4.96963e-06 0
0.500116 4.96963e-06 0 0.499835 -1.10091e-06 0 0.499835 -1.10091e-06 0 0.500133
7.9117e-06 0 0.500133 7.9117e-06 0 0.499806 1.35523e-06 0 0.499806 1.35523e-06
0 0.500106 1.05506e-05 0 0.500106 1.05506e-05 0 0.499734 3.82646e-06 0
0.499734 3.82646e-06 0 0.500055 1.38807e-05 0 0.500055 1.38807e-05 0 0.499645
7.20827e-06 0 0.499645 7.20827e-06 0 0.499995 1.81864e-05 0 0.499995 1.81864e-05
0 0.499539 1.14927e-05 0 0.499539 1.14927e-05 0 0.49992 2.34213e-05 0
0.49992 2.34213e-05 0 0.49941 1.67003e-05 0 0.49941 1.67003e-05 0 0.499827
2.97022e-05 0 0.499827 2.97022e-05 0 0.499253 2.29609e-05 0 0.499253 2.29609e-05
0 0.499714 3.71782e-05 0 0.499714 3.71782e-05 0 0.499064 3.04502e-05 0
0.499064 3.04502e-05 0 0.499578 4.60728e-05 0 0.499578 4.60728e-05 0 0.498835
3.94951e-05 0 0.498835 3.94951e-05 0 0.499414 5.67812e-05 0 0.499414 5.67812e-05
0 0.498556 5.05783e-05 0 0.498556 5.05783e-05 0 0.499217 6.98211e-05 0
0.499217 6.98211e-05 0 0.498213 6.44364e-05 0 0.498213 6.44364e-05 0 0.498977
8.60588e-05 0 0.498977 8.60588e-05 0 0.497783 8.22764e-05 0 0.497783 8.22764e-05
0 0.498681 0.000106811 0 0.498681 0.000106811 0 0.497231 0.000106157 0
0.497231 0.000106157 0 0.498309 0.000134261 0 0.498309 0.000134261 0 0.496499
0.000139725 0 0.496499 0.000139725 0 0.497824 0.000172444 0 0.497824 0.000172444
0 0.495479 0.000189491 0 0.495479 0.000189491 0 0.497152 0.000229218 0
0.497152 0.000229218 0 0.493959 0.000274776 0 0.493959 0.000274776 0 0.496115
0.000327684 0 0.496115 0.000327684 0 0.491447 0.00045144 0 0.491447 0.00045144
0 0.494153 0.000507375 0 0.494153 0.000507375 0 0.486393 0.00104674 0
0.486393 0.00104674 0 0.489297 0.00178159 0 0.489297 0.00178159 0 0.545434
0.00264518 0 0.545434 0.00264518 0 
