# vtk DataFile Version 2.0
symmBound
ASCII
DATASET POLYDATA
POINTS 82 float
-0.02 0 0 -0.0195 0 0 -0.0195 0 0.001 -0.02 0
0.001 -0.019 0 0 -0.019 0 0.001 -0.0185 0 0
-0.0185 0 0.001 -0.018 0 0 -0.018 0 0.001 -0.0175
0 0 -0.0175 0 0.001 -0.017 0 0 -0.017 0
0.001 -0.0165 0 0 -0.0165 0 0.001 -0.016 0 0
-0.016 0 0.001 -0.0155 0 0 -0.0155 0 0.001 -0.015
0 0 -0.015 0 0.001 -0.0145 0 0 -0.0145 0
0.001 -0.014 0 0 -0.014 0 0.001 -0.0135 0 0
-0.0135 0 0.001 -0.013 0 0 -0.013 0 0.001 -0.0125
0 0 -0.0125 0 0.001 -0.012 0 0 -0.012 0
0.001 -0.0115 0 0 -0.0115 0 0.001 -0.011 0 0
-0.011 0 0.001 -0.0105 0 0 -0.0105 0 0.001 -0.01
0 0 -0.01 0 0.001 -0.0095 0 0 -0.0095 0
0.001 -0.009 0 0 -0.009 0 0.001 -0.0085 0 0
-0.0085 0 0.001 -0.008 0 0 -0.008 0 0.001 -0.0075
0 0 -0.0075 0 0.001 -0.007 0 0 -0.007 0
0.001 -0.0065 0 0 -0.0065 0 0.001 -0.006 0 0
-0.006 0 0.001 -0.0055 0 0 -0.0055 0 0.001 -0.005
0 0 -0.005 0 0.001 -0.0045 0 0 -0.0045 0
0.001 -0.004 0 0 -0.004 0 0.001 -0.0035 0 0
-0.0035 0 0.001 -0.003 0 0 -0.003 0 0.001 -0.0025
0 0 -0.0025 0 0.001 -0.002 0 0 -0.002 0
0.001 -0.0015 0 0 -0.0015 0 0.001 -0.001 0 0
-0.001 0 0.001 -0.0005 0 0 -0.0005 0 0.001 0
0 0 0 0 0.001 
POLYGONS 40 200
4 0 1 2 3 4 1 4 5 2 4
4 6 7 5 4 6 8 9 7 4
8 10 11 9 4 10 12 13 11 4
12 14 15 13 4 14 16 17 15 4
16 18 19 17 4 18 20 21 19 4
20 22 23 21 4 22 24 25 23 4
24 26 27 25 4 26 28 29 27 4
28 30 31 29 4 30 32 33 31 4
32 34 35 33 4 34 36 37 35 4
36 38 39 37 4 38 40 41 39 4
40 42 43 41 4 42 44 45 43 4
44 46 47 45 4 46 48 49 47 4
48 50 51 49 4 50 52 53 51 4
52 54 55 53 4 54 56 57 55 4
56 58 59 57 4 58 60 61 59 4
60 62 63 61 4 62 64 65 63 4
64 66 67 65 4 66 68 69 67 4
68 70 71 69 4 70 72 73 71 4
72 74 75 73 4 74 76 77 75 4
76 78 79 77 4 78 80 81 79 
CELL_DATA 40
FIELD attributes 3
patchID 1 40 float
4 4 4 4 4 4 4 4 4 4 4
4 4 4 4 4 4 4 4 4 4
4 4 4 4 4 4 4 4 4 4
4 4 4 4 4 4 4 4 4 
p 1 40 float
0.00439507 0.00446026 0.00446529 0.00447545 0.00446061 0.00447925 0.00447809 0.00450937 0.00451325 0.00454957 0.00455547
0.00459775 0.00460724 0.00465728 0.00467112 0.00473008 0.0047488 0.00481819 0.0048427 0.00492471 0.00495629
0.00505392 0.00509435 0.00521177 0.0052637 0.00540703 0.00547455 0.00565308 0.00574268 0.00597125 0.00609426
0.00639859 0.00657663 0.00700647 0.00728732 0.00795334 0.0084653 0.00971141 0.0109238 0.0138204 
U 3 40 float
0.491033 -0.000379807 0 0.509343 0.000386962 0 0.490365 -0.000393354 0 0.509867 0.000403294
0 0.489803 -0.000405494 0 0.510463 0.00042132 0 0.48915 -0.000418605 0
0.511062 0.000439712 0 0.488407 -0.000432052 0 0.511704 0.000459822 0 0.487587
-0.000445395 0 0.512403 0.000481781 0 0.486675 -0.00045878 0 0.513164 0.000505641
0 0.485655 -0.000472219 0 0.513998 0.000531649 0 0.484507 -0.000485699 0
0.514921 0.000560088 0 0.483206 -0.000499151 0 0.515949 0.000591338 0 0.48172
-0.000512302 0 0.517107 0.000625916 0 0.480005 -0.000524702 0 0.518428 0.000664408
0 0.477998 -0.000535464 0 0.519955 0.000707661 0 0.475611 -0.00054302 0
0.52175 0.00075674 0 0.472711 -0.000544319 0 0.523905 0.000812958 0 0.46909
-0.00053338 0 0.526556 0.000878406 0 0.4644 -0.000499277 0 0.529901 0.000957871
0 0.458014 -0.000408149 0 0.534213 0.0010637 0 0.448677 -0.000160623 0
0.539625 0.00117559 0 0.433157 0.000918094 0 0.545432 0.00264529 0 
POINT_DATA  82
FIELD attributes 2
p 1 82 float
0.00439507 0.00442767 0.00442767 0.00439507 0.00446277 0.00446277 0.00447037 0.00447037 0.00446803 0.00446803 0.00446993
0.00446993 0.00447867 0.00447867 0.00449373 0.00449373 0.00451131 0.00451131 0.00453141 0.00453141 0.00455252
0.00455252 0.00457661 0.00457661 0.0046025 0.0046025 0.00463226 0.00463226 0.0046642 0.0046642 0.0047006
0.0047006 0.00473944 0.00473944 0.0047835 0.0047835 0.00483045 0.00483045 0.00488371 0.00488371 0.0049405
0.0049405 0.0050051 0.0050051 0.00507414 0.00507414 0.00515306 0.00515306 0.00523773 0.00523773 0.00533536
0.00533536 0.00544079 0.00544079 0.00556381 0.00556381 0.00569788 0.00569788 0.00585697 0.00585697 0.00603275
0.00603275 0.00624643 0.00624643 0.00648761 0.00648761 0.00679155 0.00679155 0.00714689 0.00714689 0.00762033
0.00762033 0.00820932 0.00820932 0.00908835 0.00908835 0.0103176 0.0103176 0.0123721 0.0123721 0.0138204
0.0138204 
U 3 82 float
0.491033 -0.000379807 0 0.500188 3.5773e-06 0 0.500188 3.5773e-06 0 0.491033 -0.000379807
0 0.499854 -3.19584e-06 0 0.499854 -3.19584e-06 0 0.500116 4.97013e-06 0
0.500116 4.97013e-06 0 0.499835 -1.09994e-06 0 0.499835 -1.09994e-06 0 0.500133
7.9131e-06 0 0.500133 7.9131e-06 0 0.499806 1.35737e-06 0 0.499806 1.35737e-06
0 0.500106 1.05534e-05 0 0.500106 1.05534e-05 0 0.499734 3.83017e-06 0
0.499734 3.83017e-06 0 0.500055 1.38854e-05 0 0.500055 1.38854e-05 0 0.499645
7.21394e-06 0 0.499645 7.21394e-06 0 0.499995 1.81933e-05 0 0.499995 1.81933e-05
0 0.499539 1.15008e-05 0 0.499539 1.15008e-05 0 0.49992 2.34308e-05 0
0.49992 2.34308e-05 0 0.499409 1.67111e-05 0 0.499409 1.67111e-05 0 0.499827
2.97148e-05 0 0.499827 2.97148e-05 0 0.499253 2.29748e-05 0 0.499253 2.29748e-05
0 0.499714 3.71943e-05 0 0.499714 3.71943e-05 0 0.499063 3.04682e-05 0
0.499063 3.04682e-05 0 0.499577 4.60932e-05 0 0.499577 4.60932e-05 0 0.498835
3.95179e-05 0 0.498835 3.95179e-05 0 0.499414 5.68069e-05 0 0.499414 5.68069e-05
0 0.498556 5.0607e-05 0 0.498556 5.0607e-05 0 0.499216 6.98533e-05 0
0.499216 6.98533e-05 0 0.498213 6.44721e-05 0 0.498213 6.44721e-05 0 0.498976
8.60986e-05 0 0.498976 8.60986e-05 0 0.497783 8.23204e-05 0 0.497783 8.23204e-05
0 0.49868 0.00010686 0 0.49868 0.00010686 0 0.49723 0.00010621 0
0.49723 0.00010621 0 0.498308 0.000134319 0 0.498308 0.000134319 0 0.496498
0.000139789 0 0.496498 0.000139789 0 0.497823 0.000172513 0 0.497823 0.000172513
0 0.495478 0.000189564 0 0.495478 0.000189564 0 0.497151 0.000229297 0
0.497151 0.000229297 0 0.493958 0.000274861 0 0.493958 0.000274861 0 0.496114
0.000327775 0 0.496114 0.000327775 0 0.491445 0.000451538 0 0.491445 0.000451538
0 0.494151 0.000507483 0 0.494151 0.000507483 0 0.486391 0.00104684 0
0.486391 0.00104684 0 0.489295 0.00178169 0 0.489295 0.00178169 0 0.545432
0.00264529 0 0.545432 0.00264529 0 
