# vtk DataFile Version 2.0
symmBound
ASCII
DATASET POLYDATA
POINTS 82 float
-0.02 0 0 -0.0195 0 0 -0.0195 0 0.001 -0.02 0
0.001 -0.019 0 0 -0.019 0 0.001 -0.0185 0 0
-0.0185 0 0.001 -0.018 0 0 -0.018 0 0.001 -0.0175
0 0 -0.0175 0 0.001 -0.017 0 0 -0.017 0
0.001 -0.0165 0 0 -0.0165 0 0.001 -0.016 0 0
-0.016 0 0.001 -0.0155 0 0 -0.0155 0 0.001 -0.015
0 0 -0.015 0 0.001 -0.0145 0 0 -0.0145 0
0.001 -0.014 0 0 -0.014 0 0.001 -0.0135 0 0
-0.0135 0 0.001 -0.013 0 0 -0.013 0 0.001 -0.0125
0 0 -0.0125 0 0.001 -0.012 0 0 -0.012 0
0.001 -0.0115 0 0 -0.0115 0 0.001 -0.011 0 0
-0.011 0 0.001 -0.0105 0 0 -0.0105 0 0.001 -0.01
0 0 -0.01 0 0.001 -0.0095 0 0 -0.0095 0
0.001 -0.009 0 0 -0.009 0 0.001 -0.0085 0 0
-0.0085 0 0.001 -0.008 0 0 -0.008 0 0.001 -0.0075
0 0 -0.0075 0 0.001 -0.007 0 0 -0.007 0
0.001 -0.0065 0 0 -0.0065 0 0.001 -0.006 0 0
-0.006 0 0.001 -0.0055 0 0 -0.0055 0 0.001 -0.005
0 0 -0.005 0 0.001 -0.0045 0 0 -0.0045 0
0.001 -0.004 0 0 -0.004 0 0.001 -0.0035 0 0
-0.0035 0 0.001 -0.003 0 0 -0.003 0 0.001 -0.0025
0 0 -0.0025 0 0.001 -0.002 0 0 -0.002 0
0.001 -0.0015 0 0 -0.0015 0 0.001 -0.001 0 0
-0.001 0 0.001 -0.0005 0 0 -0.0005 0 0.001 0
0 0 0 0 0.001 
POLYGONS 40 200
4 0 1 2 3 4 1 4 5 2 4
4 6 7 5 4 6 8 9 7 4
8 10 11 9 4 10 12 13 11 4
12 14 15 13 4 14 16 17 15 4
16 18 19 17 4 18 20 21 19 4
20 22 23 21 4 22 24 25 23 4
24 26 27 25 4 26 28 29 27 4
28 30 31 29 4 30 32 33 31 4
32 34 35 33 4 34 36 37 35 4
36 38 39 37 4 38 40 41 39 4
40 42 43 41 4 42 44 45 43 4
44 46 47 45 4 46 48 49 47 4
48 50 51 49 4 50 52 53 51 4
52 54 55 53 4 54 56 57 55 4
56 58 59 57 4 58 60 61 59 4
60 62 63 61 4 62 64 65 63 4
64 66 67 65 4 66 68 69 67 4
68 70 71 69 4 70 72 73 71 4
72 74 75 73 4 74 76 77 75 4
76 78 79 77 4 78 80 81 79 
CELL_DATA 40
FIELD attributes 3
patchID 1 40 float
4 4 4 4 4 4 4 4 4 4 4
4 4 4 4 4 4 4 4 4 4
4 4 4 4 4 4 4 4 4 4
4 4 4 4 4 4 4 4 4 
p 1 40 float
0.00438326 0.00444844 0.00445348 0.00446363 0.0044488 0.00446743 0.00446627 0.00449756 0.00450143 0.00453775 0.00454365
0.00458593 0.00459542 0.00464546 0.0046593 0.00471825 0.00473698 0.00480636 0.00483087 0.00491288 0.00494445
0.00504209 0.00508251 0.00519992 0.00525185 0.00539518 0.00546269 0.00564122 0.00573082 0.00595938 0.00608239
0.00638672 0.00656475 0.00699459 0.00727544 0.00794145 0.0084534 0.00969951 0.0109119 0.0138085 
U 3 40 float
0.491033 -0.000379806 0 0.509343 0.000386961 0 0.490365 -0.000393352 0 0.509867 0.000403292
0 0.489803 -0.000405492 0 0.510463 0.000421318 0 0.48915 -0.000418604 0
0.511062 0.00043971 0 0.488407 -0.000432051 0 0.511704 0.00045982 0 0.487587
-0.000445394 0 0.512403 0.000481779 0 0.486675 -0.000458779 0 0.513164 0.000505638
0 0.485655 -0.000472218 0 0.513999 0.000531645 0 0.484507 -0.000485699 0
0.514921 0.000560084 0 0.483206 -0.000499152 0 0.515949 0.000591334 0 0.48172
-0.000512303 0 0.517107 0.000625911 0 0.480005 -0.000524703 0 0.518428 0.000664403
0 0.477998 -0.000535467 0 0.519955 0.000707655 0 0.475611 -0.000543024 0
0.52175 0.000756733 0 0.472711 -0.000544324 0 0.523906 0.000812949 0 0.46909
-0.000533385 0 0.526556 0.000878396 0 0.4644 -0.000499284 0 0.529901 0.00095786
0 0.458014 -0.000408158 0 0.534213 0.00106369 0 0.448677 -0.000160633 0
0.539625 0.00117557 0 0.433158 0.000918084 0 0.545432 0.00264528 0 
POINT_DATA  82
FIELD attributes 2
p 1 82 float
0.00438326 0.00441585 0.00441585 0.00438326 0.00445096 0.00445096 0.00445855 0.00445855 0.00445622 0.00445622 0.00445812
0.00445812 0.00446685 0.00446685 0.00448191 0.00448191 0.0044995 0.0044995 0.00451959 0.00451959 0.0045407
0.0045407 0.00456479 0.00456479 0.00459068 0.00459068 0.00462044 0.00462044 0.00465238 0.00465238 0.00468878
0.00468878 0.00472761 0.00472761 0.00477167 0.00477167 0.00481862 0.00481862 0.00487187 0.00487187 0.00492866
0.00492866 0.00499327 0.00499327 0.0050623 0.0050623 0.00514122 0.00514122 0.00522589 0.00522589 0.00532352
0.00532352 0.00542894 0.00542894 0.00555196 0.00555196 0.00568602 0.00568602 0.0058451 0.0058451 0.00602089
0.00602089 0.00623456 0.00623456 0.00647574 0.00647574 0.00677967 0.00677967 0.00713501 0.00713501 0.00760845
0.00760845 0.00819743 0.00819743 0.00907646 0.00907646 0.0103057 0.0103057 0.0123602 0.0123602 0.0138085
0.0138085 
U 3 82 float
0.491033 -0.000379806 0 0.500188 3.57731e-06 0 0.500188 3.57731e-06 0 0.491033 -0.000379806
0 0.499854 -3.19581e-06 0 0.499854 -3.19581e-06 0 0.500116 4.97011e-06 0
0.500116 4.97011e-06 0 0.499835 -1.09998e-06 0 0.499835 -1.09998e-06 0 0.500133
7.91296e-06 0 0.500133 7.91296e-06 0 0.499806 1.35718e-06 0 0.499806 1.35718e-06
0 0.500106 1.05531e-05 0 0.500106 1.05531e-05 0 0.499734 3.82978e-06 0
0.499734 3.82978e-06 0 0.500055 1.38849e-05 0 0.500055 1.38849e-05 0 0.499645
7.21334e-06 0 0.499645 7.21334e-06 0 0.499995 1.81925e-05 0 0.499995 1.81925e-05
0 0.499539 1.14999e-05 0 0.499539 1.14999e-05 0 0.49992 2.34298e-05 0
0.49992 2.34298e-05 0 0.49941 1.671e-05 0 0.49941 1.671e-05 0 0.499827
2.97134e-05 0 0.499827 2.97134e-05 0 0.499253 2.29733e-05 0 0.499253 2.29733e-05
0 0.499714 3.71926e-05 0 0.499714 3.71926e-05 0 0.499063 3.04662e-05 0
0.499063 3.04662e-05 0 0.499578 4.6091e-05 0 0.499578 4.6091e-05 0 0.498835
3.95154e-05 0 0.498835 3.95154e-05 0 0.499414 5.68041e-05 0 0.499414 5.68041e-05
0 0.498556 5.06038e-05 0 0.498556 5.06038e-05 0 0.499216 6.98498e-05 0
0.499216 6.98498e-05 0 0.498213 6.44682e-05 0 0.498213 6.44682e-05 0 0.498976
8.60942e-05 0 0.498976 8.60942e-05 0 0.497783 8.23155e-05 0 0.497783 8.23155e-05
0 0.49868 0.000106854 0 0.49868 0.000106854 0 0.497231 0.000106204 0
0.497231 0.000106204 0 0.498308 0.000134313 0 0.498308 0.000134313 0 0.496498
0.000139782 0 0.496498 0.000139782 0 0.497823 0.000172505 0 0.497823 0.000172505
0 0.495478 0.000189556 0 0.495478 0.000189556 0 0.497151 0.000229288 0
0.497151 0.000229288 0 0.493958 0.000274851 0 0.493958 0.000274851 0 0.496114
0.000327765 0 0.496114 0.000327765 0 0.491445 0.000451527 0 0.491445 0.000451527
0 0.494151 0.000507471 0 0.494151 0.000507471 0 0.486391 0.00104683 0
0.486391 0.00104683 0 0.489295 0.00178168 0 0.489295 0.00178168 0 0.545432
0.00264528 0 0.545432 0.00264528 0 
