# Residuals    
# Time         	p              	Ux             	Uy             
0.0001         	1.00000000e+00	1.00000000e+00	0.00000000e+00
0.0002         	1.66730220e-03	1.02282140e-01	2.02854830e-01
0.0003         	1.41471640e-03	5.62047430e-02	1.10957140e-01
0.0004         	1.22516280e-03	3.79713530e-02	7.33977470e-02
0.0005         	1.33042830e-03	2.82075410e-02	5.35802060e-02
0.0006         	1.44348770e-03	2.23839800e-02	4.21532710e-02
0.0007         	1.55150290e-03	1.83973950e-02	3.43415810e-02
0.0008         	1.69983060e-03	1.56977870e-02	2.93131400e-02
0.0009         	1.68110670e-03	1.35598040e-02	2.51889580e-02
0.001          	1.74280150e-03	1.19658940e-02	2.22244960e-02
0.0011         	1.67206070e-03	1.06566530e-02	1.97443630e-02
0.0012         	1.87071690e-03	9.51174880e-03	1.74868900e-02
0.0013         	1.81285360e-03	8.64252200e-03	1.59019200e-02
0.0014         	1.81341010e-03	7.94156520e-03	1.46693420e-02
0.0015         	1.92210090e-03	7.31464070e-03	1.35179720e-02
0.0016         	2.00765420e-03	6.73990340e-03	1.24139410e-02
0.0017         	1.83984960e-03	6.23985480e-03	1.14598080e-02
0.0018         	1.86033520e-03	5.81544780e-03	1.06819850e-02
0.0019         	1.89335040e-03	5.45235990e-03	1.00413310e-02
0.002          	2.01218410e-03	5.08774360e-03	9.33639180e-03
0.0021         	2.26100100e-03	4.75320730e-03	8.68248590e-03
0.0022         	1.95719770e-03	4.52339680e-03	8.32701020e-03
0.0023         	2.00633800e-03	4.29185040e-03	7.92444380e-03
0.0024         	2.05707800e-03	4.08814390e-03	7.57859000e-03
0.0025         	2.14744960e-03	3.85610350e-03	7.11241950e-03
0.0026         	2.34710090e-03	3.62698830e-03	6.63380940e-03
0.0027         	2.33822860e-03	3.48774500e-03	6.42685860e-03
0.0028         	2.21787770e-03	3.33340660e-03	6.14897620e-03
0.0029         	2.26068390e-03	3.20551110e-03	5.93894130e-03
0.003          	2.31635850e-03	3.07731060e-03	5.71172640e-03
0.0031         	2.55414280e-03	2.91959450e-03	5.38230950e-03
0.0032         	2.47904490e-03	2.78241090e-03	5.11160330e-03
0.0033         	2.59617070e-03	2.69361560e-03	4.98213690e-03
0.0034         	2.48542320e-03	2.58754680e-03	4.78639350e-03
0.0035         	2.56495640e-03	2.51731140e-03	4.69486120e-03
0.0036         	2.55972490e-03	2.43595790e-03	4.55659330e-03
0.0037         	2.60314000e-03	2.34812580e-03	4.39393120e-03
0.0038         	2.89627050e-03	2.23537010e-03	4.14448410e-03
0.0039         	2.79255670e-03	2.16482080e-03	4.02310430e-03
0.004          	2.87279500e-03	2.09864590e-03	3.90574820e-03
0.0041         	2.69299010e-03	2.05251990e-03	3.84890240e-03
0.0042         	2.81065700e-03	1.97901180e-03	3.70177840e-03
0.0043         	2.73435690e-03	1.95584700e-03	3.70536170e-03
0.0044         	2.86055760e-03	1.87365370e-03	3.52478230e-03
0.0045         	3.05854020e-03	1.81824660e-03	3.42655450e-03
0.0046         	2.91609260e-03	1.74823420e-03	3.27696910e-03
0.0047         	2.99216730e-03	1.70578360e-03	3.21022870e-03
0.0048         	3.05003620e-03	1.66342150e-03	3.13472790e-03
0.0049         	2.82163600e-03	1.63992600e-03	3.11731400e-03
0.005          	2.92489910e-03	1.58466600e-03	2.99837760e-03
0.0051         	2.87217550e-03	1.57902640e-03	3.02734760e-03
0.0052         	2.98144510e-03	1.51790710e-03	2.88829580e-03
0.0053         	3.20637310e-03	1.48141910e-03	2.82704920e-03
0.0054         	2.98822810e-03	1.42738840e-03	2.70785750e-03
0.0055         	2.99182620e-03	1.40117840e-03	2.67299980e-03
0.0056         	3.09173600e-03	1.35995290e-03	2.58607400e-03
0.0057         	3.00946160e-03	1.35631290e-03	2.61067160e-03
0.0058         	3.03301470e-03	1.31038680e-03	2.50761370e-03
0.0059         	2.92751460e-03	1.30586160e-03	2.52941860e-03
0.006          	2.94513660e-03	1.27262160e-03	2.45834990e-03
0.0061         	2.98087990e-03	1.26443490e-03	2.46624230e-03
0.0062         	3.31016080e-03	1.20091750e-03	2.30955780e-03
0.0063         	2.97663160e-03	1.19724090e-03	2.32920560e-03
0.0064         	3.17064830e-03	1.15121090e-03	2.22087200e-03
0.0065         	3.18248940e-03	1.13223130e-03	2.19596840e-03
0.0066         	3.21377960e-03	1.11386600e-03	2.16239620e-03
0.0067         	2.94303400e-03	1.11062560e-03	2.17859150e-03
0.0068         	3.03720530e-03	1.07511560e-03	2.09634040e-03
0.0069         	2.94975350e-03	1.07685780e-03	2.12333400e-03
0.007          	3.04706310e-03	1.04818350e-03	2.05719640e-03
0.0071         	3.00892000e-03	1.05577160e-03	2.09777130e-03
0.0072         	3.54877640e-03	9.97312650e-04	1.95407690e-03
0.0073         	3.18092920e-03	1.00205700e-03	1.98730200e-03
0.0074         	3.36852600e-03	9.64026280e-04	1.89549730e-03
0.0075         	3.34219160e-03	9.63222300e-04	1.91256810e-03
0.0076         	3.59244430e-03	9.16822280e-04	1.79981880e-03
0.0077         	3.46291790e-03	9.42418770e-04	1.88217570e-03
0.0078         	3.37794800e-03	9.07365480e-04	1.79787770e-03
0.0079         	3.19579960e-03	9.15682220e-04	1.83724040e-03
0.008          	3.41253100e-03	8.83656390e-04	1.75845480e-03
0.0081         	3.34483290e-03	8.95201330e-04	1.80585970e-03
0.0082         	3.43296700e-03	8.77881870e-04	1.76259600e-03
0.0083         	3.25049460e-03	8.62506320e-04	1.74213460e-03
0.0084         	3.60298670e-03	8.27593840e-04	1.65606440e-03
0.0085         	3.31072100e-03	8.37141960e-04	1.69663280e-03
0.0086         	3.49263260e-03	8.02751810e-04	1.61275950e-03
0.0087         	3.52907940e-03	8.08709780e-04	1.64210150e-03
0.0088         	3.82448520e-03	7.63888270e-04	1.53805610e-03
0.0089         	3.57583960e-03	7.94596800e-04	1.62168510e-03
0.009          	3.53120020e-03	7.63705060e-04	1.54731830e-03
0.0091         	3.30495590e-03	7.75691470e-04	1.58961160e-03
0.0092         	3.44612540e-03	7.46577020e-04	1.51805700e-03
0.0093         	3.34521600e-03	7.59442190e-04	1.56080910e-03
0.0094         	3.55149380e-03	7.34735300e-04	1.49789320e-03
0.0095         	3.38603550e-03	7.60539970e-04	1.57328500e-03
0.0096         	3.62534680e-03	7.08340460e-04	1.45111980e-03
0.0097         	3.51499690e-03	7.17545930e-04	1.48607910e-03
0.0098         	3.54649000e-03	6.90515370e-04	1.42118720e-03
0.0099         	3.41199420e-03	6.99182790e-04	1.45325410e-03
0.01           	3.55900250e-03	6.72118120e-04	1.38768970e-03
0.0101         	3.51950080e-03	6.76189130e-04	1.40954790e-03
0.0102         	3.82932520e-03	6.42934150e-04	1.33863290e-03
0.0103         	3.68536020e-03	6.71139400e-04	1.40327540e-03
0.0104         	3.51944240e-03	6.46426960e-04	1.34530900e-03
0.0105         	3.39730580e-03	6.56989460e-04	1.37912770e-03
0.0106         	3.52749570e-03	6.34343740e-04	1.32422940e-03
0.0107         	3.44555220e-03	6.45579110e-04	1.35817290e-03
0.0108         	3.64572930e-03	6.25001830e-04	1.30659210e-03
0.0109         	3.31970540e-03	6.45236910e-04	1.36032180e-03
0.011          	3.62669690e-03	6.21385830e-04	1.30154890e-03
0.0111         	3.86483870e-03	6.15817230e-04	1.30765580e-03
0.0112         	3.59896360e-03	5.94745490e-04	1.25829590e-03
0.0113         	3.46185560e-03	6.03784510e-04	1.28747490e-03
0.0114         	3.65532580e-03	5.81070450e-04	1.23476980e-03
0.0115         	3.53368460e-03	5.90052380e-04	1.26262630e-03
0.0116         	3.89024950e-03	5.66143750e-04	1.20951440e-03
0.0117         	3.93435230e-03	5.59839360e-04	1.21845300e-03
0.0118         	3.73744220e-03	5.59813740e-04	1.19709960e-03
0.0119         	3.59153970e-03	5.70995030e-04	1.22822900e-03
0.012          	3.66984610e-03	5.51045620e-04	1.18223930e-03
0.0121         	3.50867240e-03	5.61909350e-04	1.21245400e-03
0.0122         	3.66971760e-03	5.42482410e-04	1.16632480e-03
0.0123         	3.51131540e-03	5.54078210e-04	1.19776240e-03
0.0124         	3.71130290e-03	5.36182940e-04	1.15331320e-03
0.0125         	3.63095010e-03	5.52945290e-04	1.19559560e-03
0.0126         	3.73047540e-03	5.45490710e-04	1.16863750e-03
0.0127         	3.86469030e-03	5.32910480e-04	1.16329970e-03
0.0128         	3.88741480e-03	5.13354820e-04	1.11970430e-03
0.0129         	3.57354340e-03	5.24440550e-04	1.14929200e-03
0.013          	3.67051160e-03	5.06865500e-04	1.10776770e-03
0.0131         	3.55739350e-03	5.15965410e-04	1.13372970e-03
0.0132         	3.78288360e-03	4.94703820e-04	1.08751410e-03
0.0133         	3.72285780e-03	5.00954690e-04	1.10900260e-03
0.0134         	4.12425930e-03	4.76322920e-04	1.06571260e-03
0.0135         	4.14193510e-03	4.79474530e-04	1.08547010e-03
0.0136         	4.34481040e-03	4.79578260e-04	1.06082230e-03
0.0137         	3.76191450e-03	4.88691560e-04	1.08713770e-03
0.0138         	3.83589070e-03	4.71990850e-04	1.04863460e-03
0.0139         	3.64412740e-03	4.82793110e-04	1.07563240e-03
0.014          	3.81936180e-03	4.66039050e-04	1.03652850e-03
0.0141         	3.65720960e-03	4.77280390e-04	1.06431290e-03
0.0142         	3.89175690e-03	4.61715950e-04	1.02723610e-03
0.0143         	3.90180120e-03	4.75829740e-04	1.06059710e-03
0.0144         	3.96805060e-03	4.78531270e-04	1.05280430e-03
0.0145         	4.07314940e-03	4.64506900e-04	1.04303340e-03
0.0146         	4.37955890e-03	4.49317330e-04	1.00859320e-03
0.0147         	3.70417050e-03	4.56352640e-04	1.03073890e-03
0.0148         	3.90634690e-03	4.38503570e-04	9.93510110e-04
0.0149         	3.72266540e-03	4.47983120e-04	1.01649970e-03
0.015          	3.91107230e-03	4.31312700e-04	9.81448180e-04
0.0151         	3.81098710e-03	4.40693210e-04	1.00341300e-03
0.0152         	3.97928280e-03	4.25810330e-04	9.70732040e-04
0.0153         	3.98084570e-03	4.32077270e-04	9.89509260e-04
0.0154         	4.34763420e-03	4.02963790e-04	9.56950420e-04
0.0155         	3.92965450e-03	4.24366880e-04	9.77072660e-04
0.0156         	4.24952010e-03	4.14652230e-04	9.50523870e-04
0.0157         	3.80477000e-03	4.22017770e-04	9.70009940e-04
0.0158         	3.89602020e-03	4.08384840e-04	9.40190710e-04
0.0159         	3.75666440e-03	4.16739330e-04	9.58679810e-04
0.016          	3.91859170e-03	4.04129210e-04	9.30525120e-04
0.0161         	3.77127070e-03	4.11896340e-04	9.48480590e-04
0.0162         	3.94929060e-03	4.00821710e-04	9.23721400e-04
0.0163         	3.87201100e-03	4.06204950e-04	9.37550560e-04
0.0164         	4.19023240e-03	4.02432480e-04	9.22529700e-04
0.0165         	3.81697930e-03	4.27148170e-04	9.72727200e-04
0.0166         	4.02856310e-03	3.89442280e-04	9.06951570e-04
0.0167         	3.99399550e-03	3.93322740e-04	9.17394910e-04
0.0168         	3.99877760e-03	3.84421980e-04	9.00034980e-04
0.0169         	3.94186340e-03	3.88053050e-04	9.08471480e-04
0.017          	3.89484430e-03	3.79615570e-04	8.91909500e-04
0.0171         	3.88796460e-03	3.82816250e-04	8.98958880e-04
0.0172         	4.02934820e-03	3.74007840e-04	8.82897740e-04
0.0173         	3.81001780e-03	3.76395100e-04	8.88654650e-04
0.0174         	3.97127490e-03	3.68813530e-04	8.74737090e-04
0.0175         	3.94897540e-03	3.75729530e-04	8.82458750e-04
0.0176         	4.36653890e-03	3.53065830e-04	8.67632200e-04
0.0177         	4.48704190e-03	3.59610340e-04	8.70126830e-04
0.0178         	4.54495820e-03	3.60904980e-04	8.58284090e-04
0.0179         	3.82272000e-03	3.62013100e-04	8.61797870e-04
0.018          	3.86859820e-03	3.56804100e-04	8.50298440e-04
0.0181         	3.76067140e-03	3.58728300e-04	8.52803260e-04
0.0182         	3.80393340e-03	3.53850240e-04	8.42218820e-04
0.0183         	3.76494400e-03	3.55061480e-04	8.44577780e-04
0.0184         	3.80956710e-03	3.51119920e-04	8.36646880e-04
0.0185         	3.78508160e-03	3.51936520e-04	8.38522200e-04
0.0186         	3.86710630e-03	3.49118750e-04	8.31393730e-04
0.0187         	3.79035560e-03	3.49671070e-04	8.32352990e-04
0.0188         	3.92692730e-03	3.53148370e-04	8.34615900e-04
0.0189         	3.83320130e-03	3.68172400e-04	8.62276720e-04
0.019          	3.99962060e-03	3.39409010e-04	8.15777180e-04
0.0191         	3.88410050e-03	3.39352640e-04	8.15677460e-04
0.0192         	3.76162810e-03	3.35801390e-04	8.08355370e-04
0.0193         	3.75755850e-03	3.35505240e-04	8.08288570e-04
0.0194         	3.83500980e-03	3.31821090e-04	8.01412420e-04
0.0195         	3.74595700e-03	3.31084140e-04	8.01367790e-04
0.0196         	3.77667320e-03	3.27690190e-04	7.96518830e-04
0.0197         	3.75561780e-03	3.26630180e-04	7.96059080e-04
0.0198         	3.84368670e-03	3.24128730e-04	7.91235850e-04
0.0199         	4.21694590e-03	3.20406860e-04	7.89179650e-04
0.02           	4.41140110e-03	3.06364860e-04	7.93284040e-04
0.0201         	4.02405650e-03	3.22545790e-04	7.82743530e-04
0.0202         	4.04288270e-03	3.18893440e-04	7.78680170e-04
0.0203         	3.71985640e-03	3.16819140e-04	7.74382580e-04
0.0204         	3.64743670e-03	3.15926550e-04	7.71832060e-04
0.0205         	3.67054200e-03	3.13175900e-04	7.66659310e-04
0.0206         	3.59055710e-03	3.13005920e-04	7.65125240e-04
0.0207         	3.63406700e-03	3.09941420e-04	7.59864450e-04
0.0208         	3.64764680e-03	3.10072350e-04	7.60456510e-04
0.0209         	3.81595710e-03	3.07112000e-04	7.56685840e-04
0.021          	3.75723710e-03	3.07219320e-04	7.57285630e-04
0.0211         	3.64421210e-03	3.04125870e-04	7.52534650e-04
0.0212         	3.66448140e-03	3.04229900e-04	7.52252170e-04
0.0213         	3.89758210e-03	3.02176340e-04	7.49223330e-04
0.0214         	3.74827380e-03	3.03370770e-04	7.50885070e-04
0.0215         	3.67440480e-03	3.09967110e-04	7.62176270e-04
0.0216         	3.54320800e-03	3.21258460e-04	7.82766410e-04
0.0217         	3.55146500e-03	3.24211290e-04	7.87773110e-04
0.0218         	4.14596760e-03	2.92825770e-04	7.33302700e-04
0.0219         	3.68921160e-03	2.93095260e-04	7.32197740e-04
0.022          	3.59347150e-03	2.90677050e-04	7.26949310e-04
0.0221         	3.52553700e-03	2.91374140e-04	7.26738080e-04
0.0222         	3.65052350e-03	2.86149560e-04	7.20782110e-04
0.0223         	3.61768850e-03	2.85212410e-04	7.20389380e-04
0.0224         	3.67715350e-03	2.83570770e-04	7.17381210e-04
0.0225         	3.61529220e-03	2.83856700e-04	7.16699210e-04
0.0226         	3.63560380e-03	2.82657650e-04	7.13514480e-04
0.0227         	3.62671650e-03	2.86204180e-04	7.16719690e-04
0.0228         	3.47240040e-03	2.81865210e-04	7.11752500e-04
0.0229         	3.43940930e-03	2.81600100e-04	7.11247240e-04
0.023          	3.52784250e-03	2.81758800e-04	7.10327270e-04
0.0231         	3.41399290e-03	2.88487730e-04	7.20434800e-04
0.0232         	3.75791660e-03	2.75495750e-04	7.02486800e-04
0.0233         	4.15049180e-03	2.72068230e-04	6.98453830e-04
0.0234         	4.19262490e-03	2.69918750e-04	6.95813140e-04
0.0235         	4.10791210e-03	2.56248070e-04	7.01933620e-04
0.0236         	3.75019260e-03	2.67842610e-04	6.89236930e-04
0.0237         	3.76562770e-03	2.71429530e-04	6.87861040e-04
0.0238         	3.86366190e-03	2.71299550e-04	6.87958710e-04
0.0239         	3.63002500e-03	2.76983570e-04	6.97558680e-04
0.024          	3.56170010e-03	2.66957200e-04	6.79407370e-04
0.0241         	3.60114290e-03	2.63149940e-04	6.72268190e-04
0.0242         	3.50007710e-03	2.65010700e-04	6.72664980e-04
0.0243         	3.58410830e-03	2.61227080e-04	6.64886270e-04
0.0244         	3.44630330e-03	2.62016600e-04	6.63766210e-04
0.0245         	3.52711830e-03	2.58766250e-04	6.56320740e-04
0.0246         	3.50997790e-03	2.59091750e-04	6.54532820e-04
0.0247         	3.52218400e-03	2.56937480e-04	6.49724400e-04
0.0248         	3.41105680e-03	2.57940180e-04	6.50310830e-04
0.0249         	3.50735990e-03	2.57680760e-04	6.50497220e-04
0.025          	3.53984530e-03	2.65009080e-04	6.63916760e-04
0.0251         	3.59796020e-03	2.58967770e-04	6.54625310e-04
0.0252         	3.29055630e-03	2.57339750e-04	6.52854710e-04
0.0253         	3.34214510e-03	2.55629780e-04	6.50662100e-04
0.0254         	3.31103670e-03	2.54252590e-04	6.48590800e-04
0.0255         	3.33960770e-03	2.53990470e-04	6.48296190e-04
0.0256         	3.36424450e-03	2.54867560e-04	6.49288600e-04
0.0257         	3.60472890e-03	2.59337130e-04	6.56883550e-04
0.0258         	3.39927960e-03	2.77150730e-04	6.92058510e-04
0.0259         	3.67214340e-03	2.56196500e-04	6.49861790e-04
0.026          	3.73370730e-03	2.64599930e-04	6.67519840e-04
0.0261         	3.24059700e-03	2.53161790e-04	6.43191570e-04
0.0262         	3.13476050e-03	2.52427990e-04	6.41092400e-04
0.0263         	3.04971150e-03	2.52464280e-04	6.40904440e-04
0.0264         	2.98106680e-03	2.51533080e-04	6.38768070e-04
0.0265         	3.14290920e-03	2.50045310e-04	6.35806960e-04
0.0266         	3.20879700e-03	2.47634490e-04	6.30867340e-04
0.0267         	3.26628730e-03	2.43258380e-04	6.21751250e-04
0.0268         	3.25657930e-03	2.40272010e-04	6.15439450e-04
0.0269         	3.56545480e-03	2.39071040e-04	6.13264590e-04
0.027          	3.44966330e-03	2.40620850e-04	6.17791540e-04
0.0271         	3.25219360e-03	2.44298430e-04	6.25839100e-04
0.0272         	3.28633330e-03	2.50287330e-04	6.40515550e-04
0.0273         	3.29147240e-03	2.39742990e-04	6.20238380e-04
0.0274         	3.29695400e-03	2.40209290e-04	6.22317130e-04
0.0275         	3.24362590e-03	2.38552300e-04	6.18729720e-04
0.0276         	3.10955400e-03	2.42450250e-04	6.27359490e-04
0.0277         	3.51674920e-03	2.41697000e-04	6.25380910e-04
0.0278         	3.42484250e-03	2.37184230e-04	6.15644860e-04
0.0279         	3.31815000e-03	2.31669980e-04	6.05646780e-04
0.028          	3.54125450e-03	2.28624980e-04	6.02117730e-04
0.0281         	3.65912150e-03	2.29531560e-04	6.01791170e-04
0.0282         	3.50833120e-03	2.28481740e-04	6.00443680e-04
0.0283         	3.78260930e-03	2.23508730e-04	5.90428310e-04
0.0284         	3.48955640e-03	2.21379130e-04	5.85242610e-04
0.0285         	3.60775060e-03	2.19188150e-04	5.81680290e-04
0.0286         	3.78407710e-03	2.13468010e-04	5.81799360e-04
0.0287         	3.55784450e-03	2.18752780e-04	5.79175240e-04
0.0288         	3.46805400e-03	2.21089250e-04	5.81199230e-04
0.0289         	3.28731040e-03	2.23800460e-04	5.85240100e-04
0.029          	3.26087450e-03	2.25245040e-04	5.87350860e-04
0.0291         	3.26503780e-03	2.16911610e-04	5.71826600e-04
0.0292         	3.30368060e-03	2.15399310e-04	5.68770180e-04
0.0293         	3.21234020e-03	2.17176280e-04	5.70633520e-04
0.0294         	3.18209020e-03	2.18680960e-04	5.72552700e-04
0.0295         	3.27140900e-03	2.19157980e-04	5.71998860e-04
0.0296         	3.20319120e-03	2.18088040e-04	5.69516470e-04
0.0297         	3.15958870e-03	2.15597120e-04	5.66436610e-04
0.0298         	3.43204860e-03	2.16305690e-04	5.68305710e-04
0.0299         	3.41424420e-03	2.16910590e-04	5.70320160e-04
0.03           	3.15106210e-03	2.17703860e-04	5.72786980e-04
0.0301         	3.08826570e-03	2.22568490e-04	5.85484560e-04
0.0302         	3.17533100e-03	2.18257550e-04	5.76311000e-04
0.0303         	3.46815480e-03	2.10249920e-04	5.60781020e-04
0.0304         	3.47455980e-03	2.07996580e-04	5.57513770e-04
0.0305         	3.63906390e-03	2.04967490e-04	5.52894290e-04
0.0306         	3.08429460e-03	2.15023520e-04	5.65060010e-04
0.0307         	3.20744560e-03	2.13081410e-04	5.61053390e-04
0.0308         	3.58555260e-03	2.06437700e-04	5.49964210e-04
0.0309         	3.42043440e-03	2.08660500e-04	5.52453300e-04
0.031          	3.12026880e-03	2.18215580e-04	5.73531660e-04
0.0311         	3.11713490e-03	2.12411400e-04	5.62001330e-04
0.0312         	3.14780060e-03	2.01174980e-04	5.42352360e-04
0.0313         	3.27560720e-03	1.97480250e-04	5.39487920e-04
0.0314         	3.52236900e-03	1.95640910e-04	5.38815200e-04
0.0315         	3.75421330e-03	1.89383600e-04	5.43100040e-04
0.0316         	3.80758400e-03	1.97088190e-04	5.37507950e-04
0.0317         	3.12337350e-03	1.96179220e-04	5.36293130e-04
0.0318         	3.12599140e-03	1.97246010e-04	5.36773000e-04
0.0319         	3.20048620e-03	1.98848550e-04	5.38658010e-04
0.032          	3.24647380e-03	1.93653030e-04	5.30795360e-04
0.0321         	3.26987840e-03	1.90119360e-04	5.26819800e-04
0.0322         	3.46105140e-03	1.88716890e-04	5.24980580e-04
0.0323         	3.38831720e-03	1.87956530e-04	5.24035830e-04
0.0324         	3.59623620e-03	1.84820060e-04	5.25083180e-04
0.0325         	3.19789060e-03	1.87801860e-04	5.21020670e-04
0.0326         	3.44098640e-03	1.86990520e-04	5.20015490e-04
0.0327         	3.45979160e-03	1.82878610e-04	5.17685760e-04
0.0328         	3.37472360e-03	1.82639670e-04	5.15824080e-04
0.0329         	3.40058300e-03	1.82361230e-04	5.14425360e-04
0.033          	3.39846990e-03	1.82297460e-04	5.13136480e-04
0.0331         	3.23495120e-03	1.82426460e-04	5.11987060e-04
0.0332         	3.27394310e-03	1.80590500e-04	5.10276720e-04
0.0333         	3.31507480e-03	1.78105150e-04	5.08897430e-04
0.0334         	3.44641950e-03	1.78598380e-04	5.06840790e-04
0.0335         	3.41392660e-03	1.82900800e-04	5.06597980e-04
0.0336         	3.63099570e-03	1.76347510e-04	5.05045590e-04
0.0337         	4.01154930e-03	1.66841670e-04	5.19223270e-04
0.0338         	4.23190610e-03	1.72080260e-04	5.04920310e-04
0.0339         	4.14928870e-03	1.70949440e-04	5.05547370e-04
0.034          	4.00474860e-03	1.73246600e-04	4.99697280e-04
0.0341         	3.75199060e-03	1.71604420e-04	5.02248370e-04
0.0342         	3.89727650e-03	1.71832290e-04	5.00480130e-04
0.0343         	3.26294670e-03	1.72301770e-04	4.98563010e-04
0.0344         	3.21386700e-03	1.72035920e-04	4.97661920e-04
0.0345         	3.19704570e-03	1.72285530e-04	4.96142880e-04
0.0346         	3.21647200e-03	1.71597790e-04	4.95033740e-04
0.0347         	3.25429720e-03	1.70597070e-04	4.94018540e-04
0.0348         	3.36886050e-03	1.68799350e-04	4.93920460e-04
0.0349         	3.37897450e-03	1.68420790e-04	4.92495150e-04
0.035          	3.42282310e-03	1.68184340e-04	4.91268050e-04
0.0351         	3.32028030e-03	1.67931430e-04	4.90948340e-04
0.0352         	3.49068200e-03	1.67000110e-04	4.91475080e-04
0.0353         	3.61814310e-03	1.65569670e-04	4.92759810e-04
0.0354         	3.90749160e-03	1.61395840e-04	5.00423870e-04
0.0355         	3.66903590e-03	1.65292460e-04	4.90031190e-04
0.0356         	3.69728690e-03	1.67474630e-04	4.87471020e-04
0.0357         	3.94923550e-03	1.62905020e-04	4.89855450e-04
0.0358         	3.56061050e-03	1.59760850e-04	4.94098890e-04
0.0359         	3.59278340e-03	1.60424010e-04	4.89604330e-04
0.036          	3.55599490e-03	1.60974030e-04	4.85521890e-04
0.0361         	3.51113680e-03	1.59980730e-04	4.84474120e-04
0.0362         	3.58932260e-03	1.59226270e-04	4.83462440e-04
0.0363         	3.67270020e-03	1.58670250e-04	4.82248940e-04
0.0364         	3.75203900e-03	1.58589830e-04	4.80256930e-04
0.0365         	3.52921030e-03	1.59519610e-04	4.77414500e-04
0.0366         	4.19611710e-03	1.53388540e-04	4.88203030e-04
0.0367         	4.61298750e-03	1.50623360e-04	4.94559570e-04
0.0368         	3.97360980e-03	1.52383720e-04	4.85580180e-04
0.0369         	3.85257300e-03	1.51866800e-04	4.83955280e-04
0.037          	3.79262770e-03	1.50575640e-04	4.84387280e-04
0.0371         	4.05681980e-03	1.46506540e-04	4.93120660e-04
0.0372         	3.94762940e-03	1.49725160e-04	4.82250450e-04
0.0373         	3.86677470e-03	1.49818050e-04	4.80204850e-04
0.0374         	3.74505490e-03	1.51643310e-04	4.75999030e-04
0.0375         	3.96706830e-03	1.47651520e-04	4.82383890e-04
0.0376         	3.87004480e-03	1.45125390e-04	4.87306520e-04
0.0377         	4.09774130e-03	1.42146400e-04	4.95195480e-04
0.0378         	3.73104050e-03	1.43938680e-04	4.85840210e-04
0.0379         	3.60658020e-03	1.44307670e-04	4.81934640e-04
0.038          	3.65007120e-03	1.44073590e-04	4.80290580e-04
0.0381         	3.71401100e-03	1.43990080e-04	4.78790680e-04
0.0382         	3.90656910e-03	1.43164400e-04	4.79666220e-04
0.0383         	4.02534100e-03	1.42268200e-04	4.80560120e-04
0.0384         	4.17962610e-03	1.40930160e-04	4.82281520e-04
0.0385         	4.31207440e-03	1.41062160e-04	4.78903800e-04
0.0386         	4.38164560e-03	1.46005720e-04	4.66180770e-04
0.0387         	4.66680880e-03	1.37549250e-04	4.88543820e-04
0.0388         	4.69455500e-03	1.42482140e-04	4.69064480e-04
0.0389         	4.24876200e-03	1.44962770e-04	4.62988180e-04
0.039          	3.96138780e-03	1.49561940e-04	4.60647040e-04
0.0391         	4.12378890e-03	1.38599490e-04	4.78440580e-04
0.0392         	3.72208300e-03	1.42100790e-04	4.64262270e-04
0.0393         	3.76061180e-03	1.42364020e-04	4.62473240e-04
0.0394         	3.67886800e-03	1.42462260e-04	4.61054880e-04
0.0395         	3.86054450e-03	1.40915780e-04	4.62566450e-04
0.0396         	3.63440330e-03	1.41006930e-04	4.59410190e-04
0.0397         	3.51783980e-03	1.44426150e-04	4.55128460e-04
0.0398         	3.67801700e-03	1.45504150e-04	4.54016260e-04
0.0399         	3.22662110e-03	1.45598360e-04	4.53388250e-04
0.04           	3.27542440e-03	1.46998750e-04	4.53129730e-04
0.0401         	3.50882160e-03	1.48697430e-04	4.53952610e-04
0.0402         	3.45135540e-03	1.50797920e-04	4.56450040e-04
0.0403         	3.11634000e-03	1.61548060e-04	4.80659300e-04
0.0404         	3.10833410e-03	1.56202650e-04	4.66986500e-04
0.0405         	3.15885840e-03	1.48436870e-04	4.52477290e-04
0.0406         	3.52752330e-03	1.47429180e-04	4.50933070e-04
0.0407         	3.37990910e-03	1.45407750e-04	4.48249580e-04
0.0408         	3.55809100e-03	1.48222590e-04	4.52212150e-04
0.0409         	3.45571430e-03	1.45473400e-04	4.48667650e-04
0.041          	3.65657830e-03	1.49104270e-04	4.53577320e-04
0.0411         	3.65258200e-03	1.46506330e-04	4.50167780e-04
0.0412         	3.07690480e-03	1.50225480e-04	4.56777440e-04
0.0413         	3.12744700e-03	1.53532610e-04	4.65113770e-04
0.0414         	2.95368070e-03	1.57510680e-04	4.76052700e-04
0.0415         	3.00777480e-03	1.61778050e-04	4.88020980e-04
0.0416         	2.96555780e-03	1.51000770e-04	4.58695330e-04
0.0417         	3.18461330e-03	1.54972120e-04	4.69437560e-04
0.0418         	2.87431490e-03	1.58218540e-04	4.77704310e-04
0.0419         	2.89268840e-03	1.60085630e-04	4.83072030e-04
0.042          	3.05692580e-03	1.55075220e-04	4.71614670e-04
0.0421         	3.13776870e-03	1.54470470e-04	4.70629680e-04
0.0422         	3.04399050e-03	1.55922460e-04	4.74910200e-04
0.0423         	2.97106890e-03	1.56769100e-04	4.77609810e-04
0.0424         	2.94893150e-03	1.58705860e-04	4.83218320e-04
0.0425         	3.10252140e-03	1.63960700e-04	4.98261610e-04
0.0426         	2.80044740e-03	1.56165140e-04	4.77051670e-04
0.0427         	2.92084940e-03	1.54310690e-04	4.72794510e-04
0.0428         	2.99207210e-03	1.58325220e-04	4.83448890e-04
0.0429         	3.10787610e-03	1.57218660e-04	4.81486740e-04
0.043          	3.03443000e-03	1.57701050e-04	4.83827800e-04
0.0431         	3.02027870e-03	1.63525390e-04	4.99401030e-04
0.0432         	2.98711260e-03	1.66743900e-04	5.08167090e-04
0.0433         	2.82025370e-03	1.76142560e-04	5.35845600e-04
0.0434         	2.82340310e-03	1.63274930e-04	5.00381480e-04
0.0435         	2.80538650e-03	1.63497190e-04	5.01181790e-04
0.0436         	2.72169220e-03	1.64597360e-04	5.04389380e-04
0.0437         	2.65332720e-03	1.65247520e-04	5.06568920e-04
0.0438         	2.67577800e-03	1.64836020e-04	5.05589360e-04
0.0439         	2.66905600e-03	1.67718180e-04	5.14274910e-04
0.044          	2.56583990e-03	1.69983860e-04	5.21235640e-04
0.0441         	2.73757610e-03	1.75867390e-04	5.38667530e-04
0.0442         	2.81873650e-03	1.68388430e-04	5.17384130e-04
0.0443         	2.80229790e-03	1.67614490e-04	5.15810980e-04
0.0444         	2.79896070e-03	1.72019850e-04	5.28600770e-04
0.0445         	2.98228940e-03	1.74967790e-04	5.36859740e-04
0.0446         	2.57769310e-03	1.79149220e-04	5.49803500e-04
0.0447         	2.59745030e-03	1.81475240e-04	5.57404250e-04
0.0448         	2.60831860e-03	1.81128570e-04	5.56380630e-04
0.0449         	2.64112050e-03	1.77837060e-04	5.46578080e-04
0.045          	2.49605560e-03	1.79925140e-04	5.53201360e-04
0.0451         	2.40904270e-03	1.80364490e-04	5.54876540e-04
0.0452         	2.34215150e-03	1.83477720e-04	5.64662750e-04
0.0453         	2.40655750e-03	1.89572850e-04	5.83465340e-04
0.0454         	2.36446250e-03	1.82839360e-04	5.63306750e-04
0.0455         	2.34439630e-03	1.85692530e-04	5.71987670e-04
0.0456         	2.54236230e-03	1.86932720e-04	5.75899330e-04
0.0457         	2.51092440e-03	1.79546960e-04	5.55122740e-04
0.0458         	2.75038910e-03	1.79219160e-04	5.55455870e-04
0.0459         	2.79114730e-03	1.76766490e-04	5.46599080e-04
0.046          	2.58514420e-03	1.76871240e-04	5.46905110e-04
0.0461         	2.37659930e-03	1.74797010e-04	5.40463620e-04
0.0462         	2.42246140e-03	1.78785810e-04	5.52474800e-04
0.0463         	2.58070240e-03	1.69804500e-04	5.25689780e-04
0.0464         	2.58986440e-03	1.73393020e-04	5.35941180e-04
0.0465         	2.53763630e-03	1.69526490e-04	5.24519220e-04
0.0466         	2.56999080e-03	1.64738720e-04	5.11778280e-04
0.0467         	2.81069400e-03	1.55949130e-04	4.89263060e-04
0.0468         	2.82706790e-03	1.54618970e-04	4.86392970e-04
0.0469         	3.10595030e-03	1.40878150e-04	4.51907630e-04
0.047          	3.15695420e-03	1.39739960e-04	4.49720800e-04
0.0471         	3.35534160e-03	1.31711920e-04	4.31155800e-04
0.0472         	3.08371420e-03	1.32681600e-04	4.31339530e-04
0.0473         	3.21213260e-03	1.29816940e-04	4.23959080e-04
0.0474         	3.15106560e-03	1.29791800e-04	4.22245970e-04
0.0475         	3.14054710e-03	1.29415100e-04	4.20271960e-04
0.0476         	3.30605410e-03	1.25069850e-04	4.11472170e-04
0.0477         	3.33413330e-03	1.23006920e-04	4.08247800e-04
0.0478         	3.53837760e-03	1.17789110e-04	4.04172530e-04
0.0479         	3.46522920e-03	1.16722050e-04	4.04161240e-04
0.048          	3.60449460e-03	1.14794010e-04	4.03982640e-04
0.0481         	3.68511930e-03	1.14071790e-04	4.04016830e-04
0.0482         	3.72469180e-03	1.11751630e-04	4.07814260e-04
0.0483         	3.71047810e-03	1.11766310e-04	4.05345860e-04
0.0484         	3.61231160e-03	1.10741000e-04	4.05974730e-04
0.0485         	3.79511600e-03	1.09893120e-04	4.07265070e-04
0.0486         	3.96379740e-03	1.09510500e-04	4.06029450e-04
0.0487         	3.84218350e-03	1.09015320e-04	4.06190250e-04
0.0488         	3.89993320e-03	1.08139180e-04	4.08265760e-04
0.0489         	3.94993380e-03	1.07607550e-04	4.08754260e-04
0.049          	4.04861400e-03	1.05768450e-04	4.16866620e-04