# vtk DataFile Version 2.0
outlet
ASCII
DATASET POLYDATA
POINTS 182 float
0.1 0.02 0 0.1 0.0207299 0 0.1 0.0207299 0.001 0.1 0.02
0.001 0.1 0.021488 0 0.1 0.021488 0.001 0.1 0.0222754 0
0.1 0.0222754 0.001 0.1 0.0230932 0 0.1 0.0230932 0.001 0.1
0.0239425 0 0.1 0.0239425 0.001 0.1 0.0248247 0 0.1 0.0248247
0.001 0.1 0.0257409 0 0.1 0.0257409 0.001 0.1 0.0266925 0
0.1 0.0266925 0.001 0.1 0.0276808 0 0.1 0.0276808 0.001 0.1
0.0287073 0 0.1 0.0287073 0.001 0.1 0.0297734 0 0.1 0.0297734
0.001 0.1 0.0308807 0 0.1 0.0308807 0.001 0.1 0.0320307 0
0.1 0.0320307 0.001 0.1 0.0332251 0 0.1 0.0332251 0.001 0.1
0.0344656 0 0.1 0.0344656 0.001 0.1 0.0357541 0 0.1 0.0357541
0.001 0.1 0.0370923 0 0.1 0.0370923 0.001 0.1 0.0384821 0
0.1 0.0384821 0.001 0.1 0.0399257 0 0.1 0.0399257 0.001 0.1
0.0414249 0 0.1 0.0414249 0.001 0.1 0.042982 0 0.1 0.042982
0.001 0.1 0.0445993 0 0.1 0.0445993 0.001 0.1 0.046279 0
0.1 0.046279 0.001 0.1 0.0480236 0 0.1 0.0480236 0.001 0.1
0.0498355 0 0.1 0.0498355 0.001 0.1 0.0517173 0 0.1 0.0517173
0.001 0.1 0.0536719 0 0.1 0.0536719 0.001 0.1 0.0557019 0
0.1 0.0557019 0.001 0.1 0.0578102 0 0.1 0.0578102 0.001 0.1
0.06 0 0.1 0.06 0.001 0.1 0 0 0.1 8.46956e-05
0 0.1 8.46956e-05 0.001 0.1 0 0.001 0.1 0.000172762 0
0.1 0.000172762 0.001 0.1 0.000264333 0 0.1 0.000264333 0.001 0.1
0.000359549 0 0.1 0.000359549 0.001 0.1 0.000458554 0 0.1 0.000458554
0.001 0.1 0.0005615 0 0.1 0.0005615 0.001 0.1 0.000668542 0
0.1 0.000668542 0.001 0.1 0.000779845 0 0.1 0.000779845 0.001 0.1
0.000895577 0 0.1 0.000895577 0.001 0.1 0.00101591 0 0.1 0.00101591
0.001 0.1 0.00114104 0 0.1 0.00114104 0.001 0.1 0.00127115 0
0.1 0.00127115 0.001 0.1 0.00140644 0 0.1 0.00140644 0.001 0.1
0.0015471 0 0.1 0.0015471 0.001 0.1 0.00169337 0 0.1 0.00169337
0.001 0.1 0.00184546 0 0.1 0.00184546 0.001 0.1 0.0020036 0
0.1 0.0020036 0.001 0.1 0.00216804 0 0.1 0.00216804 0.001 0.1
0.00233902 0 0.1 0.00233902 0.001 0.1 0.00251681 0 0.1 0.00251681
0.001 0.1 0.00270167 0 0.1 0.00270167 0.001 0.1 0.00289388 0
0.1 0.00289388 0.001 0.1 0.00309375 0 0.1 0.00309375 0.001 0.1
0.00330157 0 0.1 0.00330157 0.001 0.1 0.00351767 0 0.1 0.00351767
0.001 0.1 0.00374236 0 0.1 0.00374236 0.001 0.1 0.00397599 0
0.1 0.00397599 0.001 0.1 0.00421893 0 0.1 0.00421893 0.001 0.1
0.00447153 0 0.1 0.00447153 0.001 0.1 0.00473419 0 0.1 0.00473419
0.001 0.1 0.0050073 0 0.1 0.0050073 0.001 0.1 0.00529127 0
0.1 0.00529127 0.001 0.1 0.00558655 0 0.1 0.00558655 0.001 0.1
0.00589359 0 0.1 0.00589359 0.001 0.1 0.00621284 0 0.1 0.00621284
0.001 0.1 0.00654479 0 0.1 0.00654479 0.001 0.1 0.00688996 0
0.1 0.00688996 0.001 0.1 0.00724887 0 0.1 0.00724887 0.001 0.1
0.00762206 0 0.1 0.00762206 0.001 0.1 0.0080101 0 0.1 0.0080101
0.001 0.1 0.00841358 0 0.1 0.00841358 0.001 0.1 0.00883312 0
0.1 0.00883312 0.001 0.1 0.00926936 0 0.1 0.00926936 0.001 0.1
0.00972297 0 0.1 0.00972297 0.001 0.1 0.0101946 0 0.1 0.0101946
0.001 0.1 0.010685 0 0.1 0.010685 0.001 0.1 0.011195 0
0.1 0.011195 0.001 0.1 0.0117252 0 0.1 0.0117252 0.001 0.1
0.0122766 0 0.1 0.0122766 0.001 0.1 0.0128499 0 0.1 0.0128499
0.001 0.1 0.013446 0 0.1 0.013446 0.001 0.1 0.0140658 0
0.1 0.0140658 0.001 0.1 0.0147103 0 0.1 0.0147103 0.001 0.1
0.0153804 0 0.1 0.0153804 0.001 0.1 0.0160772 0 0.1 0.0160772
0.001 0.1 0.0168018 0 0.1 0.0168018 0.001 0.1 0.0175551 0
0.1 0.0175551 0.001 0.1 0.0183385 0 0.1 0.0183385 0.001 0.1
0.019153 0 0.1 0.019153 0.001 
POLYGONS 90 450
4 0 1 2 3 4 1 4 5 2 4
4 6 7 5 4 6 8 9 7 4
8 10 11 9 4 10 12 13 11 4
12 14 15 13 4 14 16 17 15 4
16 18 19 17 4 18 20 21 19 4
20 22 23 21 4 22 24 25 23 4
24 26 27 25 4 26 28 29 27 4
28 30 31 29 4 30 32 33 31 4
32 34 35 33 4 34 36 37 35 4
36 38 39 37 4 38 40 41 39 4
40 42 43 41 4 42 44 45 43 4
44 46 47 45 4 46 48 49 47 4
48 50 51 49 4 50 52 53 51 4
52 54 55 53 4 54 56 57 55 4
56 58 59 57 4 58 60 61 59 4
62 63 64 65 4 63 66 67 64 4
66 68 69 67 4 68 70 71 69 4
70 72 73 71 4 72 74 75 73 4
74 76 77 75 4 76 78 79 77 4
78 80 81 79 4 80 82 83 81 4
82 84 85 83 4 84 86 87 85 4
86 88 89 87 4 88 90 91 89 4
90 92 93 91 4 92 94 95 93 4
94 96 97 95 4 96 98 99 97 4
98 100 101 99 4 100 102 103 101 4
102 104 105 103 4 104 106 107 105 4
106 108 109 107 4 108 110 111 109 4
110 112 113 111 4 112 114 115 113 4
114 116 117 115 4 116 118 119 117 4
118 120 121 119 4 120 122 123 121 4
122 124 125 123 4 124 126 127 125 4
126 128 129 127 4 128 130 131 129 4
130 132 133 131 4 132 134 135 133 4
134 136 137 135 4 136 138 139 137 4
138 140 141 139 4 140 142 143 141 4
142 144 145 143 4 144 146 147 145 4
146 148 149 147 4 148 150 151 149 4
150 152 153 151 4 152 154 155 153 4
154 156 157 155 4 156 158 159 157 4
158 160 161 159 4 160 162 163 161 4
162 164 165 163 4 164 166 167 165 4
166 168 169 167 4 168 170 171 169 4
170 172 173 171 4 172 174 175 173 4
174 176 177 175 4 176 178 179 177 4
178 180 181 179 4 180 0 3 181 
CELL_DATA 90
FIELD attributes 3
patchID 1 90 float
2 2 2 2 2 2 2 2 2 2 2
2 2 2 2 2 2 2 2 2 2
2 2 2 2 2 2 2 2 2 2
2 2 2 2 2 2 2 2 2 2
2 2 2 2 2 2 2 2 2 2
2 2 2 2 2 2 2 2 2 2
2 2 2 2 2 2 2 2 2 2
2 2 2 2 2 2 2 2 2 2
2 2 2 2 2 2 2 2 2 
p 1 90 float
0 0 0 0 0 0 0 0 0 0 0
0 0 0 0 0 0 0 0 0 0
0 0 0 0 0 0 0 0 0 0
0 0 0 0 0 0 0 0 0 0
0 0 0 0 0 0 0 0 0 0
0 0 0 0 0 0 0 0 0 0
0 0 0 0 0 0 0 0 0 0
0 0 0 0 0 0 0 0 0 0
0 0 0 0 0 0 0 0 0 
U 3 90 float
1.00892 0.00104587 0 1.0088 0.00103746 0 1.00867 0.00102816 0 1.00855 0.00101744
0 1.00842 0.00100565 0 1.00829 0.000992264 0 1.00816 0.000977561 0
1.00803 0.000961279 0 1.0079 0.000943391 0 1.00777 0.000923771 0 1.00765
0.00090235 0 1.00752 0.000879051 0 1.0074 0.000853762 0 1.00728 0.000826382
0 1.00717 0.000796818 0 1.00705 0.000764983 0 1.00694 0.000730773 0
1.00684 0.000694085 0 1.00674 0.000654818 0 1.00664 0.000612896 0 1.00655
0.000568225 0 1.00646 0.000520707 0 1.00638 0.00047027 0 1.00631 0.000416842
0 1.00625 0.00036038 0 1.00619 0.000300872 0 1.00615 0.000238251 0
1.00611 0.0001726 0 1.00608 0.000102822 0 1.00593 3.32925e-05 0 0.054415
1.30702e-06 0 0.164607 9.15757e-06 0 0.276367 2.74202e-05 0 0.387487 5.66803e-05
0 0.495517 9.99245e-05 0 0.597856 0.000160606 0 0.691861 0.000240909 0
0.775024 0.000339985 0 0.845278 0.000452554 0 0.901395 0.000569072 0 0.943348
0.000678078 0 0.972424 0.000769831 0 0.990946 0.000839261 0 1.00172 0.000886691
0 1.00739 0.000916329 0 1.0101 0.000933803 0 1.01125 0.000944144 0
1.01168 0.000950873 0 1.01181 0.00095602 0 1.01184 0.000960575 0 1.01183
0.000964949 0 1.01181 0.000969294 0 1.01179 0.000973655 0 1.01176 0.000978046
0 1.01173 0.00098247 0 1.01171 0.000986927 0 1.01168 0.000991414 0
1.01165 0.000995928 0 1.01162 0.00100047 0 1.01159 0.00100502 0 1.01156
0.00100959 0 1.01153 0.00101415 0 1.01149 0.00101872 0 1.01146 0.00102327
0 1.01142 0.00102779 0 1.01137 0.00103228 0 1.01133 0.00103671 0
1.01128 0.00104108 0 1.01123 0.00104537 0 1.01117 0.00104957 0 1.01111
0.00105365 0 1.01105 0.00105759 0 1.01098 0.00106136 0 1.01091 0.00106494
0 1.01083 0.00106829 0 1.01075 0.00107138 0 1.01066 0.00107415 0
1.01056 0.00107656 0 1.01047 0.00107858 0 1.01036 0.00108012 0 1.01025
0.00108113 0 1.01014 0.00108153 0 1.01002 0.00108127 0 1.00989 0.0010803
0 1.00976 0.0010784 0 1.00963 0.00107573 0 1.00949 0.00107185 0
1.00935 0.00106719 0 1.00921 0.00106104 0 1.00906 0.00105369 0 
POINT_DATA  182
FIELD attributes 2
p 1 182 float
0 0 0 0 0 0 0 0 0 0 0
0 0 0 0 0 0 0 0 0 0
0 0 0 0 0 0 0 0 0 0
0 0 0 0 0 0 0 0 0 0
0 0 0 0 0 0 0 0 0 0
0 0 0 0 0 0 0 0 0 0
0 0 0 0 0 0 0 0 0 0
0 0 0 0 0 0 0 0 0 0
0 0 0 0 0 0 0 0 0 0
0 0 0 0 0 0 0 0 0 0
0 0 0 0 0 0 0 0 0 0
0 0 0 0 0 0 0 0 0 0
0 0 0 0 0 0 0 0 0 0
0 0 0 0 0 0 0 0 0 0
0 0 0 0 0 0 0 0 0 0
0 0 0 0 0 0 0 0 0 0
0 0 0 0 0 0 0 0 0 0
0 0 0 0 0 0 0 0 0 0
0 
U 3 182 float
1.00899 0.00104967 0 1.00886 0.0010417 0 1.00886 0.0010417 0 1.00899 0.00104967
0 1.00874 0.00103284 0 1.00874 0.00103284 0 1.00861 0.00102284 0
1.00861 0.00102284 0 1.00848 0.00101159 0 1.00848 0.00101159 0 1.00835
0.000999009 0 1.00835 0.000999009 0 1.00822 0.000984975 0 1.00822 0.000984975
0 1.00809 0.000969492 0 1.00809 0.000969492 0 1.00797 0.000952417 0
1.00797 0.000952417 0 1.00784 0.000933674 0 1.00784 0.000933674 0 1.00771
0.000913166 0 1.00771 0.000913166 0 1.00759 0.00089082 0 1.00759 0.00089082
0 1.00746 0.00086654 0 1.00746 0.00086654 0 1.00734 0.000840222 0
1.00734 0.000840222 0 1.00723 0.000811767 0 1.00723 0.000811767 0 1.00711
0.000781086 0 1.00711 0.000781086 0 1.007 0.000748083 0 1.007 0.000748083
0 1.00689 0.000712655 0 1.00689 0.000712655 0 1.00679 0.000674699 0
1.00679 0.000674699 0 1.00669 0.000634129 0 1.00669 0.000634129 0 1.00659
0.000590857 0 1.00659 0.000590857 0 1.00651 0.000544788 0 1.00651 0.000544788
0 1.00642 0.000495837 0 1.00642 0.000495837 0 1.00635 0.000443933 0
1.00635 0.000443933 0 1.00628 0.000389017 0 1.00628 0.000389017 0 1.00622
0.000331062 0 1.00622 0.000331062 0 1.00617 0.000270028 0 1.00617 0.000270028
0 1.00613 0.000205922 0 1.00613 0.000205922 0 1.0061 0.000138247 0
1.0061 0.000138247 0 1.00601 6.85984e-05 0 1.00601 6.85984e-05 0 1.00593
3.32925e-05 0 1.00593 3.32925e-05 0 0.054415 1.30702e-06 0 0.109503 5.23173e-06
0 0.109503 5.23173e-06 0 0.054415 1.30702e-06 0 0.220479 1.82875e-05 0
0.220479 1.82875e-05 0 0.331917 4.20478e-05 0 0.331917 4.20478e-05 0 0.441492
7.82985e-05 0 0.441492 7.82985e-05 0 0.546677 0.000130259 0 0.546677 0.000130259
0 0.644849 0.000200749 0 0.644849 0.000200749 0 0.733433 0.000290436 0
0.733433 0.000290436 0 0.810143 0.000396255 0 0.810143 0.000396255 0 0.873329
0.000510798 0 0.873329 0.000510798 0 0.922366 0.000623559 0 0.922366 0.000623559
0 0.957882 0.00072394 0 0.957882 0.00072394 0 0.981682 0.000804534 0
0.981682 0.000804534 0 0.996329 0.000862967 0 0.996329 0.000862967 0 1.00455
0.000901504 0 1.00455 0.000901504 0 1.00874 0.000925063 0 1.00874 0.000925063
0 1.01067 0.000938971 0 1.01067 0.000938971 0 1.01146 0.000947507 0
1.01146 0.000947507 0 1.01174 0.000953445 0 1.01174 0.000953445 0 1.01183
0.000958296 0 1.01183 0.000958296 0 1.01183 0.000962761 0 1.01183 0.000962761
0 1.01182 0.00096712 0 1.01182 0.00096712 0 1.0118 0.000971473 0
1.0118 0.000971473 0 1.01177 0.000975849 0 1.01177 0.000975849 0 1.01175
0.000980256 0 1.01175 0.000980256 0 1.01172 0.000984697 0 1.01172 0.000984697
0 1.01169 0.000989168 0 1.01169 0.000989168 0 1.01167 0.000993669 0
1.01167 0.000993669 0 1.01164 0.000998194 0 1.01164 0.000998194 0 1.01161
0.00100274 0 1.01161 0.00100274 0 1.01158 0.0010073 0 1.01158 0.0010073
0 1.01155 0.00101187 0 1.01155 0.00101187 0 1.01151 0.00101643 0
1.01151 0.00101643 0 1.01148 0.00102099 0 1.01148 0.00102099 0 1.01144
0.00102553 0 1.01144 0.00102553 0 1.0114 0.00103003 0 1.0114 0.00103003
0 1.01135 0.00103449 0 1.01135 0.00103449 0 1.01131 0.00103889 0
1.01131 0.00103889 0 1.01125 0.00104322 0 1.01125 0.00104322 0 1.0112
0.00104747 0 1.0112 0.00104747 0 1.01114 0.0010516 0 1.01114 0.0010516
0 1.01108 0.00105562 0 1.01108 0.00105562 0 1.01101 0.00105947 0
1.01101 0.00105947 0 1.01094 0.00106315 0 1.01094 0.00106315 0 1.01087
0.00106661 0 1.01087 0.00106661 0 1.01079 0.00106983 0 1.01079 0.00106983
0 1.0107 0.00107276 0 1.0107 0.00107276 0 1.01061 0.00107535 0
1.01061 0.00107535 0 1.01051 0.00107757 0 1.01051 0.00107757 0 1.01041
0.00107934 0 1.01041 0.00107934 0 1.01031 0.00108062 0 1.01031 0.00108062
0 1.01019 0.00108133 0 1.01019 0.00108133 0 1.01008 0.0010814 0
1.01008 0.0010814 0 1.00996 0.00108079 0 1.00996 0.00108079 0 1.00983
0.00107935 0 1.00983 0.00107935 0 1.0097 0.00107707 0 1.0097 0.00107707
0 1.00956 0.0010738 0 1.00956 0.0010738 0 1.00942 0.00106954 0
1.00942 0.00106954 0 1.00928 0.00106414 0 1.00928 0.00106414 0 1.00913
0.0010574 0 1.00913 0.0010574 0 
