# vtk DataFile Version 2.0
outlet
ASCII
DATASET POLYDATA
POINTS 182 float
0.1 0.02 0 0.1 0.0207299 0 0.1 0.0207299 0.001 0.1 0.02
0.001 0.1 0.021488 0 0.1 0.021488 0.001 0.1 0.0222754 0
0.1 0.0222754 0.001 0.1 0.0230932 0 0.1 0.0230932 0.001 0.1
0.0239425 0 0.1 0.0239425 0.001 0.1 0.0248247 0 0.1 0.0248247
0.001 0.1 0.0257409 0 0.1 0.0257409 0.001 0.1 0.0266925 0
0.1 0.0266925 0.001 0.1 0.0276808 0 0.1 0.0276808 0.001 0.1
0.0287073 0 0.1 0.0287073 0.001 0.1 0.0297734 0 0.1 0.0297734
0.001 0.1 0.0308807 0 0.1 0.0308807 0.001 0.1 0.0320307 0
0.1 0.0320307 0.001 0.1 0.0332251 0 0.1 0.0332251 0.001 0.1
0.0344656 0 0.1 0.0344656 0.001 0.1 0.0357541 0 0.1 0.0357541
0.001 0.1 0.0370923 0 0.1 0.0370923 0.001 0.1 0.0384821 0
0.1 0.0384821 0.001 0.1 0.0399257 0 0.1 0.0399257 0.001 0.1
0.0414249 0 0.1 0.0414249 0.001 0.1 0.042982 0 0.1 0.042982
0.001 0.1 0.0445993 0 0.1 0.0445993 0.001 0.1 0.046279 0
0.1 0.046279 0.001 0.1 0.0480236 0 0.1 0.0480236 0.001 0.1
0.0498355 0 0.1 0.0498355 0.001 0.1 0.0517173 0 0.1 0.0517173
0.001 0.1 0.0536719 0 0.1 0.0536719 0.001 0.1 0.0557019 0
0.1 0.0557019 0.001 0.1 0.0578102 0 0.1 0.0578102 0.001 0.1
0.06 0 0.1 0.06 0.001 0.1 0 0 0.1 8.46956e-05
0 0.1 8.46956e-05 0.001 0.1 0 0.001 0.1 0.000172762 0
0.1 0.000172762 0.001 0.1 0.000264333 0 0.1 0.000264333 0.001 0.1
0.000359549 0 0.1 0.000359549 0.001 0.1 0.000458554 0 0.1 0.000458554
0.001 0.1 0.0005615 0 0.1 0.0005615 0.001 0.1 0.000668542 0
0.1 0.000668542 0.001 0.1 0.000779845 0 0.1 0.000779845 0.001 0.1
0.000895577 0 0.1 0.000895577 0.001 0.1 0.00101591 0 0.1 0.00101591
0.001 0.1 0.00114104 0 0.1 0.00114104 0.001 0.1 0.00127115 0
0.1 0.00127115 0.001 0.1 0.00140644 0 0.1 0.00140644 0.001 0.1
0.0015471 0 0.1 0.0015471 0.001 0.1 0.00169337 0 0.1 0.00169337
0.001 0.1 0.00184546 0 0.1 0.00184546 0.001 0.1 0.0020036 0
0.1 0.0020036 0.001 0.1 0.00216804 0 0.1 0.00216804 0.001 0.1
0.00233902 0 0.1 0.00233902 0.001 0.1 0.00251681 0 0.1 0.00251681
0.001 0.1 0.00270167 0 0.1 0.00270167 0.001 0.1 0.00289388 0
0.1 0.00289388 0.001 0.1 0.00309375 0 0.1 0.00309375 0.001 0.1
0.00330157 0 0.1 0.00330157 0.001 0.1 0.00351767 0 0.1 0.00351767
0.001 0.1 0.00374236 0 0.1 0.00374236 0.001 0.1 0.00397599 0
0.1 0.00397599 0.001 0.1 0.00421893 0 0.1 0.00421893 0.001 0.1
0.00447153 0 0.1 0.00447153 0.001 0.1 0.00473419 0 0.1 0.00473419
0.001 0.1 0.0050073 0 0.1 0.0050073 0.001 0.1 0.00529127 0
0.1 0.00529127 0.001 0.1 0.00558655 0 0.1 0.00558655 0.001 0.1
0.00589359 0 0.1 0.00589359 0.001 0.1 0.00621284 0 0.1 0.00621284
0.001 0.1 0.00654479 0 0.1 0.00654479 0.001 0.1 0.00688996 0
0.1 0.00688996 0.001 0.1 0.00724887 0 0.1 0.00724887 0.001 0.1
0.00762206 0 0.1 0.00762206 0.001 0.1 0.0080101 0 0.1 0.0080101
0.001 0.1 0.00841358 0 0.1 0.00841358 0.001 0.1 0.00883312 0
0.1 0.00883312 0.001 0.1 0.00926936 0 0.1 0.00926936 0.001 0.1
0.00972297 0 0.1 0.00972297 0.001 0.1 0.0101946 0 0.1 0.0101946
0.001 0.1 0.010685 0 0.1 0.010685 0.001 0.1 0.011195 0
0.1 0.011195 0.001 0.1 0.0117252 0 0.1 0.0117252 0.001 0.1
0.0122766 0 0.1 0.0122766 0.001 0.1 0.0128499 0 0.1 0.0128499
0.001 0.1 0.013446 0 0.1 0.013446 0.001 0.1 0.0140658 0
0.1 0.0140658 0.001 0.1 0.0147103 0 0.1 0.0147103 0.001 0.1
0.0153804 0 0.1 0.0153804 0.001 0.1 0.0160772 0 0.1 0.0160772
0.001 0.1 0.0168018 0 0.1 0.0168018 0.001 0.1 0.0175551 0
0.1 0.0175551 0.001 0.1 0.0183385 0 0.1 0.0183385 0.001 0.1
0.019153 0 0.1 0.019153 0.001 
POLYGONS 90 450
4 0 1 2 3 4 1 4 5 2 4
4 6 7 5 4 6 8 9 7 4
8 10 11 9 4 10 12 13 11 4
12 14 15 13 4 14 16 17 15 4
16 18 19 17 4 18 20 21 19 4
20 22 23 21 4 22 24 25 23 4
24 26 27 25 4 26 28 29 27 4
28 30 31 29 4 30 32 33 31 4
32 34 35 33 4 34 36 37 35 4
36 38 39 37 4 38 40 41 39 4
40 42 43 41 4 42 44 45 43 4
44 46 47 45 4 46 48 49 47 4
48 50 51 49 4 50 52 53 51 4
52 54 55 53 4 54 56 57 55 4
56 58 59 57 4 58 60 61 59 4
62 63 64 65 4 63 66 67 64 4
66 68 69 67 4 68 70 71 69 4
70 72 73 71 4 72 74 75 73 4
74 76 77 75 4 76 78 79 77 4
78 80 81 79 4 80 82 83 81 4
82 84 85 83 4 84 86 87 85 4
86 88 89 87 4 88 90 91 89 4
90 92 93 91 4 92 94 95 93 4
94 96 97 95 4 96 98 99 97 4
98 100 101 99 4 100 102 103 101 4
102 104 105 103 4 104 106 107 105 4
106 108 109 107 4 108 110 111 109 4
110 112 113 111 4 112 114 115 113 4
114 116 117 115 4 116 118 119 117 4
118 120 121 119 4 120 122 123 121 4
122 124 125 123 4 124 126 127 125 4
126 128 129 127 4 128 130 131 129 4
130 132 133 131 4 132 134 135 133 4
134 136 137 135 4 136 138 139 137 4
138 140 141 139 4 140 142 143 141 4
142 144 145 143 4 144 146 147 145 4
146 148 149 147 4 148 150 151 149 4
150 152 153 151 4 152 154 155 153 4
154 156 157 155 4 156 158 159 157 4
158 160 161 159 4 160 162 163 161 4
162 164 165 163 4 164 166 167 165 4
166 168 169 167 4 168 170 171 169 4
170 172 173 171 4 172 174 175 173 4
174 176 177 175 4 176 178 179 177 4
178 180 181 179 4 180 0 3 181 
CELL_DATA 90
FIELD attributes 3
patchID 1 90 float
2 2 2 2 2 2 2 2 2 2 2
2 2 2 2 2 2 2 2 2 2
2 2 2 2 2 2 2 2 2 2
2 2 2 2 2 2 2 2 2 2
2 2 2 2 2 2 2 2 2 2
2 2 2 2 2 2 2 2 2 2
2 2 2 2 2 2 2 2 2 2
2 2 2 2 2 2 2 2 2 2
2 2 2 2 2 2 2 2 2 
p 1 90 float
0 0 0 0 0 0 0 0 0 0 0
0 0 0 0 0 0 0 0 0 0
0 0 0 0 0 0 0 0 0 0
0 0 0 0 0 0 0 0 0 0
0 0 0 0 0 0 0 0 0 0
0 0 0 0 0 0 0 0 0 0
0 0 0 0 0 0 0 0 0 0
0 0 0 0 0 0 0 0 0 0
0 0 0 0 0 0 0 0 0 
U 3 90 float
1.011 0.00199955 0 1.01064 0.00203415 0 1.0102 0.00193356 0 1.00964 0.00194848
0 1.00913 0.00187342 0 1.00873 0.00184969 0 1.0084 0.00180354 0
1.00812 0.00175609 0 1.00789 0.00171105 0 1.00769 0.0016625 0 1.00752
0.00161124 0 1.00737 0.0015577 0 1.00723 0.00150187 0 1.00711 0.00144343
0 1.007 0.00138231 0 1.0069 0.00131827 0 1.00681 0.00125128 0
1.00672 0.00118124 0 1.00664 0.001108 0 1.00657 0.00103135 0 1.0065
0.000951298 0 1.00644 0.000867643 0 1.00638 0.000780237 0 1.00633 0.000689023
0 1.00629 0.000593785 0 1.00625 0.00049452 0 1.00621 0.000391118 0
1.00619 0.000283177 0 1.00617 0.000170086 0 1.00606 5.60899e-05 0 0.0457787
5.41063e-06 0 0.139007 4.28664e-05 0 0.235434 0.000131715 0 0.334367 0.00026797
0 0.43452 0.000452663 0 0.533919 0.000684791 0 0.629894 0.000958151 0
0.719254 0.00126028 0 0.798702 0.00157255 0 0.865463 0.00187228 0 0.917959
0.00213723 0 0.956234 0.0023511 0 0.981904 0.00250745 0 0.997634 0.00261007
0 1.00639 0.00266982 0 1.0108 0.00269994 0 1.01279 0.00271217 0
1.0136 0.00271489 0 1.01389 0.00271311 0 1.01397 0.00270935 0 1.01399
0.0027047 0 1.01398 0.00269959 0 1.01397 0.00269414 0 1.01396 0.00268838
0 1.01394 0.00268231 0 1.01393 0.00267591 0 1.01392 0.00266918 0
1.01391 0.00266209 0 1.01391 0.00265464 0 1.0139 0.0026468 0 1.0139
0.00263854 0 1.0139 0.00262985 0 1.0139 0.00262071 0 1.0139 0.0026111
0 1.0139 0.00260099 0 1.0139 0.00259034 0 1.0139 0.00257913 0
1.01391 0.00256734 0 1.0139 0.00255495 0 1.0139 0.00254189 0 1.01389
0.00252811 0 1.01387 0.00251359 0 1.01385 0.00249824 0 1.01382 0.00248215
0 1.01378 0.00246538 0 1.01373 0.00244789 0 1.01366 0.00242838 0
1.01359 0.00240378 0 1.0135 0.00240298 0 1.0134 0.0023367 0 1.01329
0.00238618 0 1.01315 0.00226494 0 1.013 0.00233924 0 1.01283 0.00223359
0 1.01266 0.00224826 0 1.01246 0.00221682 0 1.01224 0.00214489 0
1.01198 0.00218598 0 1.0117 0.00206019 0 1.01135 0.00211254 0 
POINT_DATA  182
FIELD attributes 2
p 1 182 float
0 0 0 0 0 0 0 0 0 0 0
0 0 0 0 0 0 0 0 0 0
0 0 0 0 0 0 0 0 0 0
0 0 0 0 0 0 0 0 0 0
0 0 0 0 0 0 0 0 0 0
0 0 0 0 0 0 0 0 0 0
0 0 0 0 0 0 0 0 0 0
0 0 0 0 0 0 0 0 0 0
0 0 0 0 0 0 0 0 0 0
0 0 0 0 0 0 0 0 0 0
0 0 0 0 0 0 0 0 0 0
0 0 0 0 0 0 0 0 0 0
0 0 0 0 0 0 0 0 0 0
0 0 0 0 0 0 0 0 0 0
0 0 0 0 0 0 0 0 0 0
0 0 0 0 0 0 0 0 0 0
0 0 0 0 0 0 0 0 0 0
0 0 0 0 0 0 0 0 0 0
0 
U 3 182 float
1.01117 0.00205444 0 1.01082 0.00201674 0 1.01082 0.00201674 0 1.01117 0.00205444
0 1.01042 0.00198421 0 1.01042 0.00198421 0 1.00992 0.00194097 0
1.00992 0.00194097 0 1.00939 0.00191124 0 1.00939 0.00191124 0 1.00893
0.00186165 0 1.00893 0.00186165 0 1.00856 0.00182681 0 1.00856 0.00182681
0 1.00826 0.00178002 0 1.00826 0.00178002 0 1.00801 0.00173378 0
1.00801 0.00173378 0 1.00779 0.00168701 0 1.00779 0.00168701 0 1.00761
0.00163712 0 1.00761 0.00163712 0 1.00744 0.00158474 0 1.00744 0.00158474
0 1.0073 0.00153008 0 1.0073 0.00153008 0 1.00717 0.00147297 0
1.00717 0.00147297 0 1.00706 0.00141322 0 1.00706 0.00141322 0 1.00695
0.00135066 0 1.00695 0.00135066 0 1.00685 0.00128518 0 1.00685 0.00128518
0 1.00677 0.00121669 0 1.00677 0.00121669 0 1.00668 0.00114508 0
1.00668 0.00114508 0 1.00661 0.00107017 0 1.00661 0.00107017 0 1.00654
0.000991856 0 1.00654 0.000991856 0 1.00647 0.000910038 0 1.00647 0.000910038
0 1.00641 0.000824545 0 1.00641 0.000824545 0 1.00636 0.000735274 0
1.00636 0.000735274 0 1.00631 0.000642089 0 1.00631 0.000642089 0 1.00627
0.000544879 0 1.00627 0.000544879 0 1.00623 0.000443589 0 1.00623 0.000443589
0 1.0062 0.000337964 0 1.0062 0.000337964 0 1.00618 0.0002275 0
1.00618 0.0002275 0 1.00612 0.000113975 0 1.00612 0.000113975 0 1.00606
5.60899e-05 0 1.00606 5.60899e-05 0 0.0457787 5.41063e-06 0 0.0923863 2.41358e-05
0 0.0923863 2.41358e-05 0 0.0457787 5.41063e-06 0 0.187213 8.72839e-05 0
0.187213 8.72839e-05 0 0.284892 0.000199831 0 0.284892 0.000199831 0 0.384434
0.000360299 0 0.384434 0.000360299 0 0.48421 0.000568704 0 0.48421 0.000568704
0 0.581897 0.000821442 0 0.581897 0.000821442 0 0.674564 0.00110918 0
0.674564 0.00110918 0 0.758968 0.00141638 0 0.758968 0.00141638 0 0.832073
0.00172238 0 0.832073 0.00172238 0 0.891704 0.00200472 0 0.891704 0.00200472
0 0.937091 0.00224413 0 0.937091 0.00224413 0 0.969064 0.00242925 0
0.969064 0.00242925 0 0.989766 0.00255874 0 0.989766 0.00255874 0 1.00201
0.00263994 0 1.00201 0.00263994 0 1.00859 0.00268487 0 1.00859 0.00268487
0 1.0118 0.00270605 0 1.0118 0.00270605 0 1.0132 0.00271353 0
1.0132 0.00271353 0 1.01374 0.002714 0 1.01374 0.002714 0 1.01393
0.00271123 0 1.01393 0.00271123 0 1.01398 0.00270703 0 1.01398 0.00270703
0 1.01398 0.00270215 0 1.01398 0.00270215 0 1.01398 0.00269687 0
1.01398 0.00269687 0 1.01396 0.00269126 0 1.01396 0.00269126 0 1.01395
0.00268535 0 1.01395 0.00268535 0 1.01394 0.00267911 0 1.01394 0.00267911
0 1.01393 0.00267255 0 1.01393 0.00267255 0 1.01392 0.00266564 0
1.01392 0.00266564 0 1.01391 0.00265837 0 1.01391 0.00265837 0 1.0139
0.00265072 0 1.0139 0.00265072 0 1.0139 0.00264267 0 1.0139 0.00264267
0 1.0139 0.0026342 0 1.0139 0.0026342 0 1.0139 0.00262529 0
1.0139 0.00262529 0 1.0139 0.00261591 0 1.0139 0.00261591 0 1.0139
0.00260605 0 1.0139 0.00260605 0 1.0139 0.00259568 0 1.0139 0.00259568
0 1.0139 0.00258475 0 1.0139 0.00258475 0 1.01391 0.00257325 0
1.01391 0.00257325 0 1.0139 0.00256116 0 1.0139 0.00256116 0 1.0139
0.00254843 0 1.0139 0.00254843 0 1.01389 0.00253501 0 1.01389 0.00253501
0 1.01388 0.00252087 0 1.01388 0.00252087 0 1.01386 0.00250594 0
1.01386 0.00250594 0 1.01383 0.00249022 0 1.01383 0.00249022 0 1.0138
0.00247379 0 1.0138 0.00247379 0 1.01375 0.00245666 0 1.01375 0.00245666
0 1.0137 0.00243817 0 1.0137 0.00243817 0 1.01363 0.00241613 0
1.01363 0.00241613 0 1.01355 0.00240339 0 1.01355 0.00240339 0 1.01345
0.00237 0 1.01345 0.00237 0 1.01334 0.00236132 0 1.01334 0.00236132
0 1.01322 0.00232588 0 1.01322 0.00232588 0 1.01307 0.00230189 0
1.01307 0.00230189 0 1.01291 0.00228673 0 1.01291 0.00228673 0 1.01275
0.00224088 0 1.01275 0.00224088 0 1.01256 0.00223264 0 1.01256 0.00223264
0 1.01235 0.0021811 0 1.01235 0.0021811 0 1.01211 0.00216529 0
1.01211 0.00216529 0 1.01184 0.00212357 0 1.01184 0.00212357 0 1.01152
0.00208616 0 1.01152 0.00208616 0 
