# vtk DataFile Version 2.0
outlet
ASCII
DATASET POLYDATA
POINTS 182 float
0.1 0.02 0 0.1 0.0207299 0 0.1 0.0207299 0.001 0.1 0.02
0.001 0.1 0.021488 0 0.1 0.021488 0.001 0.1 0.0222754 0
0.1 0.0222754 0.001 0.1 0.0230932 0 0.1 0.0230932 0.001 0.1
0.0239425 0 0.1 0.0239425 0.001 0.1 0.0248247 0 0.1 0.0248247
0.001 0.1 0.0257409 0 0.1 0.0257409 0.001 0.1 0.0266925 0
0.1 0.0266925 0.001 0.1 0.0276808 0 0.1 0.0276808 0.001 0.1
0.0287073 0 0.1 0.0287073 0.001 0.1 0.0297734 0 0.1 0.0297734
0.001 0.1 0.0308807 0 0.1 0.0308807 0.001 0.1 0.0320307 0
0.1 0.0320307 0.001 0.1 0.0332251 0 0.1 0.0332251 0.001 0.1
0.0344656 0 0.1 0.0344656 0.001 0.1 0.0357541 0 0.1 0.0357541
0.001 0.1 0.0370923 0 0.1 0.0370923 0.001 0.1 0.0384821 0
0.1 0.0384821 0.001 0.1 0.0399257 0 0.1 0.0399257 0.001 0.1
0.0414249 0 0.1 0.0414249 0.001 0.1 0.042982 0 0.1 0.042982
0.001 0.1 0.0445993 0 0.1 0.0445993 0.001 0.1 0.046279 0
0.1 0.046279 0.001 0.1 0.0480236 0 0.1 0.0480236 0.001 0.1
0.0498355 0 0.1 0.0498355 0.001 0.1 0.0517173 0 0.1 0.0517173
0.001 0.1 0.0536719 0 0.1 0.0536719 0.001 0.1 0.0557019 0
0.1 0.0557019 0.001 0.1 0.0578102 0 0.1 0.0578102 0.001 0.1
0.06 0 0.1 0.06 0.001 0.1 0 0 0.1 8.46956e-05
0 0.1 8.46956e-05 0.001 0.1 0 0.001 0.1 0.000172762 0
0.1 0.000172762 0.001 0.1 0.000264333 0 0.1 0.000264333 0.001 0.1
0.000359549 0 0.1 0.000359549 0.001 0.1 0.000458554 0 0.1 0.000458554
0.001 0.1 0.0005615 0 0.1 0.0005615 0.001 0.1 0.000668542 0
0.1 0.000668542 0.001 0.1 0.000779845 0 0.1 0.000779845 0.001 0.1
0.000895577 0 0.1 0.000895577 0.001 0.1 0.00101591 0 0.1 0.00101591
0.001 0.1 0.00114104 0 0.1 0.00114104 0.001 0.1 0.00127115 0
0.1 0.00127115 0.001 0.1 0.00140644 0 0.1 0.00140644 0.001 0.1
0.0015471 0 0.1 0.0015471 0.001 0.1 0.00169337 0 0.1 0.00169337
0.001 0.1 0.00184546 0 0.1 0.00184546 0.001 0.1 0.0020036 0
0.1 0.0020036 0.001 0.1 0.00216804 0 0.1 0.00216804 0.001 0.1
0.00233902 0 0.1 0.00233902 0.001 0.1 0.00251681 0 0.1 0.00251681
0.001 0.1 0.00270167 0 0.1 0.00270167 0.001 0.1 0.00289388 0
0.1 0.00289388 0.001 0.1 0.00309375 0 0.1 0.00309375 0.001 0.1
0.00330157 0 0.1 0.00330157 0.001 0.1 0.00351767 0 0.1 0.00351767
0.001 0.1 0.00374236 0 0.1 0.00374236 0.001 0.1 0.00397599 0
0.1 0.00397599 0.001 0.1 0.00421893 0 0.1 0.00421893 0.001 0.1
0.00447153 0 0.1 0.00447153 0.001 0.1 0.00473419 0 0.1 0.00473419
0.001 0.1 0.0050073 0 0.1 0.0050073 0.001 0.1 0.00529127 0
0.1 0.00529127 0.001 0.1 0.00558655 0 0.1 0.00558655 0.001 0.1
0.00589359 0 0.1 0.00589359 0.001 0.1 0.00621284 0 0.1 0.00621284
0.001 0.1 0.00654479 0 0.1 0.00654479 0.001 0.1 0.00688996 0
0.1 0.00688996 0.001 0.1 0.00724887 0 0.1 0.00724887 0.001 0.1
0.00762206 0 0.1 0.00762206 0.001 0.1 0.0080101 0 0.1 0.0080101
0.001 0.1 0.00841358 0 0.1 0.00841358 0.001 0.1 0.00883312 0
0.1 0.00883312 0.001 0.1 0.00926936 0 0.1 0.00926936 0.001 0.1
0.00972297 0 0.1 0.00972297 0.001 0.1 0.0101946 0 0.1 0.0101946
0.001 0.1 0.010685 0 0.1 0.010685 0.001 0.1 0.011195 0
0.1 0.011195 0.001 0.1 0.0117252 0 0.1 0.0117252 0.001 0.1
0.0122766 0 0.1 0.0122766 0.001 0.1 0.0128499 0 0.1 0.0128499
0.001 0.1 0.013446 0 0.1 0.013446 0.001 0.1 0.0140658 0
0.1 0.0140658 0.001 0.1 0.0147103 0 0.1 0.0147103 0.001 0.1
0.0153804 0 0.1 0.0153804 0.001 0.1 0.0160772 0 0.1 0.0160772
0.001 0.1 0.0168018 0 0.1 0.0168018 0.001 0.1 0.0175551 0
0.1 0.0175551 0.001 0.1 0.0183385 0 0.1 0.0183385 0.001 0.1
0.019153 0 0.1 0.019153 0.001 
POLYGONS 90 450
4 0 1 2 3 4 1 4 5 2 4
4 6 7 5 4 6 8 9 7 4
8 10 11 9 4 10 12 13 11 4
12 14 15 13 4 14 16 17 15 4
16 18 19 17 4 18 20 21 19 4
20 22 23 21 4 22 24 25 23 4
24 26 27 25 4 26 28 29 27 4
28 30 31 29 4 30 32 33 31 4
32 34 35 33 4 34 36 37 35 4
36 38 39 37 4 38 40 41 39 4
40 42 43 41 4 42 44 45 43 4
44 46 47 45 4 46 48 49 47 4
48 50 51 49 4 50 52 53 51 4
52 54 55 53 4 54 56 57 55 4
56 58 59 57 4 58 60 61 59 4
62 63 64 65 4 63 66 67 64 4
66 68 69 67 4 68 70 71 69 4
70 72 73 71 4 72 74 75 73 4
74 76 77 75 4 76 78 79 77 4
78 80 81 79 4 80 82 83 81 4
82 84 85 83 4 84 86 87 85 4
86 88 89 87 4 88 90 91 89 4
90 92 93 91 4 92 94 95 93 4
94 96 97 95 4 96 98 99 97 4
98 100 101 99 4 100 102 103 101 4
102 104 105 103 4 104 106 107 105 4
106 108 109 107 4 108 110 111 109 4
110 112 113 111 4 112 114 115 113 4
114 116 117 115 4 116 118 119 117 4
118 120 121 119 4 120 122 123 121 4
122 124 125 123 4 124 126 127 125 4
126 128 129 127 4 128 130 131 129 4
130 132 133 131 4 132 134 135 133 4
134 136 137 135 4 136 138 139 137 4
138 140 141 139 4 140 142 143 141 4
142 144 145 143 4 144 146 147 145 4
146 148 149 147 4 148 150 151 149 4
150 152 153 151 4 152 154 155 153 4
154 156 157 155 4 156 158 159 157 4
158 160 161 159 4 160 162 163 161 4
162 164 165 163 4 164 166 167 165 4
166 168 169 167 4 168 170 171 169 4
170 172 173 171 4 172 174 175 173 4
174 176 177 175 4 176 178 179 177 4
178 180 181 179 4 180 0 3 181 
CELL_DATA 90
FIELD attributes 3
patchID 1 90 float
2 2 2 2 2 2 2 2 2 2 2
2 2 2 2 2 2 2 2 2 2
2 2 2 2 2 2 2 2 2 2
2 2 2 2 2 2 2 2 2 2
2 2 2 2 2 2 2 2 2 2
2 2 2 2 2 2 2 2 2 2
2 2 2 2 2 2 2 2 2 2
2 2 2 2 2 2 2 2 2 2
2 2 2 2 2 2 2 2 2 
p 1 90 float
0 0 0 0 0 0 0 0 0 0 0
0 0 0 0 0 0 0 0 0 0
0 0 0 0 0 0 0 0 0 0
0 0 0 0 0 0 0 0 0 0
0 0 0 0 0 0 0 0 0 0
0 0 0 0 0 0 0 0 0 0
0 0 0 0 0 0 0 0 0 0
0 0 0 0 0 0 0 0 0 0
0 0 0 0 0 0 0 0 0 
U 3 90 float
1.01103 0.00204353 0 1.01069 0.00202084 0 1.0103 0.00195724 0 1.00987 0.00195181
0 1.00939 0.00188865 0 1.00892 0.0018578 0 1.00852 0.00180941 0
1.0082 0.00176334 0 1.00794 0.00171581 0 1.00771 0.00166623 0 1.00753
0.00161452 0 1.00737 0.00156075 0 1.00723 0.00150468 0 1.0071 0.00144594
0 1.00699 0.00138453 0 1.00689 0.00132055 0 1.0068 0.00125342 0
1.00671 0.00118327 0 1.00663 0.00110995 0 1.00656 0.00103323 0 1.0065
0.000953113 0 1.00644 0.000869303 0 1.00638 0.000781825 0 1.00633 0.000690495
0 1.00628 0.00059504 0 1.00625 0.000495652 0 1.00621 0.000392108 0
1.00619 0.000283773 0 1.00617 0.000170491 0 1.00606 5.63108e-05 0 0.0457794
5.4028e-06 0 0.139011 4.27691e-05 0 0.235438 0.000131386 0 0.334367 0.000267288
0 0.434514 0.000451535 0 0.533904 0.000683164 0 0.629869 0.00095602 0
0.719221 0.00125769 0 0.798663 0.00156956 0 0.865421 0.00186899 0 0.917916
0.00213373 0 0.956191 0.00234748 0 0.981861 0.00250378 0 0.997593 0.0026064
0 1.00635 0.00266619 0 1.01076 0.00269636 0 1.01275 0.00270866 0
1.01356 0.00271145 0 1.01385 0.00270975 0 1.01393 0.00270606 0 1.01395
0.0027015 0 1.01394 0.00269647 0 1.01393 0.0026911 0 1.01391 0.00268543
0 1.0139 0.00267944 0 1.01389 0.00267314 0 1.01388 0.00266651 0
1.01387 0.00265952 0 1.01386 0.00265217 0 1.01385 0.00264444 0 1.01385
0.0026363 0 1.01384 0.00262773 0 1.01384 0.00261872 0 1.01384 0.00260926
0 1.01384 0.00259931 0 1.01384 0.00258882 0 1.01384 0.00257778 0
1.01384 0.0025662 0 1.01383 0.00255406 0 1.01383 0.00254124 0 1.01382
0.00252764 0 1.0138 0.00251339 0 1.01378 0.00249846 0 1.01375 0.00248281
0 1.01372 0.00246633 0 1.01367 0.0024479 0 1.01361 0.00242753 0
1.01354 0.00242021 0 1.01345 0.00237005 0 1.01335 0.00239831 0 1.01323
0.00231164 0 1.0131 0.00234619 0 1.01295 0.00228733 0 1.01281 0.00225944
0 1.01264 0.00227097 0 1.01244 0.00216723 0 1.01221 0.0022324 0
1.01197 0.00210471 0 1.01169 0.00214539 0 1.01136 0.00206148 0 
POINT_DATA  182
FIELD attributes 2
p 1 182 float
0 0 0 0 0 0 0 0 0 0 0
0 0 0 0 0 0 0 0 0 0
0 0 0 0 0 0 0 0 0 0
0 0 0 0 0 0 0 0 0 0
0 0 0 0 0 0 0 0 0 0
0 0 0 0 0 0 0 0 0 0
0 0 0 0 0 0 0 0 0 0
0 0 0 0 0 0 0 0 0 0
0 0 0 0 0 0 0 0 0 0
0 0 0 0 0 0 0 0 0 0
0 0 0 0 0 0 0 0 0 0
0 0 0 0 0 0 0 0 0 0
0 0 0 0 0 0 0 0 0 0
0 0 0 0 0 0 0 0 0 0
0 0 0 0 0 0 0 0 0 0
0 0 0 0 0 0 0 0 0 0
0 0 0 0 0 0 0 0 0 0
0 0 0 0 0 0 0 0 0 0
0 
U 3 182 float
1.01119 0.00205225 0 1.01086 0.00203226 0 1.01086 0.00203226 0 1.01119 0.00205225
0 1.0105 0.00198927 0 1.0105 0.00198927 0 1.01009 0.00195455 0
1.01009 0.00195455 0 1.00963 0.00192048 0 1.00963 0.00192048 0 1.00916
0.00187335 0 1.00916 0.00187335 0 1.00872 0.00183381 0 1.00872 0.00183381
0 1.00836 0.00178658 0 1.00836 0.00178658 0 1.00807 0.00173979 0
1.00807 0.00173979 0 1.00783 0.00169126 0 1.00783 0.00169126 0 1.00762
0.00164063 0 1.00762 0.00164063 0 1.00745 0.00158791 0 1.00745 0.00158791
0 1.0073 0.00153301 0 1.0073 0.00153301 0 1.00716 0.00147563 0
1.00716 0.00147563 0 1.00705 0.00141558 0 1.00705 0.00141558 0 1.00694
0.00135291 0 1.00694 0.00135291 0 1.00684 0.00128739 0 1.00684 0.00128739
0 1.00676 0.00121878 0 1.00676 0.00121878 0 1.00667 0.00114707 0
1.00667 0.00114707 0 1.0066 0.00107208 0 1.0066 0.00107208 0 1.00653
0.000993702 0 1.00653 0.000993702 0 1.00647 0.000911776 0 1.00647 0.000911776
0 1.00641 0.000826169 0 1.00641 0.000826169 0 1.00636 0.000736804 0
1.00636 0.000736804 0 1.00631 0.000643454 0 1.00631 0.000643454 0 1.00627
0.000546074 0 1.00627 0.000546074 0 1.00623 0.000444651 0 1.00623 0.000444651
0 1.0062 0.00033876 0 1.0062 0.00033876 0 1.00618 0.000228002 0
1.00618 0.000228002 0 1.00612 0.00011429 0 1.00612 0.00011429 0 1.00606
5.63108e-05 0 1.00606 5.63108e-05 0 0.0457794 5.4028e-06 0 0.0923882 2.40832e-05
0 0.0923882 2.40832e-05 0 0.0457794 5.4028e-06 0 0.187217 8.70707e-05 0
0.187217 8.70707e-05 0 0.284894 0.000199326 0 0.284894 0.000199326 0 0.384431
0.000359395 0 0.384431 0.000359395 0 0.484199 0.000567327 0 0.484199 0.000567327
0 0.581876 0.000819563 0 0.581876 0.000819563 0 0.674535 0.00110682 0
0.674535 0.00110682 0 0.758932 0.00141359 0 0.758932 0.00141359 0 0.832033
0.00171924 0 0.832033 0.00171924 0 0.891661 0.00200132 0 0.891661 0.00200132
0 0.937047 0.00224057 0 0.937047 0.00224057 0 0.969022 0.0024256 0
0.969022 0.0024256 0 0.989724 0.00255507 0 0.989724 0.00255507 0 1.00197
0.00263628 0 1.00197 0.00263628 0 1.00855 0.00268127 0 1.00855 0.00268127
0 1.01176 0.00270251 0 1.01176 0.00270251 0 1.01316 0.00271006 0
1.01316 0.00271006 0 1.0137 0.0027106 0 1.0137 0.0027106 0 1.01389
0.0027079 0 1.01389 0.0027079 0 1.01394 0.00270378 0 1.01394 0.00270378
0 1.01394 0.00269899 0 1.01394 0.00269899 0 1.01393 0.00269379 0
1.01393 0.00269379 0 1.01392 0.00268827 0 1.01392 0.00268827 0 1.01391
0.00268244 0 1.01391 0.00268244 0 1.01389 0.00267629 0 1.01389 0.00267629
0 1.01388 0.00266983 0 1.01388 0.00266983 0 1.01387 0.00266302 0
1.01387 0.00266302 0 1.01386 0.00265585 0 1.01386 0.00265585 0 1.01386
0.00264831 0 1.01386 0.00264831 0 1.01385 0.00264038 0 1.01385 0.00264038
0 1.01385 0.00263202 0 1.01385 0.00263202 0 1.01384 0.00262323 0
1.01384 0.00262323 0 1.01384 0.002614 0 1.01384 0.002614 0 1.01384
0.00260429 0 1.01384 0.00260429 0 1.01384 0.00259407 0 1.01384 0.00259407
0 1.01384 0.00258331 0 1.01384 0.00258331 0 1.01384 0.002572 0
1.01384 0.002572 0 1.01384 0.00256014 0 1.01384 0.00256014 0 1.01383
0.00254766 0 1.01383 0.00254766 0 1.01382 0.00253446 0 1.01382 0.00253446
0 1.01381 0.00252054 0 1.01381 0.00252054 0 1.01379 0.00250595 0
1.01379 0.00250595 0 1.01377 0.00249066 0 1.01377 0.00249066 0 1.01373
0.00247459 0 1.01373 0.00247459 0 1.01369 0.00245715 0 1.01369 0.00245715
0 1.01364 0.00243776 0 1.01364 0.00243776 0 1.01357 0.00242389 0
1.01357 0.00242389 0 1.01349 0.00239524 0 1.01349 0.00239524 0 1.0134
0.00238411 0 1.0134 0.00238411 0 1.01329 0.00235519 0 1.01329 0.00235519
0 1.01317 0.00232882 0 1.01317 0.00232882 0 1.01303 0.00231692 0
1.01303 0.00231692 0 1.01288 0.00227346 0 1.01288 0.00227346 0 1.01273
0.00226517 0 1.01273 0.00226517 0 1.01254 0.00221944 0 1.01254 0.00221944
0 1.01233 0.00219959 0 1.01233 0.00219959 0 1.01209 0.00216902 0
1.01209 0.00216902 0 1.01183 0.00212489 0 1.01183 0.00212489 0 1.01153
0.00210377 0 1.01153 0.00210377 0 
