# vtk DataFile Version 2.0
outlet
ASCII
DATASET POLYDATA
POINTS 182 float
0.1 0.02 0 0.1 0.0207299 0 0.1 0.0207299 0.001 0.1 0.02
0.001 0.1 0.021488 0 0.1 0.021488 0.001 0.1 0.0222754 0
0.1 0.0222754 0.001 0.1 0.0230932 0 0.1 0.0230932 0.001 0.1
0.0239425 0 0.1 0.0239425 0.001 0.1 0.0248247 0 0.1 0.0248247
0.001 0.1 0.0257409 0 0.1 0.0257409 0.001 0.1 0.0266925 0
0.1 0.0266925 0.001 0.1 0.0276808 0 0.1 0.0276808 0.001 0.1
0.0287073 0 0.1 0.0287073 0.001 0.1 0.0297734 0 0.1 0.0297734
0.001 0.1 0.0308807 0 0.1 0.0308807 0.001 0.1 0.0320307 0
0.1 0.0320307 0.001 0.1 0.0332251 0 0.1 0.0332251 0.001 0.1
0.0344656 0 0.1 0.0344656 0.001 0.1 0.0357541 0 0.1 0.0357541
0.001 0.1 0.0370923 0 0.1 0.0370923 0.001 0.1 0.0384821 0
0.1 0.0384821 0.001 0.1 0.0399257 0 0.1 0.0399257 0.001 0.1
0.0414249 0 0.1 0.0414249 0.001 0.1 0.042982 0 0.1 0.042982
0.001 0.1 0.0445993 0 0.1 0.0445993 0.001 0.1 0.046279 0
0.1 0.046279 0.001 0.1 0.0480236 0 0.1 0.0480236 0.001 0.1
0.0498355 0 0.1 0.0498355 0.001 0.1 0.0517173 0 0.1 0.0517173
0.001 0.1 0.0536719 0 0.1 0.0536719 0.001 0.1 0.0557019 0
0.1 0.0557019 0.001 0.1 0.0578102 0 0.1 0.0578102 0.001 0.1
0.06 0 0.1 0.06 0.001 0.1 0 0 0.1 8.46956e-05
0 0.1 8.46956e-05 0.001 0.1 0 0.001 0.1 0.000172762 0
0.1 0.000172762 0.001 0.1 0.000264333 0 0.1 0.000264333 0.001 0.1
0.000359549 0 0.1 0.000359549 0.001 0.1 0.000458554 0 0.1 0.000458554
0.001 0.1 0.0005615 0 0.1 0.0005615 0.001 0.1 0.000668542 0
0.1 0.000668542 0.001 0.1 0.000779845 0 0.1 0.000779845 0.001 0.1
0.000895577 0 0.1 0.000895577 0.001 0.1 0.00101591 0 0.1 0.00101591
0.001 0.1 0.00114104 0 0.1 0.00114104 0.001 0.1 0.00127115 0
0.1 0.00127115 0.001 0.1 0.00140644 0 0.1 0.00140644 0.001 0.1
0.0015471 0 0.1 0.0015471 0.001 0.1 0.00169337 0 0.1 0.00169337
0.001 0.1 0.00184546 0 0.1 0.00184546 0.001 0.1 0.0020036 0
0.1 0.0020036 0.001 0.1 0.00216804 0 0.1 0.00216804 0.001 0.1
0.00233902 0 0.1 0.00233902 0.001 0.1 0.00251681 0 0.1 0.00251681
0.001 0.1 0.00270167 0 0.1 0.00270167 0.001 0.1 0.00289388 0
0.1 0.00289388 0.001 0.1 0.00309375 0 0.1 0.00309375 0.001 0.1
0.00330157 0 0.1 0.00330157 0.001 0.1 0.00351767 0 0.1 0.00351767
0.001 0.1 0.00374236 0 0.1 0.00374236 0.001 0.1 0.00397599 0
0.1 0.00397599 0.001 0.1 0.00421893 0 0.1 0.00421893 0.001 0.1
0.00447153 0 0.1 0.00447153 0.001 0.1 0.00473419 0 0.1 0.00473419
0.001 0.1 0.0050073 0 0.1 0.0050073 0.001 0.1 0.00529127 0
0.1 0.00529127 0.001 0.1 0.00558655 0 0.1 0.00558655 0.001 0.1
0.00589359 0 0.1 0.00589359 0.001 0.1 0.00621284 0 0.1 0.00621284
0.001 0.1 0.00654479 0 0.1 0.00654479 0.001 0.1 0.00688996 0
0.1 0.00688996 0.001 0.1 0.00724887 0 0.1 0.00724887 0.001 0.1
0.00762206 0 0.1 0.00762206 0.001 0.1 0.0080101 0 0.1 0.0080101
0.001 0.1 0.00841358 0 0.1 0.00841358 0.001 0.1 0.00883312 0
0.1 0.00883312 0.001 0.1 0.00926936 0 0.1 0.00926936 0.001 0.1
0.00972297 0 0.1 0.00972297 0.001 0.1 0.0101946 0 0.1 0.0101946
0.001 0.1 0.010685 0 0.1 0.010685 0.001 0.1 0.011195 0
0.1 0.011195 0.001 0.1 0.0117252 0 0.1 0.0117252 0.001 0.1
0.0122766 0 0.1 0.0122766 0.001 0.1 0.0128499 0 0.1 0.0128499
0.001 0.1 0.013446 0 0.1 0.013446 0.001 0.1 0.0140658 0
0.1 0.0140658 0.001 0.1 0.0147103 0 0.1 0.0147103 0.001 0.1
0.0153804 0 0.1 0.0153804 0.001 0.1 0.0160772 0 0.1 0.0160772
0.001 0.1 0.0168018 0 0.1 0.0168018 0.001 0.1 0.0175551 0
0.1 0.0175551 0.001 0.1 0.0183385 0 0.1 0.0183385 0.001 0.1
0.019153 0 0.1 0.019153 0.001 
POLYGONS 90 450
4 0 1 2 3 4 1 4 5 2 4
4 6 7 5 4 6 8 9 7 4
8 10 11 9 4 10 12 13 11 4
12 14 15 13 4 14 16 17 15 4
16 18 19 17 4 18 20 21 19 4
20 22 23 21 4 22 24 25 23 4
24 26 27 25 4 26 28 29 27 4
28 30 31 29 4 30 32 33 31 4
32 34 35 33 4 34 36 37 35 4
36 38 39 37 4 38 40 41 39 4
40 42 43 41 4 42 44 45 43 4
44 46 47 45 4 46 48 49 47 4
48 50 51 49 4 50 52 53 51 4
52 54 55 53 4 54 56 57 55 4
56 58 59 57 4 58 60 61 59 4
62 63 64 65 4 63 66 67 64 4
66 68 69 67 4 68 70 71 69 4
70 72 73 71 4 72 74 75 73 4
74 76 77 75 4 76 78 79 77 4
78 80 81 79 4 80 82 83 81 4
82 84 85 83 4 84 86 87 85 4
86 88 89 87 4 88 90 91 89 4
90 92 93 91 4 92 94 95 93 4
94 96 97 95 4 96 98 99 97 4
98 100 101 99 4 100 102 103 101 4
102 104 105 103 4 104 106 107 105 4
106 108 109 107 4 108 110 111 109 4
110 112 113 111 4 112 114 115 113 4
114 116 117 115 4 116 118 119 117 4
118 120 121 119 4 120 122 123 121 4
122 124 125 123 4 124 126 127 125 4
126 128 129 127 4 128 130 131 129 4
130 132 133 131 4 132 134 135 133 4
134 136 137 135 4 136 138 139 137 4
138 140 141 139 4 140 142 143 141 4
142 144 145 143 4 144 146 147 145 4
146 148 149 147 4 148 150 151 149 4
150 152 153 151 4 152 154 155 153 4
154 156 157 155 4 156 158 159 157 4
158 160 161 159 4 160 162 163 161 4
162 164 165 163 4 164 166 167 165 4
166 168 169 167 4 168 170 171 169 4
170 172 173 171 4 172 174 175 173 4
174 176 177 175 4 176 178 179 177 4
178 180 181 179 4 180 0 3 181 
CELL_DATA 90
FIELD attributes 3
patchID 1 90 float
2 2 2 2 2 2 2 2 2 2 2
2 2 2 2 2 2 2 2 2 2
2 2 2 2 2 2 2 2 2 2
2 2 2 2 2 2 2 2 2 2
2 2 2 2 2 2 2 2 2 2
2 2 2 2 2 2 2 2 2 2
2 2 2 2 2 2 2 2 2 2
2 2 2 2 2 2 2 2 2 2
2 2 2 2 2 2 2 2 2 
p 1 90 float
0 0 0 0 0 0 0 0 0 0 0
0 0 0 0 0 0 0 0 0 0
0 0 0 0 0 0 0 0 0 0
0 0 0 0 0 0 0 0 0 0
0 0 0 0 0 0 0 0 0 0
0 0 0 0 0 0 0 0 0 0
0 0 0 0 0 0 0 0 0 0
0 0 0 0 0 0 0 0 0 0
0 0 0 0 0 0 0 0 0 
U 3 90 float
1.01104 0.00203241 0 1.01069 0.0020169 0 1.01028 0.00194456 0 1.00981 0.00194701
0 1.00926 0.00187751 0 1.0088 0.00185027 0 1.00844 0.00180471 0
1.00814 0.00175684 0 1.0079 0.00171223 0 1.00769 0.00166327 0 1.00751
0.00161171 0 1.00736 0.00155861 0 1.00722 0.00150274 0 1.0071 0.00144418
0 1.00699 0.00138309 0 1.00689 0.00131906 0 1.0068 0.001252 0
1.00671 0.00118197 0 1.00664 0.0011087 0 1.00656 0.001032 0 1.0065
0.000951936 0 1.00644 0.000868224 0 1.00638 0.000780767 0 1.00633 0.000689491
0 1.00628 0.00059421 0 1.00624 0.000494889 0 1.00621 0.000391426 0
1.00618 0.000283378 0 1.00616 0.000170209 0 1.00606 5.6163e-05 0 0.0457754
5.4113e-06 0 0.138998 4.28706e-05 0 0.235418 0.000131727 0 0.334345 0.000267994
0 0.434493 0.000452706 0 0.533888 0.000684859 0 0.629861 0.000958251 0
0.71922 0.00126042 0 0.798668 0.00157273 0 0.86543 0.0018725 0 0.917929
0.00213749 0 0.956205 0.00235139 0 0.981877 0.00250777 0 0.997609 0.00261041
0 1.00637 0.00267018 0 1.01078 0.0027003 0 1.01277 0.00271254 0
1.01358 0.00271526 0 1.01387 0.00271348 0 1.01395 0.00270972 0 1.01397
0.00270508 0 1.01396 0.00269997 0 1.01395 0.00269452 0 1.01393 0.00268876
0 1.01392 0.00268268 0 1.01391 0.00267629 0 1.0139 0.00266956 0
1.01389 0.00266248 0 1.01388 0.00265503 0 1.01388 0.00264719 0 1.01387
0.00263894 0 1.01387 0.00263027 0 1.01387 0.00262113 0 1.01387 0.00261153
0 1.01387 0.00260144 0 1.01387 0.00259081 0 1.01387 0.00257963 0
1.01387 0.00256788 0 1.01387 0.0025555 0 1.01387 0.00254246 0 1.01386
0.00252871 0 1.01384 0.00251428 0 1.01382 0.00249904 0 1.01379 0.00248319
0 1.01375 0.00246614 0 1.0137 0.00244718 0 1.01364 0.00242995 0
1.01357 0.00241308 0 1.01348 0.00237933 0 1.01338 0.00238273 0 1.01326
0.00232586 0 1.01313 0.00233079 0 1.01298 0.00229239 0 1.01283 0.00225744
0 1.01267 0.00225743 0 1.01247 0.0021817 0 1.01224 0.00220749 0
1.01199 0.00211664 0 1.01172 0.00212823 0 1.01138 0.00206252 0 
POINT_DATA  182
FIELD attributes 2
p 1 182 float
0 0 0 0 0 0 0 0 0 0 0
0 0 0 0 0 0 0 0 0 0
0 0 0 0 0 0 0 0 0 0
0 0 0 0 0 0 0 0 0 0
0 0 0 0 0 0 0 0 0 0
0 0 0 0 0 0 0 0 0 0
0 0 0 0 0 0 0 0 0 0
0 0 0 0 0 0 0 0 0 0
0 0 0 0 0 0 0 0 0 0
0 0 0 0 0 0 0 0 0 0
0 0 0 0 0 0 0 0 0 0
0 0 0 0 0 0 0 0 0 0
0 0 0 0 0 0 0 0 0 0
0 0 0 0 0 0 0 0 0 0
0 0 0 0 0 0 0 0 0 0
0 0 0 0 0 0 0 0 0 0
0 0 0 0 0 0 0 0 0 0
0 0 0 0 0 0 0 0 0 0
0 
U 3 182 float
1.01121 0.00204704 0 1.01087 0.00202471 0 1.01087 0.00202471 0 1.01121 0.00204704
0 1.01049 0.00198099 0 1.01049 0.00198099 0 1.01005 0.00194578 0
1.01005 0.00194578 0 1.00954 0.00191253 0 1.00954 0.00191253 0 1.00903
0.001864 0 1.00903 0.001864 0 1.00862 0.00182769 0 1.00862 0.00182769
0 1.00829 0.00178099 0 1.00829 0.00178099 0 1.00802 0.00173474 0
1.00802 0.00173474 0 1.0078 0.00168799 0 1.0078 0.00168799 0 1.0076
0.00163775 0 1.0076 0.00163775 0 1.00744 0.00158543 0 1.00744 0.00158543
0 1.00729 0.00153097 0 1.00729 0.00153097 0 1.00716 0.00147378 0
1.00716 0.00147378 0 1.00705 0.00141398 0 1.00705 0.00141398 0 1.00694
0.00135145 0 1.00694 0.00135145 0 1.00684 0.00128593 0 1.00684 0.00128593
0 1.00676 0.00121742 0 1.00676 0.00121742 0 1.00668 0.0011458 0
1.00668 0.0011458 0 1.0066 0.00107085 0 1.0066 0.00107085 0 1.00653
0.000992499 0 1.00653 0.000992499 0 1.00647 0.000910647 0 1.00647 0.000910647
0 1.00641 0.000825101 0 1.00641 0.000825101 0 1.00635 0.000735774 0
1.00635 0.000735774 0 1.00631 0.000642536 0 1.00631 0.000642536 0 1.00626
0.000545277 0 1.00626 0.000545277 0 1.00623 0.000443928 0 1.00623 0.000443928
0 1.0062 0.000338219 0 1.0062 0.000338219 0 1.00617 0.000227662 0
1.00617 0.000227662 0 1.00611 0.000114074 0 1.00611 0.000114074 0 1.00606
5.6163e-05 0 1.00606 5.6163e-05 0 0.0457754 5.4113e-06 0 0.0923799 2.41383e-05
0 0.0923799 2.41383e-05 0 0.0457754 5.4113e-06 0 0.1872 8.72921e-05 0
0.1872 8.72921e-05 0 0.284873 0.000199849 0 0.284873 0.000199849 0 0.38441
0.000360333 0 0.38441 0.000360333 0 0.484181 0.00056876 0 0.484181 0.00056876
0 0.581864 0.000821526 0 0.581864 0.000821526 0 0.67453 0.0011093 0
0.67453 0.0011093 0 0.758934 0.00141654 0 0.758934 0.00141654 0 0.83204
0.00172258 0 0.83204 0.00172258 0 0.891672 0.00200496 0 0.891672 0.00200496
0 0.937061 0.00224441 0 0.937061 0.00224441 0 0.969037 0.00242956 0
0.969037 0.00242956 0 0.98974 0.00255907 0 0.98974 0.00255907 0 1.00199
0.00264028 0 1.00199 0.00264028 0 1.00857 0.00268523 0 1.00857 0.00268523
0 1.01177 0.00270642 0 1.01177 0.00270642 0 1.01317 0.0027139 0
1.01317 0.0027139 0 1.01372 0.00271437 0 1.01372 0.00271437 0 1.01391
0.0027116 0 1.01391 0.0027116 0 1.01396 0.0027074 0 1.01396 0.0027074
0 1.01396 0.00270252 0 1.01396 0.00270252 0 1.01395 0.00269724 0
1.01395 0.00269724 0 1.01394 0.00269164 0 1.01394 0.00269164 0 1.01393
0.00268572 0 1.01393 0.00268572 0 1.01391 0.00267949 0 1.01391 0.00267949
0 1.0139 0.00267293 0 1.0139 0.00267293 0 1.01389 0.00266603 0
1.01389 0.00266603 0 1.01389 0.00265876 0 1.01389 0.00265876 0 1.01388
0.00265111 0 1.01388 0.00265111 0 1.01387 0.00264307 0 1.01387 0.00264307
0 1.01387 0.00263461 0 1.01387 0.00263461 0 1.01387 0.00262571 0
1.01387 0.00262571 0 1.01387 0.00261634 0 1.01387 0.00261634 0 1.01387
0.00260649 0 1.01387 0.00260649 0 1.01387 0.00259613 0 1.01387 0.00259613
0 1.01387 0.00258523 0 1.01387 0.00258523 0 1.01387 0.00257377 0
1.01387 0.00257377 0 1.01387 0.00256171 0 1.01387 0.00256171 0 1.01387
0.002549 0 1.01387 0.002549 0 1.01386 0.0025356 0 1.01386 0.0025356
0 1.01385 0.00252151 0 1.01385 0.00252151 0 1.01383 0.00250668 0
1.01383 0.00250668 0 1.0138 0.00249114 0 1.0138 0.00249114 0 1.01377
0.00247469 0 1.01377 0.00247469 0 1.01372 0.00245669 0 1.01372 0.00245669
0 1.01367 0.0024386 0 1.01367 0.0024386 0 1.0136 0.00242155 0
1.0136 0.00242155 0 1.01352 0.00239628 0 1.01352 0.00239628 0 1.01343
0.00238103 0 1.01343 0.00238103 0 1.01332 0.00235444 0 1.01332 0.00235444
0 1.0132 0.00232831 0 1.0132 0.00232831 0 1.01306 0.0023117 0
1.01306 0.0023117 0 1.01291 0.00227502 0 1.01291 0.00227502 0 1.01275
0.00225744 0 1.01275 0.00225744 0 1.01257 0.00221981 0 1.01257 0.00221981
0 1.01235 0.0021945 0 1.01235 0.0021945 0 1.01212 0.00216239 0
1.01212 0.00216239 0 1.01186 0.00212239 0 1.01186 0.00212239 0 1.01155
0.00209564 0 1.01155 0.00209564 0 
