# vtk DataFile Version 2.0
outlet
ASCII
DATASET POLYDATA
POINTS 182 float
0.1 0.02 0 0.1 0.0207299 0 0.1 0.0207299 0.001 0.1 0.02
0.001 0.1 0.021488 0 0.1 0.021488 0.001 0.1 0.0222754 0
0.1 0.0222754 0.001 0.1 0.0230932 0 0.1 0.0230932 0.001 0.1
0.0239425 0 0.1 0.0239425 0.001 0.1 0.0248247 0 0.1 0.0248247
0.001 0.1 0.0257409 0 0.1 0.0257409 0.001 0.1 0.0266925 0
0.1 0.0266925 0.001 0.1 0.0276808 0 0.1 0.0276808 0.001 0.1
0.0287073 0 0.1 0.0287073 0.001 0.1 0.0297734 0 0.1 0.0297734
0.001 0.1 0.0308807 0 0.1 0.0308807 0.001 0.1 0.0320307 0
0.1 0.0320307 0.001 0.1 0.0332251 0 0.1 0.0332251 0.001 0.1
0.0344656 0 0.1 0.0344656 0.001 0.1 0.0357541 0 0.1 0.0357541
0.001 0.1 0.0370923 0 0.1 0.0370923 0.001 0.1 0.0384821 0
0.1 0.0384821 0.001 0.1 0.0399257 0 0.1 0.0399257 0.001 0.1
0.0414249 0 0.1 0.0414249 0.001 0.1 0.042982 0 0.1 0.042982
0.001 0.1 0.0445993 0 0.1 0.0445993 0.001 0.1 0.046279 0
0.1 0.046279 0.001 0.1 0.0480236 0 0.1 0.0480236 0.001 0.1
0.0498355 0 0.1 0.0498355 0.001 0.1 0.0517173 0 0.1 0.0517173
0.001 0.1 0.0536719 0 0.1 0.0536719 0.001 0.1 0.0557019 0
0.1 0.0557019 0.001 0.1 0.0578102 0 0.1 0.0578102 0.001 0.1
0.06 0 0.1 0.06 0.001 0.1 0 0 0.1 8.46956e-05
0 0.1 8.46956e-05 0.001 0.1 0 0.001 0.1 0.000172762 0
0.1 0.000172762 0.001 0.1 0.000264333 0 0.1 0.000264333 0.001 0.1
0.000359549 0 0.1 0.000359549 0.001 0.1 0.000458554 0 0.1 0.000458554
0.001 0.1 0.0005615 0 0.1 0.0005615 0.001 0.1 0.000668542 0
0.1 0.000668542 0.001 0.1 0.000779845 0 0.1 0.000779845 0.001 0.1
0.000895577 0 0.1 0.000895577 0.001 0.1 0.00101591 0 0.1 0.00101591
0.001 0.1 0.00114104 0 0.1 0.00114104 0.001 0.1 0.00127115 0
0.1 0.00127115 0.001 0.1 0.00140644 0 0.1 0.00140644 0.001 0.1
0.0015471 0 0.1 0.0015471 0.001 0.1 0.00169337 0 0.1 0.00169337
0.001 0.1 0.00184546 0 0.1 0.00184546 0.001 0.1 0.0020036 0
0.1 0.0020036 0.001 0.1 0.00216804 0 0.1 0.00216804 0.001 0.1
0.00233902 0 0.1 0.00233902 0.001 0.1 0.00251681 0 0.1 0.00251681
0.001 0.1 0.00270167 0 0.1 0.00270167 0.001 0.1 0.00289388 0
0.1 0.00289388 0.001 0.1 0.00309375 0 0.1 0.00309375 0.001 0.1
0.00330157 0 0.1 0.00330157 0.001 0.1 0.00351767 0 0.1 0.00351767
0.001 0.1 0.00374236 0 0.1 0.00374236 0.001 0.1 0.00397599 0
0.1 0.00397599 0.001 0.1 0.00421893 0 0.1 0.00421893 0.001 0.1
0.00447153 0 0.1 0.00447153 0.001 0.1 0.00473419 0 0.1 0.00473419
0.001 0.1 0.0050073 0 0.1 0.0050073 0.001 0.1 0.00529127 0
0.1 0.00529127 0.001 0.1 0.00558655 0 0.1 0.00558655 0.001 0.1
0.00589359 0 0.1 0.00589359 0.001 0.1 0.00621284 0 0.1 0.00621284
0.001 0.1 0.00654479 0 0.1 0.00654479 0.001 0.1 0.00688996 0
0.1 0.00688996 0.001 0.1 0.00724887 0 0.1 0.00724887 0.001 0.1
0.00762206 0 0.1 0.00762206 0.001 0.1 0.0080101 0 0.1 0.0080101
0.001 0.1 0.00841358 0 0.1 0.00841358 0.001 0.1 0.00883312 0
0.1 0.00883312 0.001 0.1 0.00926936 0 0.1 0.00926936 0.001 0.1
0.00972297 0 0.1 0.00972297 0.001 0.1 0.0101946 0 0.1 0.0101946
0.001 0.1 0.010685 0 0.1 0.010685 0.001 0.1 0.011195 0
0.1 0.011195 0.001 0.1 0.0117252 0 0.1 0.0117252 0.001 0.1
0.0122766 0 0.1 0.0122766 0.001 0.1 0.0128499 0 0.1 0.0128499
0.001 0.1 0.013446 0 0.1 0.013446 0.001 0.1 0.0140658 0
0.1 0.0140658 0.001 0.1 0.0147103 0 0.1 0.0147103 0.001 0.1
0.0153804 0 0.1 0.0153804 0.001 0.1 0.0160772 0 0.1 0.0160772
0.001 0.1 0.0168018 0 0.1 0.0168018 0.001 0.1 0.0175551 0
0.1 0.0175551 0.001 0.1 0.0183385 0 0.1 0.0183385 0.001 0.1
0.019153 0 0.1 0.019153 0.001 
POLYGONS 90 450
4 0 1 2 3 4 1 4 5 2 4
4 6 7 5 4 6 8 9 7 4
8 10 11 9 4 10 12 13 11 4
12 14 15 13 4 14 16 17 15 4
16 18 19 17 4 18 20 21 19 4
20 22 23 21 4 22 24 25 23 4
24 26 27 25 4 26 28 29 27 4
28 30 31 29 4 30 32 33 31 4
32 34 35 33 4 34 36 37 35 4
36 38 39 37 4 38 40 41 39 4
40 42 43 41 4 42 44 45 43 4
44 46 47 45 4 46 48 49 47 4
48 50 51 49 4 50 52 53 51 4
52 54 55 53 4 54 56 57 55 4
56 58 59 57 4 58 60 61 59 4
62 63 64 65 4 63 66 67 64 4
66 68 69 67 4 68 70 71 69 4
70 72 73 71 4 72 74 75 73 4
74 76 77 75 4 76 78 79 77 4
78 80 81 79 4 80 82 83 81 4
82 84 85 83 4 84 86 87 85 4
86 88 89 87 4 88 90 91 89 4
90 92 93 91 4 92 94 95 93 4
94 96 97 95 4 96 98 99 97 4
98 100 101 99 4 100 102 103 101 4
102 104 105 103 4 104 106 107 105 4
106 108 109 107 4 108 110 111 109 4
110 112 113 111 4 112 114 115 113 4
114 116 117 115 4 116 118 119 117 4
118 120 121 119 4 120 122 123 121 4
122 124 125 123 4 124 126 127 125 4
126 128 129 127 4 128 130 131 129 4
130 132 133 131 4 132 134 135 133 4
134 136 137 135 4 136 138 139 137 4
138 140 141 139 4 140 142 143 141 4
142 144 145 143 4 144 146 147 145 4
146 148 149 147 4 148 150 151 149 4
150 152 153 151 4 152 154 155 153 4
154 156 157 155 4 156 158 159 157 4
158 160 161 159 4 160 162 163 161 4
162 164 165 163 4 164 166 167 165 4
166 168 169 167 4 168 170 171 169 4
170 172 173 171 4 172 174 175 173 4
174 176 177 175 4 176 178 179 177 4
178 180 181 179 4 180 0 3 181 
CELL_DATA 90
FIELD attributes 3
patchID 1 90 float
2 2 2 2 2 2 2 2 2 2 2
2 2 2 2 2 2 2 2 2 2
2 2 2 2 2 2 2 2 2 2
2 2 2 2 2 2 2 2 2 2
2 2 2 2 2 2 2 2 2 2
2 2 2 2 2 2 2 2 2 2
2 2 2 2 2 2 2 2 2 2
2 2 2 2 2 2 2 2 2 2
2 2 2 2 2 2 2 2 2 
p 1 90 float
0 0 0 0 0 0 0 0 0 0 0
0 0 0 0 0 0 0 0 0 0
0 0 0 0 0 0 0 0 0 0
0 0 0 0 0 0 0 0 0 0
0 0 0 0 0 0 0 0 0 0
0 0 0 0 0 0 0 0 0 0
0 0 0 0 0 0 0 0 0 0
0 0 0 0 0 0 0 0 0 0
0 0 0 0 0 0 0 0 0 
U 3 90 float
1.01095 0.00198955 0 1.01058 0.00203399 0 1.01015 0.00193528 0 1.00959 0.00194482
0 1.00909 0.00187357 0 1.0087 0.00184926 0 1.00839 0.00180141 0
1.00812 0.00175595 0 1.00789 0.00171015 0 1.00769 0.00166162 0 1.00752
0.00161048 0 1.00737 0.00155704 0 1.00724 0.00150128 0 1.00712 0.00144273
0 1.00701 0.00138161 0 1.0069 0.0013177 0 1.00681 0.00125069 0
1.00673 0.00118064 0 1.00665 0.00110747 0 1.00657 0.00103087 0 1.0065
0.000950817 0 1.00644 0.000867201 0 1.00638 0.000779855 0 1.00633 0.000688685
0 1.00629 0.000593461 0 1.00625 0.000494266 0 1.00621 0.000390936 0
1.00619 0.000283011 0 1.00617 0.000170001 0 1.00606 5.60668e-05 0 0.0457801
5.41069e-06 0 0.139012 4.2867e-05 0 0.235442 0.000131717 0 0.334377 0.000267973
0 0.434533 0.000452667 0 0.533935 0.000684796 0 0.629912 0.000958155 0
0.719273 0.00126028 0 0.798721 0.00157255 0 0.865483 0.00187227 0 0.917978
0.00213721 0 0.956253 0.00235106 0 0.981922 0.0025074 0 0.997651 0.00261001
0 1.00641 0.00266975 0 1.01082 0.00269985 0 1.01281 0.00271208 0
1.01362 0.00271479 0 1.01391 0.002713 0 1.01399 0.00270923 0 1.01401
0.00270458 0 1.014 0.00269946 0 1.01399 0.002694 0 1.01397 0.00268823
0 1.01396 0.00268215 0 1.01395 0.00267575 0 1.01394 0.00266901 0
1.01393 0.00266191 0 1.01393 0.00265445 0 1.01392 0.00264659 0 1.01392
0.00263832 0 1.01392 0.00262961 0 1.01392 0.00262047 0 1.01392 0.00261086
0 1.01392 0.00260071 0 1.01392 0.00259002 0 1.01393 0.00257883 0
1.01393 0.00256707 0 1.01393 0.00255459 0 1.01392 0.00254144 0 1.01391
0.00252767 0 1.01389 0.00251324 0 1.01387 0.00249794 0 1.01384 0.00248171
0 1.0138 0.00246471 0 1.01375 0.00244674 0 1.01368 0.00242796 0
1.01361 0.00240876 0 1.01352 0.00238903 0 1.01342 0.00235581 0 1.0133
0.00236368 0 1.01316 0.00228112 0 1.01301 0.00234131 0 1.01284 0.0022113
0 1.01265 0.00227705 0 1.01244 0.00218447 0 1.01221 0.00217217 0
1.01196 0.00216585 0 1.01167 0.00206041 0 1.01131 0.00212552 0 
POINT_DATA  182
FIELD attributes 2
p 1 182 float
0 0 0 0 0 0 0 0 0 0 0
0 0 0 0 0 0 0 0 0 0
0 0 0 0 0 0 0 0 0 0
0 0 0 0 0 0 0 0 0 0
0 0 0 0 0 0 0 0 0 0
0 0 0 0 0 0 0 0 0 0
0 0 0 0 0 0 0 0 0 0
0 0 0 0 0 0 0 0 0 0
0 0 0 0 0 0 0 0 0 0
0 0 0 0 0 0 0 0 0 0
0 0 0 0 0 0 0 0 0 0
0 0 0 0 0 0 0 0 0 0
0 0 0 0 0 0 0 0 0 0
0 0 0 0 0 0 0 0 0 0
0 0 0 0 0 0 0 0 0 0
0 0 0 0 0 0 0 0 0 0
0 0 0 0 0 0 0 0 0 0
0 0 0 0 0 0 0 0 0 0
0 
U 3 182 float
1.01113 0.00205561 0 1.01077 0.00201162 0 1.01077 0.00201162 0 1.01113 0.00205561
0 1.01037 0.00198498 0 1.01037 0.00198498 0 1.00987 0.00194002 0
1.00987 0.00194002 0 1.00934 0.00190947 0 1.00934 0.00190947 0 1.0089
0.00186152 0 1.0089 0.00186152 0 1.00855 0.00182554 0 1.00855 0.00182554
0 1.00825 0.00177888 0 1.00825 0.00177888 0 1.008 0.00173326 0
1.008 0.00173326 0 1.00779 0.00168612 0 1.00779 0.00168612 0 1.00761
0.00163631 0 1.00761 0.00163631 0 1.00745 0.00158404 0 1.00745 0.00158404
0 1.00731 0.00152946 0 1.00731 0.00152946 0 1.00718 0.00147233 0
1.00718 0.00147233 0 1.00706 0.00141252 0 1.00706 0.00141252 0 1.00696
0.00135003 0 1.00696 0.00135003 0 1.00686 0.0012846 0 1.00686 0.0012846
0 1.00677 0.0012161 0 1.00677 0.0012161 0 1.00669 0.00114451 0
1.00669 0.00114451 0 1.00661 0.00106966 0 1.00661 0.00106966 0 1.00654
0.000991373 0 1.00654 0.000991373 0 1.00647 0.000909576 0 1.00647 0.000909576
0 1.00641 0.000824133 0 1.00641 0.000824133 0 1.00636 0.000734913 0
1.00636 0.000734913 0 1.00631 0.000641758 0 1.00631 0.000641758 0 1.00627
0.00054459 0 1.00627 0.00054459 0 1.00623 0.00044337 0 1.00623 0.00044337
0 1.0062 0.00033779 0 1.0062 0.00033779 0 1.00618 0.000227374 0
1.00618 0.000227374 0 1.00611 0.000113921 0 1.00611 0.000113921 0 1.00606
5.60668e-05 0 1.00606 5.60668e-05 0 0.0457801 5.41069e-06 0 0.0923893 2.41361e-05
0 0.0923893 2.41361e-05 0 0.0457801 5.41069e-06 0 0.187219 8.7285e-05 0
0.187219 8.7285e-05 0 0.284901 0.000199833 0 0.284901 0.000199833 0 0.384446
0.000360303 0 0.384446 0.000360303 0 0.484224 0.000568709 0 0.484224 0.000568709
0 0.581913 0.000821446 0 0.581913 0.000821446 0 0.674582 0.00110918 0
0.674582 0.00110918 0 0.758987 0.00141638 0 0.758987 0.00141638 0 0.832093
0.00172237 0 0.832093 0.00172237 0 0.891723 0.0020047 0 0.891723 0.0020047
0 0.93711 0.0022441 0 0.93711 0.0022441 0 0.969083 0.0024292 0
0.969083 0.0024292 0 0.989784 0.00255868 0 0.989784 0.00255868 0 1.00203
0.00263987 0 1.00203 0.00263987 0 1.00861 0.00268479 0 1.00861 0.00268479
0 1.01181 0.00270596 0 1.01181 0.00270596 0 1.01321 0.00271343 0
1.01321 0.00271343 0 1.01376 0.0027139 0 1.01376 0.0027139 0 1.01395
0.00271112 0 1.01395 0.00271112 0 1.014 0.00270691 0 1.014 0.00270691
0 1.014 0.00270203 0 1.014 0.00270203 0 1.01399 0.00269674 0
1.01399 0.00269674 0 1.01398 0.00269112 0 1.01398 0.00269112 0 1.01397
0.0026852 0 1.01397 0.0026852 0 1.01396 0.00267895 0 1.01396 0.00267895
0 1.01395 0.00267238 0 1.01395 0.00267238 0 1.01394 0.00266546 0
1.01394 0.00266546 0 1.01393 0.00265818 0 1.01393 0.00265818 0 1.01392
0.00265052 0 1.01392 0.00265052 0 1.01392 0.00264246 0 1.01392 0.00264246
0 1.01392 0.00263397 0 1.01392 0.00263397 0 1.01392 0.00262505 0
1.01392 0.00262505 0 1.01392 0.00261567 0 1.01392 0.00261567 0 1.01392
0.00260579 0 1.01392 0.00260579 0 1.01392 0.00259538 0 1.01392 0.00259538
0 1.01393 0.00258444 0 1.01393 0.00258444 0 1.01393 0.00257296 0
1.01393 0.00257296 0 1.01393 0.00256084 0 1.01393 0.00256084 0 1.01392
0.00254803 0 1.01392 0.00254803 0 1.01392 0.00253457 0 1.01392 0.00253457
0 1.0139 0.00252048 0 1.0139 0.00252048 0 1.01388 0.00250561 0
1.01388 0.00250561 0 1.01386 0.00248985 0 1.01386 0.00248985 0 1.01382
0.00247324 0 1.01382 0.00247324 0 1.01377 0.00245576 0 1.01377 0.00245576
0 1.01372 0.00243739 0 1.01372 0.00243739 0 1.01365 0.0024184 0
1.01365 0.0024184 0 1.01357 0.00239894 0 1.01357 0.00239894 0 1.01347
0.0023725 0 1.01347 0.0023725 0 1.01336 0.00235973 0 1.01336 0.00235973
0 1.01323 0.00232262 0 1.01323 0.00232262 0 1.01309 0.00231105 0
1.01309 0.00231105 0 1.01292 0.00227669 0 1.01292 0.00227669 0 1.01275
0.00224397 0 1.01275 0.00224397 0 1.01255 0.00223106 0 1.01255 0.00223106
0 1.01232 0.00217836 0 1.01232 0.00217836 0 1.01208 0.00216903 0
1.01208 0.00216903 0 1.01181 0.00211353 0 1.01181 0.00211353 0 1.01149
0.00209271 0 1.01149 0.00209271 0 
