# vtk DataFile Version 2.0
outlet
ASCII
DATASET POLYDATA
POINTS 182 float
0.1 0.02 0 0.1 0.0207299 0 0.1 0.0207299 0.001 0.1 0.02
0.001 0.1 0.021488 0 0.1 0.021488 0.001 0.1 0.0222754 0
0.1 0.0222754 0.001 0.1 0.0230932 0 0.1 0.0230932 0.001 0.1
0.0239425 0 0.1 0.0239425 0.001 0.1 0.0248247 0 0.1 0.0248247
0.001 0.1 0.0257409 0 0.1 0.0257409 0.001 0.1 0.0266925 0
0.1 0.0266925 0.001 0.1 0.0276808 0 0.1 0.0276808 0.001 0.1
0.0287073 0 0.1 0.0287073 0.001 0.1 0.0297734 0 0.1 0.0297734
0.001 0.1 0.0308807 0 0.1 0.0308807 0.001 0.1 0.0320307 0
0.1 0.0320307 0.001 0.1 0.0332251 0 0.1 0.0332251 0.001 0.1
0.0344656 0 0.1 0.0344656 0.001 0.1 0.0357541 0 0.1 0.0357541
0.001 0.1 0.0370923 0 0.1 0.0370923 0.001 0.1 0.0384821 0
0.1 0.0384821 0.001 0.1 0.0399257 0 0.1 0.0399257 0.001 0.1
0.0414249 0 0.1 0.0414249 0.001 0.1 0.042982 0 0.1 0.042982
0.001 0.1 0.0445993 0 0.1 0.0445993 0.001 0.1 0.046279 0
0.1 0.046279 0.001 0.1 0.0480236 0 0.1 0.0480236 0.001 0.1
0.0498355 0 0.1 0.0498355 0.001 0.1 0.0517173 0 0.1 0.0517173
0.001 0.1 0.0536719 0 0.1 0.0536719 0.001 0.1 0.0557019 0
0.1 0.0557019 0.001 0.1 0.0578102 0 0.1 0.0578102 0.001 0.1
0.06 0 0.1 0.06 0.001 0.1 0 0 0.1 8.46956e-05
0 0.1 8.46956e-05 0.001 0.1 0 0.001 0.1 0.000172762 0
0.1 0.000172762 0.001 0.1 0.000264333 0 0.1 0.000264333 0.001 0.1
0.000359549 0 0.1 0.000359549 0.001 0.1 0.000458554 0 0.1 0.000458554
0.001 0.1 0.0005615 0 0.1 0.0005615 0.001 0.1 0.000668542 0
0.1 0.000668542 0.001 0.1 0.000779845 0 0.1 0.000779845 0.001 0.1
0.000895577 0 0.1 0.000895577 0.001 0.1 0.00101591 0 0.1 0.00101591
0.001 0.1 0.00114104 0 0.1 0.00114104 0.001 0.1 0.00127115 0
0.1 0.00127115 0.001 0.1 0.00140644 0 0.1 0.00140644 0.001 0.1
0.0015471 0 0.1 0.0015471 0.001 0.1 0.00169337 0 0.1 0.00169337
0.001 0.1 0.00184546 0 0.1 0.00184546 0.001 0.1 0.0020036 0
0.1 0.0020036 0.001 0.1 0.00216804 0 0.1 0.00216804 0.001 0.1
0.00233902 0 0.1 0.00233902 0.001 0.1 0.00251681 0 0.1 0.00251681
0.001 0.1 0.00270167 0 0.1 0.00270167 0.001 0.1 0.00289388 0
0.1 0.00289388 0.001 0.1 0.00309375 0 0.1 0.00309375 0.001 0.1
0.00330157 0 0.1 0.00330157 0.001 0.1 0.00351767 0 0.1 0.00351767
0.001 0.1 0.00374236 0 0.1 0.00374236 0.001 0.1 0.00397599 0
0.1 0.00397599 0.001 0.1 0.00421893 0 0.1 0.00421893 0.001 0.1
0.00447153 0 0.1 0.00447153 0.001 0.1 0.00473419 0 0.1 0.00473419
0.001 0.1 0.0050073 0 0.1 0.0050073 0.001 0.1 0.00529127 0
0.1 0.00529127 0.001 0.1 0.00558655 0 0.1 0.00558655 0.001 0.1
0.00589359 0 0.1 0.00589359 0.001 0.1 0.00621284 0 0.1 0.00621284
0.001 0.1 0.00654479 0 0.1 0.00654479 0.001 0.1 0.00688996 0
0.1 0.00688996 0.001 0.1 0.00724887 0 0.1 0.00724887 0.001 0.1
0.00762206 0 0.1 0.00762206 0.001 0.1 0.0080101 0 0.1 0.0080101
0.001 0.1 0.00841358 0 0.1 0.00841358 0.001 0.1 0.00883312 0
0.1 0.00883312 0.001 0.1 0.00926936 0 0.1 0.00926936 0.001 0.1
0.00972297 0 0.1 0.00972297 0.001 0.1 0.0101946 0 0.1 0.0101946
0.001 0.1 0.010685 0 0.1 0.010685 0.001 0.1 0.011195 0
0.1 0.011195 0.001 0.1 0.0117252 0 0.1 0.0117252 0.001 0.1
0.0122766 0 0.1 0.0122766 0.001 0.1 0.0128499 0 0.1 0.0128499
0.001 0.1 0.013446 0 0.1 0.013446 0.001 0.1 0.0140658 0
0.1 0.0140658 0.001 0.1 0.0147103 0 0.1 0.0147103 0.001 0.1
0.0153804 0 0.1 0.0153804 0.001 0.1 0.0160772 0 0.1 0.0160772
0.001 0.1 0.0168018 0 0.1 0.0168018 0.001 0.1 0.0175551 0
0.1 0.0175551 0.001 0.1 0.0183385 0 0.1 0.0183385 0.001 0.1
0.019153 0 0.1 0.019153 0.001 
POLYGONS 90 450
4 0 1 2 3 4 1 4 5 2 4
4 6 7 5 4 6 8 9 7 4
8 10 11 9 4 10 12 13 11 4
12 14 15 13 4 14 16 17 15 4
16 18 19 17 4 18 20 21 19 4
20 22 23 21 4 22 24 25 23 4
24 26 27 25 4 26 28 29 27 4
28 30 31 29 4 30 32 33 31 4
32 34 35 33 4 34 36 37 35 4
36 38 39 37 4 38 40 41 39 4
40 42 43 41 4 42 44 45 43 4
44 46 47 45 4 46 48 49 47 4
48 50 51 49 4 50 52 53 51 4
52 54 55 53 4 54 56 57 55 4
56 58 59 57 4 58 60 61 59 4
62 63 64 65 4 63 66 67 64 4
66 68 69 67 4 68 70 71 69 4
70 72 73 71 4 72 74 75 73 4
74 76 77 75 4 76 78 79 77 4
78 80 81 79 4 80 82 83 81 4
82 84 85 83 4 84 86 87 85 4
86 88 89 87 4 88 90 91 89 4
90 92 93 91 4 92 94 95 93 4
94 96 97 95 4 96 98 99 97 4
98 100 101 99 4 100 102 103 101 4
102 104 105 103 4 104 106 107 105 4
106 108 109 107 4 108 110 111 109 4
110 112 113 111 4 112 114 115 113 4
114 116 117 115 4 116 118 119 117 4
118 120 121 119 4 120 122 123 121 4
122 124 125 123 4 124 126 127 125 4
126 128 129 127 4 128 130 131 129 4
130 132 133 131 4 132 134 135 133 4
134 136 137 135 4 136 138 139 137 4
138 140 141 139 4 140 142 143 141 4
142 144 145 143 4 144 146 147 145 4
146 148 149 147 4 148 150 151 149 4
150 152 153 151 4 152 154 155 153 4
154 156 157 155 4 156 158 159 157 4
158 160 161 159 4 160 162 163 161 4
162 164 165 163 4 164 166 167 165 4
166 168 169 167 4 168 170 171 169 4
170 172 173 171 4 172 174 175 173 4
174 176 177 175 4 176 178 179 177 4
178 180 181 179 4 180 0 3 181 
CELL_DATA 90
FIELD attributes 3
patchID 1 90 float
2 2 2 2 2 2 2 2 2 2 2
2 2 2 2 2 2 2 2 2 2
2 2 2 2 2 2 2 2 2 2
2 2 2 2 2 2 2 2 2 2
2 2 2 2 2 2 2 2 2 2
2 2 2 2 2 2 2 2 2 2
2 2 2 2 2 2 2 2 2 2
2 2 2 2 2 2 2 2 2 2
2 2 2 2 2 2 2 2 2 
p 1 90 float
0 0 0 0 0 0 0 0 0 0 0
0 0 0 0 0 0 0 0 0 0
0 0 0 0 0 0 0 0 0 0
0 0 0 0 0 0 0 0 0 0
0 0 0 0 0 0 0 0 0 0
0 0 0 0 0 0 0 0 0 0
0 0 0 0 0 0 0 0 0 0
0 0 0 0 0 0 0 0 0 0
0 0 0 0 0 0 0 0 0 
U 3 90 float
1.01103 0.00201603 0 1.01066 0.00202359 0 1.01023 0.00193891 0 1.00971 0.00194642
0 1.00918 0.00187504 0 1.00875 0.0018478 0 1.00841 0.00180446 0
1.00813 0.00175412 0 1.00789 0.00171127 0 1.00769 0.0016619 0 1.00752
0.00161032 0 1.00736 0.00155737 0 1.00723 0.00150147 0 1.0071 0.00144293
0 1.00699 0.00138188 0 1.00689 0.00131793 0 1.0068 0.00125096 0
1.00672 0.00118089 0 1.00664 0.00110769 0 1.00657 0.0010311 0 1.0065
0.000951071 0 1.00644 0.000867418 0 1.00638 0.000780045 0 1.00633 0.000688875
0 1.00628 0.000593647 0 1.00624 0.000494396 0 1.00621 0.000391051 0
1.00618 0.000283109 0 1.00616 0.000170043 0 1.00606 5.60927e-05 0 0.0457776
5.41086e-06 0 0.139004 4.28686e-05 0 0.235429 0.000131722 0 0.33436 0.000267984
0 0.434511 0.000452687 0 0.533909 0.000684827 0 0.629883 0.000958201 0
0.719242 0.00126035 0 0.798689 0.00157263 0 0.86545 0.00187237 0 0.917947
0.00213733 0 0.956222 0.00235121 0 0.981892 0.00250756 0 0.997623 0.00261019
0 1.00638 0.00266994 0 1.01079 0.00270005 0 1.01278 0.00271228 0
1.01359 0.002715 0 1.01388 0.00271322 0 1.01396 0.00270945 0 1.01398
0.00270481 0 1.01397 0.00269969 0 1.01396 0.00269424 0 1.01394 0.00268847
0 1.01393 0.0026824 0 1.01392 0.002676 0 1.01391 0.00266926 0
1.0139 0.00266218 0 1.0139 0.00265472 0 1.01389 0.00264687 0 1.01389
0.00263862 0 1.01388 0.00262991 0 1.01388 0.00262079 0 1.01388 0.00261119
0 1.01389 0.00260101 0 1.01389 0.00259042 0 1.01389 0.00257927 0
1.01389 0.00256734 0 1.01389 0.00255504 0 1.01389 0.00254204 0 1.01388
0.002528 0 1.01386 0.00251379 0 1.01384 0.00249871 0 1.01381 0.00248191
0 1.01377 0.00246511 0 1.01372 0.00244836 0 1.01366 0.00242914 0
1.01358 0.00240371 0 1.0135 0.00240211 0 1.0134 0.00234007 0 1.01328
0.00237995 0 1.01315 0.00227672 0 1.013 0.00232544 0 1.01283 0.0022492
0 1.01267 0.00223404 0 1.01247 0.00222795 0 1.01224 0.00214238 0
1.01199 0.00217278 0 1.01171 0.00208359 0 1.01137 0.00208883 0 
POINT_DATA  182
FIELD attributes 2
p 1 182 float
0 0 0 0 0 0 0 0 0 0 0
0 0 0 0 0 0 0 0 0 0
0 0 0 0 0 0 0 0 0 0
0 0 0 0 0 0 0 0 0 0
0 0 0 0 0 0 0 0 0 0
0 0 0 0 0 0 0 0 0 0
0 0 0 0 0 0 0 0 0 0
0 0 0 0 0 0 0 0 0 0
0 0 0 0 0 0 0 0 0 0
0 0 0 0 0 0 0 0 0 0
0 0 0 0 0 0 0 0 0 0
0 0 0 0 0 0 0 0 0 0
0 0 0 0 0 0 0 0 0 0
0 0 0 0 0 0 0 0 0 0
0 0 0 0 0 0 0 0 0 0
0 0 0 0 0 0 0 0 0 0
0 0 0 0 0 0 0 0 0 0
0 0 0 0 0 0 0 0 0 0
0 
U 3 182 float
1.01119 0.00205139 0 1.01085 0.00201978 0 1.01085 0.00201978 0 1.01119 0.00205139
0 1.01045 0.00198155 0 1.01045 0.00198155 0 1.00997 0.00194264 0
1.00997 0.00194264 0 1.00945 0.001911 0 1.00945 0.001911 0 1.00897
0.00186153 0 1.00897 0.00186153 0 1.00858 0.00182632 0 1.00858 0.00182632
0 1.00827 0.00177951 0 1.00827 0.00177951 0 1.00801 0.00173289 0
1.00801 0.00173289 0 1.00779 0.00168682 0 1.00779 0.00168682 0 1.0076
0.00163637 0 1.0076 0.00163637 0 1.00744 0.00158412 0 1.00744 0.00158412
0 1.0073 0.00152972 0 1.0073 0.00152972 0 1.00717 0.00147252 0
1.00717 0.00147252 0 1.00705 0.00141275 0 1.00705 0.00141275 0 1.00694
0.00135028 0 1.00694 0.00135028 0 1.00685 0.00128484 0 1.00685 0.00128484
0 1.00676 0.00121636 0 1.00676 0.00121636 0 1.00668 0.00114476 0
1.00668 0.00114476 0 1.0066 0.00106989 0 1.0066 0.00106989 0 1.00653
0.000991618 0 1.00653 0.000991618 0 1.00647 0.000909812 0 1.00647 0.000909812
0 1.00641 0.000824336 0 1.00641 0.000824336 0 1.00635 0.000735103 0
1.00635 0.000735103 0 1.00631 0.000641946 0 1.00631 0.000641946 0 1.00626
0.000544748 0 1.00626 0.000544748 0 1.00623 0.000443493 0 1.00623 0.000443493
0 1.0062 0.000337897 0 1.0062 0.000337897 0 1.00617 0.000227444 0
1.00617 0.000227444 0 1.00611 0.000113955 0 1.00611 0.000113955 0 1.00606
5.60927e-05 0 1.00606 5.60927e-05 0 0.0457776 5.41086e-06 0 0.0923842 2.4137e-05
0 0.0923842 2.4137e-05 0 0.0457776 5.41086e-06 0 0.187209 8.72885e-05 0
0.187209 8.72885e-05 0 0.284886 0.000199842 0 0.284886 0.000199842 0 0.384426
0.000360319 0 0.384426 0.000360319 0 0.4842 0.000568734 0 0.4842 0.000568734
0 0.581886 0.000821485 0 0.581886 0.000821485 0 0.674552 0.00110924 0
0.674552 0.00110924 0 0.758956 0.00141645 0 0.758956 0.00141645 0 0.832061
0.00172246 0 0.832061 0.00172246 0 0.891691 0.00200481 0 0.891691 0.00200481
0 0.937078 0.00224423 0 0.937078 0.00224423 0 0.969053 0.00242936 0
0.969053 0.00242936 0 0.989754 0.00255885 0 0.989754 0.00255885 0 1.002
0.00264005 0 1.002 0.00264005 0 1.00858 0.00268499 0 1.00858 0.00268499
0 1.01178 0.00270616 0 1.01178 0.00270616 0 1.01319 0.00271364 0
1.01319 0.00271364 0 1.01373 0.00271411 0 1.01373 0.00271411 0 1.01392
0.00271134 0 1.01392 0.00271134 0 1.01397 0.00270713 0 1.01397 0.00270713
0 1.01397 0.00270225 0 1.01397 0.00270225 0 1.01396 0.00269697 0
1.01396 0.00269697 0 1.01395 0.00269136 0 1.01395 0.00269136 0 1.01394
0.00268544 0 1.01394 0.00268544 0 1.01393 0.0026792 0 1.01393 0.0026792
0 1.01392 0.00267263 0 1.01392 0.00267263 0 1.01391 0.00266572 0
1.01391 0.00266572 0 1.0139 0.00265845 0 1.0139 0.00265845 0 1.01389
0.0026508 0 1.01389 0.0026508 0 1.01389 0.00264275 0 1.01389 0.00264275
0 1.01389 0.00263427 0 1.01389 0.00263427 0 1.01388 0.00262536 0
1.01388 0.00262536 0 1.01388 0.002616 0 1.01388 0.002616 0 1.01389
0.00260611 0 1.01389 0.00260611 0 1.01389 0.00259572 0 1.01389 0.00259572
0 1.01389 0.00258486 0 1.01389 0.00258486 0 1.01389 0.00257332 0
1.01389 0.00257332 0 1.01389 0.00256121 0 1.01389 0.00256121 0 1.01389
0.00254856 0 1.01389 0.00254856 0 1.01388 0.00253504 0 1.01388 0.00253504
0 1.01387 0.00252091 0 1.01387 0.00252091 0 1.01385 0.00250627 0
1.01385 0.00250627 0 1.01382 0.00249034 0 1.01382 0.00249034 0 1.01379
0.00247354 0 1.01379 0.00247354 0 1.01374 0.00245677 0 1.01374 0.00245677
0 1.01369 0.00243878 0 1.01369 0.00243878 0 1.01362 0.00241648 0
1.01362 0.00241648 0 1.01354 0.00240292 0 1.01354 0.00240292 0 1.01345
0.00237124 0 1.01345 0.00237124 0 1.01334 0.00235991 0 1.01334 0.00235991
0 1.01321 0.00232861 0 1.01321 0.00232861 0 1.01307 0.00230095 0
1.01307 0.00230095 0 1.01292 0.00228755 0 1.01292 0.00228755 0 1.01276
0.00224167 0 1.01276 0.00224167 0 1.01257 0.00223102 0 1.01257 0.00223102
0 1.01236 0.00218546 0 1.01236 0.00218546 0 1.01212 0.00215747 0
1.01212 0.00215747 0 1.01185 0.00212852 0 1.01185 0.00212852 0 1.01154
0.00208619 0 1.01154 0.00208619 0 
