# vtk DataFile Version 2.0
outlet
ASCII
DATASET POLYDATA
POINTS 182 float
0.1 0.02 0 0.1 0.0207299 0 0.1 0.0207299 0.001 0.1 0.02
0.001 0.1 0.021488 0 0.1 0.021488 0.001 0.1 0.0222754 0
0.1 0.0222754 0.001 0.1 0.0230932 0 0.1 0.0230932 0.001 0.1
0.0239425 0 0.1 0.0239425 0.001 0.1 0.0248247 0 0.1 0.0248247
0.001 0.1 0.0257409 0 0.1 0.0257409 0.001 0.1 0.0266925 0
0.1 0.0266925 0.001 0.1 0.0276808 0 0.1 0.0276808 0.001 0.1
0.0287073 0 0.1 0.0287073 0.001 0.1 0.0297734 0 0.1 0.0297734
0.001 0.1 0.0308807 0 0.1 0.0308807 0.001 0.1 0.0320307 0
0.1 0.0320307 0.001 0.1 0.0332251 0 0.1 0.0332251 0.001 0.1
0.0344656 0 0.1 0.0344656 0.001 0.1 0.0357541 0 0.1 0.0357541
0.001 0.1 0.0370923 0 0.1 0.0370923 0.001 0.1 0.0384821 0
0.1 0.0384821 0.001 0.1 0.0399257 0 0.1 0.0399257 0.001 0.1
0.0414249 0 0.1 0.0414249 0.001 0.1 0.042982 0 0.1 0.042982
0.001 0.1 0.0445993 0 0.1 0.0445993 0.001 0.1 0.046279 0
0.1 0.046279 0.001 0.1 0.0480236 0 0.1 0.0480236 0.001 0.1
0.0498355 0 0.1 0.0498355 0.001 0.1 0.0517173 0 0.1 0.0517173
0.001 0.1 0.0536719 0 0.1 0.0536719 0.001 0.1 0.0557019 0
0.1 0.0557019 0.001 0.1 0.0578102 0 0.1 0.0578102 0.001 0.1
0.06 0 0.1 0.06 0.001 0.1 0 0 0.1 8.46956e-05
0 0.1 8.46956e-05 0.001 0.1 0 0.001 0.1 0.000172762 0
0.1 0.000172762 0.001 0.1 0.000264333 0 0.1 0.000264333 0.001 0.1
0.000359549 0 0.1 0.000359549 0.001 0.1 0.000458554 0 0.1 0.000458554
0.001 0.1 0.0005615 0 0.1 0.0005615 0.001 0.1 0.000668542 0
0.1 0.000668542 0.001 0.1 0.000779845 0 0.1 0.000779845 0.001 0.1
0.000895577 0 0.1 0.000895577 0.001 0.1 0.00101591 0 0.1 0.00101591
0.001 0.1 0.00114104 0 0.1 0.00114104 0.001 0.1 0.00127115 0
0.1 0.00127115 0.001 0.1 0.00140644 0 0.1 0.00140644 0.001 0.1
0.0015471 0 0.1 0.0015471 0.001 0.1 0.00169337 0 0.1 0.00169337
0.001 0.1 0.00184546 0 0.1 0.00184546 0.001 0.1 0.0020036 0
0.1 0.0020036 0.001 0.1 0.00216804 0 0.1 0.00216804 0.001 0.1
0.00233902 0 0.1 0.00233902 0.001 0.1 0.00251681 0 0.1 0.00251681
0.001 0.1 0.00270167 0 0.1 0.00270167 0.001 0.1 0.00289388 0
0.1 0.00289388 0.001 0.1 0.00309375 0 0.1 0.00309375 0.001 0.1
0.00330157 0 0.1 0.00330157 0.001 0.1 0.00351767 0 0.1 0.00351767
0.001 0.1 0.00374236 0 0.1 0.00374236 0.001 0.1 0.00397599 0
0.1 0.00397599 0.001 0.1 0.00421893 0 0.1 0.00421893 0.001 0.1
0.00447153 0 0.1 0.00447153 0.001 0.1 0.00473419 0 0.1 0.00473419
0.001 0.1 0.0050073 0 0.1 0.0050073 0.001 0.1 0.00529127 0
0.1 0.00529127 0.001 0.1 0.00558655 0 0.1 0.00558655 0.001 0.1
0.00589359 0 0.1 0.00589359 0.001 0.1 0.00621284 0 0.1 0.00621284
0.001 0.1 0.00654479 0 0.1 0.00654479 0.001 0.1 0.00688996 0
0.1 0.00688996 0.001 0.1 0.00724887 0 0.1 0.00724887 0.001 0.1
0.00762206 0 0.1 0.00762206 0.001 0.1 0.0080101 0 0.1 0.0080101
0.001 0.1 0.00841358 0 0.1 0.00841358 0.001 0.1 0.00883312 0
0.1 0.00883312 0.001 0.1 0.00926936 0 0.1 0.00926936 0.001 0.1
0.00972297 0 0.1 0.00972297 0.001 0.1 0.0101946 0 0.1 0.0101946
0.001 0.1 0.010685 0 0.1 0.010685 0.001 0.1 0.011195 0
0.1 0.011195 0.001 0.1 0.0117252 0 0.1 0.0117252 0.001 0.1
0.0122766 0 0.1 0.0122766 0.001 0.1 0.0128499 0 0.1 0.0128499
0.001 0.1 0.013446 0 0.1 0.013446 0.001 0.1 0.0140658 0
0.1 0.0140658 0.001 0.1 0.0147103 0 0.1 0.0147103 0.001 0.1
0.0153804 0 0.1 0.0153804 0.001 0.1 0.0160772 0 0.1 0.0160772
0.001 0.1 0.0168018 0 0.1 0.0168018 0.001 0.1 0.0175551 0
0.1 0.0175551 0.001 0.1 0.0183385 0 0.1 0.0183385 0.001 0.1
0.019153 0 0.1 0.019153 0.001 
POLYGONS 90 450
4 0 1 2 3 4 1 4 5 2 4
4 6 7 5 4 6 8 9 7 4
8 10 11 9 4 10 12 13 11 4
12 14 15 13 4 14 16 17 15 4
16 18 19 17 4 18 20 21 19 4
20 22 23 21 4 22 24 25 23 4
24 26 27 25 4 26 28 29 27 4
28 30 31 29 4 30 32 33 31 4
32 34 35 33 4 34 36 37 35 4
36 38 39 37 4 38 40 41 39 4
40 42 43 41 4 42 44 45 43 4
44 46 47 45 4 46 48 49 47 4
48 50 51 49 4 50 52 53 51 4
52 54 55 53 4 54 56 57 55 4
56 58 59 57 4 58 60 61 59 4
62 63 64 65 4 63 66 67 64 4
66 68 69 67 4 68 70 71 69 4
70 72 73 71 4 72 74 75 73 4
74 76 77 75 4 76 78 79 77 4
78 80 81 79 4 80 82 83 81 4
82 84 85 83 4 84 86 87 85 4
86 88 89 87 4 88 90 91 89 4
90 92 93 91 4 92 94 95 93 4
94 96 97 95 4 96 98 99 97 4
98 100 101 99 4 100 102 103 101 4
102 104 105 103 4 104 106 107 105 4
106 108 109 107 4 108 110 111 109 4
110 112 113 111 4 112 114 115 113 4
114 116 117 115 4 116 118 119 117 4
118 120 121 119 4 120 122 123 121 4
122 124 125 123 4 124 126 127 125 4
126 128 129 127 4 128 130 131 129 4
130 132 133 131 4 132 134 135 133 4
134 136 137 135 4 136 138 139 137 4
138 140 141 139 4 140 142 143 141 4
142 144 145 143 4 144 146 147 145 4
146 148 149 147 4 148 150 151 149 4
150 152 153 151 4 152 154 155 153 4
154 156 157 155 4 156 158 159 157 4
158 160 161 159 4 160 162 163 161 4
162 164 165 163 4 164 166 167 165 4
166 168 169 167 4 168 170 171 169 4
170 172 173 171 4 172 174 175 173 4
174 176 177 175 4 176 178 179 177 4
178 180 181 179 4 180 0 3 181 
CELL_DATA 90
FIELD attributes 3
patchID 1 90 float
2 2 2 2 2 2 2 2 2 2 2
2 2 2 2 2 2 2 2 2 2
2 2 2 2 2 2 2 2 2 2
2 2 2 2 2 2 2 2 2 2
2 2 2 2 2 2 2 2 2 2
2 2 2 2 2 2 2 2 2 2
2 2 2 2 2 2 2 2 2 2
2 2 2 2 2 2 2 2 2 2
2 2 2 2 2 2 2 2 2 
p 1 90 float
0 0 0 0 0 0 0 0 0 0 0
0 0 0 0 0 0 0 0 0 0
0 0 0 0 0 0 0 0 0 0
0 0 0 0 0 0 0 0 0 0
0 0 0 0 0 0 0 0 0 0
0 0 0 0 0 0 0 0 0 0
0 0 0 0 0 0 0 0 0 0
0 0 0 0 0 0 0 0 0 0
0 0 0 0 0 0 0 0 0 
U 3 90 float
1.0108 0.00206806 0 1.0105 0.00204736 0 1.01018 0.00200261 0 1.00984 0.00197769
0 1.00949 0.00193522 0 1.00914 0.00189649 0 1.00881 0.00185262 0
1.00849 0.0018053 0 1.0082 0.00175549 0 1.00794 0.0017031 0 1.00772
0.00164847 0 1.00752 0.00159127 0 1.00735 0.00153205 0 1.0072 0.00147059
0 1.00707 0.00140689 0 1.00696 0.00134055 0 1.00685 0.00127124 0
1.00676 0.00119927 0 1.00668 0.00112458 0 1.0066 0.00104654 0 1.00653
0.000964754 0 1.00647 0.000879654 0 1.00642 0.000791225 0 1.00637 0.00069887
0 1.00632 0.000601778 0 1.00629 0.000501294 0 1.00626 0.000396668 0
1.00623 0.000287074 0 1.00621 0.000172257 0 1.0061 5.6514e-05 0 0.0459171
5.27543e-06 0 0.139431 4.14188e-05 0 0.236108 0.000126943 0 0.335221 0.000258114
0 0.435466 0.000436238 0 0.534868 0.000660754 0 0.630772 0.000926038 0
0.720006 0.00122023 0 0.799297 0.00152522 0 0.865891 0.00181874 0 0.91823
0.0020788 0 0.956371 0.00228917 0 0.981937 0.00244332 0 0.997595 0.00254484
0 1.00631 0.0026043 0 1.01069 0.00263467 0 1.01267 0.00264747 0
1.01347 0.00265095 0 1.01376 0.00265001 0 1.01384 0.00264713 0 1.01385
0.0026434 0 1.01384 0.00263923 0 1.01383 0.00263473 0 1.01381 0.00262996
0 1.0138 0.00262489 0 1.01379 0.00261953 0 1.01377 0.00261387 0
1.01376 0.00260788 0 1.01375 0.00260156 0 1.01374 0.00259489 0 1.01373
0.00258784 0 1.01372 0.00258041 0 1.01371 0.00257257 0 1.01371 0.00256435
0 1.0137 0.00255564 0 1.01369 0.00254644 0 1.01368 0.00253685 0
1.01368 0.00252676 0 1.01367 0.00251605 0 1.01365 0.0025048 0 1.01364
0.00249303 0 1.01362 0.0024807 0 1.01359 0.00246783 0 1.01356 0.0024532
0 1.01352 0.00243951 0 1.01347 0.00242565 0 1.01341 0.00240315 0
1.01333 0.0024009 0 1.01324 0.00235611 0 1.01314 0.00237919 0 1.01301
0.0023055 0 1.01288 0.00233719 0 1.01273 0.00228242 0 1.01258 0.00225934
0 1.0124 0.00227101 0 1.01219 0.00217869 0 1.01195 0.00223459 0
1.0117 0.00212955 0 1.01142 0.00215382 0 1.01111 0.00209403 0 
POINT_DATA  182
FIELD attributes 2
p 1 182 float
0 0 0 0 0 0 0 0 0 0 0
0 0 0 0 0 0 0 0 0 0
0 0 0 0 0 0 0 0 0 0
0 0 0 0 0 0 0 0 0 0
0 0 0 0 0 0 0 0 0 0
0 0 0 0 0 0 0 0 0 0
0 0 0 0 0 0 0 0 0 0
0 0 0 0 0 0 0 0 0 0
0 0 0 0 0 0 0 0 0 0
0 0 0 0 0 0 0 0 0 0
0 0 0 0 0 0 0 0 0 0
0 0 0 0 0 0 0 0 0 0
0 0 0 0 0 0 0 0 0 0
0 0 0 0 0 0 0 0 0 0
0 0 0 0 0 0 0 0 0 0
0 0 0 0 0 0 0 0 0 0
0 0 0 0 0 0 0 0 0 0
0 0 0 0 0 0 0 0 0 0
0 
U 3 182 float
1.01095 0.00208067 0 1.01065 0.00205778 0 1.01065 0.00205778 0 1.01095 0.00208067
0 1.01034 0.00202514 0 1.01034 0.00202514 0 1.01001 0.00199025 0
1.01001 0.00199025 0 1.00967 0.00195662 0 1.00967 0.00195662 0 1.00932
0.00191601 0 1.00932 0.00191601 0 1.00898 0.00187474 0 1.00898 0.00187474
0 1.00865 0.00182917 0 1.00865 0.00182917 0 1.00834 0.00178063 0
1.00834 0.00178063 0 1.00807 0.00172955 0 1.00807 0.00172955 0 1.00783
0.00167606 0 1.00783 0.00167606 0 1.00762 0.00162016 0 1.00762 0.00162016
0 1.00744 0.00156197 0 1.00744 0.00156197 0 1.00728 0.00150165 0
1.00728 0.00150165 0 1.00714 0.0014391 0 1.00714 0.0014391 0 1.00702
0.00137411 0 1.00702 0.00137411 0 1.00691 0.00130631 0 1.00691 0.00130631
0 1.00681 0.0012357 0 1.00681 0.0012357 0 1.00672 0.0011624 0
1.00672 0.0011624 0 1.00664 0.00108606 0 1.00664 0.00108606 0 1.00657
0.00100619 0 1.00657 0.00100619 0 1.0065 0.000922781 0 1.0065 0.000922781
0 1.00644 0.000836052 0 1.00644 0.000836052 0 1.00639 0.0007457 0
1.00639 0.0007457 0 1.00634 0.000651023 0 1.00634 0.000651023 0 1.0063
0.000552271 0 1.0063 0.000552271 0 1.00627 0.00044976 0 1.00627 0.00044976
0 1.00624 0.0003427 0 1.00624 0.0003427 0 1.00622 0.000230547 0
1.00622 0.000230547 0 1.00616 0.000115286 0 1.00616 0.000115286 0 1.0061
5.6514e-05 0 1.0061 5.6514e-05 0 0.0459171 5.27543e-06 0 0.0926673 2.33445e-05
0 0.0926673 2.33445e-05 0 0.0459171 5.27543e-06 0 0.187762 8.41741e-05 0
0.187762 8.41741e-05 0 0.285657 0.000192517 0 0.285657 0.000192517 0 0.385335
0.00034716 0 0.385335 0.00034716 0 0.485158 0.000548474 0 0.485158 0.000548474
0 0.58281 0.000793368 0 0.58281 0.000793368 0 0.675379 0.0010731 0
0.675379 0.0010731 0 0.759641 0.00137268 0 0.759641 0.00137268 0 0.832585
0.00167194 0 0.832585 0.00167194 0 0.892053 0.00194873 0 0.892053 0.00194873
0 0.937295 0.00218395 0 0.937295 0.00218395 0 0.96915 0.00236622 0
0.96915 0.00236622 0 0.989763 0.00249406 0 0.989763 0.00249406 0 1.00195
0.00257456 0 1.00195 0.00257456 0 1.0085 0.00261948 0 1.0085 0.00261948
0 1.01168 0.00264107 0 1.01168 0.00264107 0 1.01307 0.00264921 0
1.01307 0.00264921 0 1.01361 0.00265048 0 1.01361 0.00265048 0 1.0138
0.00264857 0 1.0138 0.00264857 0 1.01385 0.00264527 0 1.01385 0.00264527
0 1.01385 0.00264131 0 1.01385 0.00264131 0 1.01384 0.00263698 0
1.01384 0.00263698 0 1.01382 0.00263235 0 1.01382 0.00263235 0 1.01381
0.00262743 0 1.01381 0.00262743 0 1.01379 0.00262222 0 1.01379 0.00262222
0 1.01378 0.0026167 0 1.01378 0.0026167 0 1.01377 0.00261088 0
1.01377 0.00261088 0 1.01376 0.00260472 0 1.01376 0.00260472 0 1.01374
0.00259823 0 1.01374 0.00259823 0 1.01374 0.00259137 0 1.01374 0.00259137
0 1.01373 0.00258413 0 1.01373 0.00258413 0 1.01372 0.0025765 0
1.01372 0.0025765 0 1.01371 0.00256847 0 1.01371 0.00256847 0 1.0137
0.00256 0 1.0137 0.00256 0 1.0137 0.00255105 0 1.0137 0.00255105
0 1.01369 0.00254166 0 1.01369 0.00254166 0 1.01368 0.00253182 0
1.01368 0.00253182 0 1.01367 0.00252141 0 1.01367 0.00252141 0 1.01366
0.00251044 0 1.01366 0.00251044 0 1.01365 0.00249893 0 1.01365 0.00249893
0 1.01363 0.00248688 0 1.01363 0.00248688 0 1.01361 0.00247428 0
1.01361 0.00247428 0 1.01358 0.00246054 0 1.01358 0.00246054 0 1.01354
0.00244638 0 1.01354 0.00244638 0 1.01349 0.00243261 0 1.01349 0.00243261
0 1.01344 0.00241444 0 1.01344 0.00241444 0 1.01337 0.00240203 0
1.01337 0.00240203 0 1.01329 0.00237861 0 1.01329 0.00237861 0 1.01319
0.0023676 0 1.01319 0.0023676 0 1.01308 0.00234253 0 1.01308 0.00234253
0 1.01295 0.00232126 0 1.01295 0.00232126 0 1.01281 0.00230996 0
1.01281 0.00230996 0 1.01266 0.00227095 0 1.01266 0.00227095 0 1.01249
0.00226514 0 1.01249 0.00226514 0 1.01229 0.00222515 0 1.01229 0.00222515
0 1.01207 0.00220645 0 1.01207 0.00220645 0 1.01183 0.00218245 0
1.01183 0.00218245 0 1.01156 0.00214159 0 1.01156 0.00214159 0 1.01127
0.00212416 0 1.01127 0.00212416 0 
