# vtk DataFile Version 2.0
outlet
ASCII
DATASET POLYDATA
POINTS 182 float
0.1 0.02 0 0.1 0.0207299 0 0.1 0.0207299 0.001 0.1 0.02
0.001 0.1 0.021488 0 0.1 0.021488 0.001 0.1 0.0222754 0
0.1 0.0222754 0.001 0.1 0.0230932 0 0.1 0.0230932 0.001 0.1
0.0239425 0 0.1 0.0239425 0.001 0.1 0.0248247 0 0.1 0.0248247
0.001 0.1 0.0257409 0 0.1 0.0257409 0.001 0.1 0.0266925 0
0.1 0.0266925 0.001 0.1 0.0276808 0 0.1 0.0276808 0.001 0.1
0.0287073 0 0.1 0.0287073 0.001 0.1 0.0297734 0 0.1 0.0297734
0.001 0.1 0.0308807 0 0.1 0.0308807 0.001 0.1 0.0320307 0
0.1 0.0320307 0.001 0.1 0.0332251 0 0.1 0.0332251 0.001 0.1
0.0344656 0 0.1 0.0344656 0.001 0.1 0.0357541 0 0.1 0.0357541
0.001 0.1 0.0370923 0 0.1 0.0370923 0.001 0.1 0.0384821 0
0.1 0.0384821 0.001 0.1 0.0399257 0 0.1 0.0399257 0.001 0.1
0.0414249 0 0.1 0.0414249 0.001 0.1 0.042982 0 0.1 0.042982
0.001 0.1 0.0445993 0 0.1 0.0445993 0.001 0.1 0.046279 0
0.1 0.046279 0.001 0.1 0.0480236 0 0.1 0.0480236 0.001 0.1
0.0498355 0 0.1 0.0498355 0.001 0.1 0.0517173 0 0.1 0.0517173
0.001 0.1 0.0536719 0 0.1 0.0536719 0.001 0.1 0.0557019 0
0.1 0.0557019 0.001 0.1 0.0578102 0 0.1 0.0578102 0.001 0.1
0.06 0 0.1 0.06 0.001 0.1 0 0 0.1 8.46956e-05
0 0.1 8.46956e-05 0.001 0.1 0 0.001 0.1 0.000172762 0
0.1 0.000172762 0.001 0.1 0.000264333 0 0.1 0.000264333 0.001 0.1
0.000359549 0 0.1 0.000359549 0.001 0.1 0.000458554 0 0.1 0.000458554
0.001 0.1 0.0005615 0 0.1 0.0005615 0.001 0.1 0.000668542 0
0.1 0.000668542 0.001 0.1 0.000779845 0 0.1 0.000779845 0.001 0.1
0.000895577 0 0.1 0.000895577 0.001 0.1 0.00101591 0 0.1 0.00101591
0.001 0.1 0.00114104 0 0.1 0.00114104 0.001 0.1 0.00127115 0
0.1 0.00127115 0.001 0.1 0.00140644 0 0.1 0.00140644 0.001 0.1
0.0015471 0 0.1 0.0015471 0.001 0.1 0.00169337 0 0.1 0.00169337
0.001 0.1 0.00184546 0 0.1 0.00184546 0.001 0.1 0.0020036 0
0.1 0.0020036 0.001 0.1 0.00216804 0 0.1 0.00216804 0.001 0.1
0.00233902 0 0.1 0.00233902 0.001 0.1 0.00251681 0 0.1 0.00251681
0.001 0.1 0.00270167 0 0.1 0.00270167 0.001 0.1 0.00289388 0
0.1 0.00289388 0.001 0.1 0.00309375 0 0.1 0.00309375 0.001 0.1
0.00330157 0 0.1 0.00330157 0.001 0.1 0.00351767 0 0.1 0.00351767
0.001 0.1 0.00374236 0 0.1 0.00374236 0.001 0.1 0.00397599 0
0.1 0.00397599 0.001 0.1 0.00421893 0 0.1 0.00421893 0.001 0.1
0.00447153 0 0.1 0.00447153 0.001 0.1 0.00473419 0 0.1 0.00473419
0.001 0.1 0.0050073 0 0.1 0.0050073 0.001 0.1 0.00529127 0
0.1 0.00529127 0.001 0.1 0.00558655 0 0.1 0.00558655 0.001 0.1
0.00589359 0 0.1 0.00589359 0.001 0.1 0.00621284 0 0.1 0.00621284
0.001 0.1 0.00654479 0 0.1 0.00654479 0.001 0.1 0.00688996 0
0.1 0.00688996 0.001 0.1 0.00724887 0 0.1 0.00724887 0.001 0.1
0.00762206 0 0.1 0.00762206 0.001 0.1 0.0080101 0 0.1 0.0080101
0.001 0.1 0.00841358 0 0.1 0.00841358 0.001 0.1 0.00883312 0
0.1 0.00883312 0.001 0.1 0.00926936 0 0.1 0.00926936 0.001 0.1
0.00972297 0 0.1 0.00972297 0.001 0.1 0.0101946 0 0.1 0.0101946
0.001 0.1 0.010685 0 0.1 0.010685 0.001 0.1 0.011195 0
0.1 0.011195 0.001 0.1 0.0117252 0 0.1 0.0117252 0.001 0.1
0.0122766 0 0.1 0.0122766 0.001 0.1 0.0128499 0 0.1 0.0128499
0.001 0.1 0.013446 0 0.1 0.013446 0.001 0.1 0.0140658 0
0.1 0.0140658 0.001 0.1 0.0147103 0 0.1 0.0147103 0.001 0.1
0.0153804 0 0.1 0.0153804 0.001 0.1 0.0160772 0 0.1 0.0160772
0.001 0.1 0.0168018 0 0.1 0.0168018 0.001 0.1 0.0175551 0
0.1 0.0175551 0.001 0.1 0.0183385 0 0.1 0.0183385 0.001 0.1
0.019153 0 0.1 0.019153 0.001 
POLYGONS 90 450
4 0 1 2 3 4 1 4 5 2 4
4 6 7 5 4 6 8 9 7 4
8 10 11 9 4 10 12 13 11 4
12 14 15 13 4 14 16 17 15 4
16 18 19 17 4 18 20 21 19 4
20 22 23 21 4 22 24 25 23 4
24 26 27 25 4 26 28 29 27 4
28 30 31 29 4 30 32 33 31 4
32 34 35 33 4 34 36 37 35 4
36 38 39 37 4 38 40 41 39 4
40 42 43 41 4 42 44 45 43 4
44 46 47 45 4 46 48 49 47 4
48 50 51 49 4 50 52 53 51 4
52 54 55 53 4 54 56 57 55 4
56 58 59 57 4 58 60 61 59 4
62 63 64 65 4 63 66 67 64 4
66 68 69 67 4 68 70 71 69 4
70 72 73 71 4 72 74 75 73 4
74 76 77 75 4 76 78 79 77 4
78 80 81 79 4 80 82 83 81 4
82 84 85 83 4 84 86 87 85 4
86 88 89 87 4 88 90 91 89 4
90 92 93 91 4 92 94 95 93 4
94 96 97 95 4 96 98 99 97 4
98 100 101 99 4 100 102 103 101 4
102 104 105 103 4 104 106 107 105 4
106 108 109 107 4 108 110 111 109 4
110 112 113 111 4 112 114 115 113 4
114 116 117 115 4 116 118 119 117 4
118 120 121 119 4 120 122 123 121 4
122 124 125 123 4 124 126 127 125 4
126 128 129 127 4 128 130 131 129 4
130 132 133 131 4 132 134 135 133 4
134 136 137 135 4 136 138 139 137 4
138 140 141 139 4 140 142 143 141 4
142 144 145 143 4 144 146 147 145 4
146 148 149 147 4 148 150 151 149 4
150 152 153 151 4 152 154 155 153 4
154 156 157 155 4 156 158 159 157 4
158 160 161 159 4 160 162 163 161 4
162 164 165 163 4 164 166 167 165 4
166 168 169 167 4 168 170 171 169 4
170 172 173 171 4 172 174 175 173 4
174 176 177 175 4 176 178 179 177 4
178 180 181 179 4 180 0 3 181 
CELL_DATA 90
FIELD attributes 3
patchID 1 90 float
2 2 2 2 2 2 2 2 2 2 2
2 2 2 2 2 2 2 2 2 2
2 2 2 2 2 2 2 2 2 2
2 2 2 2 2 2 2 2 2 2
2 2 2 2 2 2 2 2 2 2
2 2 2 2 2 2 2 2 2 2
2 2 2 2 2 2 2 2 2 2
2 2 2 2 2 2 2 2 2 2
2 2 2 2 2 2 2 2 2 
p 1 90 float
0 0 0 0 0 0 0 0 0 0 0
0 0 0 0 0 0 0 0 0 0
0 0 0 0 0 0 0 0 0 0
0 0 0 0 0 0 0 0 0 0
0 0 0 0 0 0 0 0 0 0
0 0 0 0 0 0 0 0 0 0
0 0 0 0 0 0 0 0 0 0
0 0 0 0 0 0 0 0 0 0
0 0 0 0 0 0 0 0 0 
U 3 90 float
1.01004 0.00193205 0 1.00983 0.00190991 0 1.00962 0.00188077 0 1.00941 0.00185809
0 1.0092 0.00182918 0 1.00899 0.00179395 0 1.00879 0.00176091 0
1.00859 0.00172436 0 1.0084 0.0016814 0 1.00821 0.00163813 0 1.00804
0.00159201 0 1.00787 0.00154118 0 1.00771 0.00148731 0 1.00756 0.00143147
0 1.00743 0.00137152 0 1.0073 0.00130778 0 1.00718 0.0012422 0
1.00706 0.00117227 0 1.00696 0.00109887 0 1.00687 0.00102337 0 1.00678
0.000942727 0 1.0067 0.000859246 0 1.00663 0.000773521 0 1.00657 0.00068085
0 1.00651 0.000587248 0 1.00647 0.000489755 0 1.00643 0.000384416 0
1.0064 0.000280115 0 1.00638 0.000167644 0 1.00624 5.32485e-05 0 0.0473214
4.15335e-06 0 0.143657 3.10259e-05 0 0.242866 9.38114e-05 0 0.343925 0.000190516
0 0.445348 0.000323858 0 0.545103 0.000495696 0 0.640595 0.000703876 0
0.728794 0.000940465 0 0.806624 0.00119116 0 0.871556 0.00143686 0 0.922248
0.00165783 0 0.95894 0.00183887 0 0.983363 0.00197327 0 0.998214 0.00206331
0 1.00641 0.00211766 0 1.01051 0.00214729 0 1.01234 0.002162 0
1.01307 0.00216884 0 1.01333 0.00217199 0 1.0134 0.00217355 0 1.0134
0.00217446 0 1.01339 0.00217505 0 1.01337 0.00217544 0 1.01335 0.00217565
0 1.01333 0.0021757 0 1.01331 0.00217557 0 1.01328 0.00217527 0
1.01326 0.00217478 0 1.01324 0.00217409 0 1.01322 0.0021732 0 1.0132
0.00217209 0 1.01318 0.00217077 0 1.01316 0.00216918 0 1.01313 0.00216739
0 1.0131 0.00216533 0 1.01308 0.00216294 0 1.01305 0.00216041 0
1.01301 0.00215749 0 1.01298 0.00215425 0 1.01294 0.00215089 0 1.0129
0.00214684 0 1.01285 0.00214313 0 1.01279 0.00213813 0 1.01273 0.00213315
0 1.01267 0.0021298 0 1.01259 0.0021193 0 1.0125 0.00212131 0
1.0124 0.00210252 0 1.01229 0.00211189 0 1.01217 0.00208275 0 1.01204
0.00209578 0 1.01189 0.00207133 0 1.01174 0.0020603 0 1.01157 0.00206774
0 1.01139 0.002021 0 1.01119 0.00204632 0 1.01097 0.00199737 0
1.01075 0.00199908 0 1.01051 0.00197576 0 1.01027 0.00194783 0 
POINT_DATA  182
FIELD attributes 2
p 1 182 float
0 0 0 0 0 0 0 0 0 0 0
0 0 0 0 0 0 0 0 0 0
0 0 0 0 0 0 0 0 0 0
0 0 0 0 0 0 0 0 0 0
0 0 0 0 0 0 0 0 0 0
0 0 0 0 0 0 0 0 0 0
0 0 0 0 0 0 0 0 0 0
0 0 0 0 0 0 0 0 0 0
0 0 0 0 0 0 0 0 0 0
0 0 0 0 0 0 0 0 0 0
0 0 0 0 0 0 0 0 0 0
0 0 0 0 0 0 0 0 0 0
0 0 0 0 0 0 0 0 0 0
0 0 0 0 0 0 0 0 0 0
0 0 0 0 0 0 0 0 0 0
0 0 0 0 0 0 0 0 0 0
0 0 0 0 0 0 0 0 0 0
0 0 0 0 0 0 0 0 0 0
0 
U 3 182 float
1.01015 0.00193972 0 1.00994 0.00192106 0 1.00994 0.00192106 0 1.01015 0.00193972
0 1.00973 0.00189544 0 1.00973 0.00189544 0 1.00952 0.00186952 0
1.00952 0.00186952 0 1.0093 0.00184375 0 1.0093 0.00184375 0 1.0091
0.00181171 0 1.0091 0.00181171 0 1.00889 0.00177757 0 1.00889 0.00177757
0 1.00869 0.00174279 0 1.00869 0.00174279 0 1.00849 0.00170308 0
1.00849 0.00170308 0 1.00831 0.00165997 0 1.00831 0.00165997 0 1.00813
0.0016153 0 1.00813 0.0016153 0 1.00795 0.00156685 0 1.00795 0.00156685
0 1.00779 0.00151453 0 1.00779 0.00151453 0 1.00764 0.00145969 0
1.00764 0.00145969 0 1.0075 0.00140183 0 1.0075 0.00140183 0 1.00736
0.00134002 0 1.00736 0.00134002 0 1.00724 0.00127538 0 1.00724 0.00127538
0 1.00712 0.00120767 0 1.00712 0.00120767 0 1.00701 0.00113603 0
1.00701 0.00113603 0 1.00691 0.00106161 0 1.00691 0.00106161 0 1.00682
0.000983584 0 1.00682 0.000983584 0 1.00674 0.000901552 0 1.00674 0.000901552
0 1.00667 0.000816977 0 1.00667 0.000816977 0 1.0066 0.00072784 0
1.0066 0.00072784 0 1.00654 0.000634723 0 1.00654 0.000634723 0 1.00649
0.000539215 0 1.00649 0.000539215 0 1.00645 0.00043787 0 1.00645 0.00043787
0 1.00641 0.000333055 0 1.00641 0.000333055 0 1.00639 0.000224743 0
1.00639 0.000224743 0 1.00631 0.000111337 0 1.00631 0.000111337 0 1.00624
5.32485e-05 0 1.00624 5.32485e-05 0 0.0473214 4.15335e-06 0 0.0954824 1.75877e-05
0 0.0954824 1.75877e-05 0 0.0473214 4.15335e-06 0 0.193254 6.24138e-05 0
0.193254 6.24138e-05 0 0.293387 0.000142156 0 0.293387 0.000142156 0 0.394627
0.000257175 0 0.394627 0.000257175 0 0.495216 0.00040976 0 0.495216 0.00040976
0 0.592839 0.000599764 0 0.592839 0.000599764 0 0.684684 0.000822143 0
0.684684 0.000822143 0 0.767699 0.00106578 0 0.767699 0.00106578 0 0.839081
0.00131398 0 0.839081 0.00131398 0 0.896895 0.00154731 0 0.896895 0.00154731
0 0.940588 0.00174832 0 0.940588 0.00174832 0 0.971147 0.00190605 0
0.971147 0.00190605 0 0.990786 0.00201827 0 0.990786 0.00201827 0 1.00231
0.00209048 0 1.00231 0.00209048 0 1.00846 0.00213247 0 1.00846 0.00213247
0 1.01142 0.00215464 0 1.01142 0.00215464 0 1.01271 0.00216542 0
1.01271 0.00216542 0 1.0132 0.00217041 0 1.0132 0.00217041 0 1.01336
0.00217277 0 1.01336 0.00217277 0 1.0134 0.002174 0 1.0134 0.002174
0 1.0134 0.00217475 0 1.0134 0.00217475 0 1.01338 0.00217524 0
1.01338 0.00217524 0 1.01336 0.00217555 0 1.01336 0.00217555 0 1.01334
0.00217568 0 1.01334 0.00217568 0 1.01332 0.00217564 0 1.01332 0.00217564
0 1.0133 0.00217542 0 1.0133 0.00217542 0 1.01327 0.00217503 0
1.01327 0.00217503 0 1.01325 0.00217444 0 1.01325 0.00217444 0 1.01323
0.00217365 0 1.01323 0.00217365 0 1.01321 0.00217265 0 1.01321 0.00217265
0 1.01319 0.00217143 0 1.01319 0.00217143 0 1.01317 0.00216998 0
1.01317 0.00216998 0 1.01314 0.00216829 0 1.01314 0.00216829 0 1.01312
0.00216636 0 1.01312 0.00216636 0 1.01309 0.00216414 0 1.01309 0.00216414
0 1.01306 0.00216168 0 1.01306 0.00216168 0 1.01303 0.00215895 0
1.01303 0.00215895 0 1.013 0.00215587 0 1.013 0.00215587 0 1.01296
0.00215257 0 1.01296 0.00215257 0 1.01292 0.00214887 0 1.01292 0.00214887
0 1.01287 0.00214499 0 1.01287 0.00214499 0 1.01282 0.00214064 0
1.01282 0.00214064 0 1.01276 0.00213565 0 1.01276 0.00213565 0 1.0127
0.00213148 0 1.0127 0.00213148 0 1.01263 0.00212457 0 1.01263 0.00212457
0 1.01254 0.0021203 0 1.01254 0.0021203 0 1.01245 0.00211196 0
1.01245 0.00211196 0 1.01235 0.00210719 0 1.01235 0.00210719 0 1.01223
0.00209739 0 1.01223 0.00209739 0 1.0121 0.00208923 0 1.0121 0.00208923
0 1.01196 0.00208362 0 1.01196 0.00208362 0 1.01181 0.00206585 0
1.01181 0.00206585 0 1.01165 0.002064 0 1.01165 0.002064 0 1.01148
0.00204452 0 1.01148 0.00204452 0 1.01129 0.00203358 0 1.01129 0.00203358
0 1.01108 0.00202202 0 1.01108 0.00202202 0 1.01086 0.00199822 0
1.01086 0.00199822 0 1.01063 0.00198751 0 1.01063 0.00198751 0 1.01039
0.00196191 0 1.01039 0.00196191 0 
