# vtk DataFile Version 2.0
outlet
ASCII
DATASET POLYDATA
POINTS 182 float
0.1 0.02 0 0.1 0.0207299 0 0.1 0.0207299 0.001 0.1 0.02
0.001 0.1 0.021488 0 0.1 0.021488 0.001 0.1 0.0222754 0
0.1 0.0222754 0.001 0.1 0.0230932 0 0.1 0.0230932 0.001 0.1
0.0239425 0 0.1 0.0239425 0.001 0.1 0.0248247 0 0.1 0.0248247
0.001 0.1 0.0257409 0 0.1 0.0257409 0.001 0.1 0.0266925 0
0.1 0.0266925 0.001 0.1 0.0276808 0 0.1 0.0276808 0.001 0.1
0.0287073 0 0.1 0.0287073 0.001 0.1 0.0297734 0 0.1 0.0297734
0.001 0.1 0.0308807 0 0.1 0.0308807 0.001 0.1 0.0320307 0
0.1 0.0320307 0.001 0.1 0.0332251 0 0.1 0.0332251 0.001 0.1
0.0344656 0 0.1 0.0344656 0.001 0.1 0.0357541 0 0.1 0.0357541
0.001 0.1 0.0370923 0 0.1 0.0370923 0.001 0.1 0.0384821 0
0.1 0.0384821 0.001 0.1 0.0399257 0 0.1 0.0399257 0.001 0.1
0.0414249 0 0.1 0.0414249 0.001 0.1 0.042982 0 0.1 0.042982
0.001 0.1 0.0445993 0 0.1 0.0445993 0.001 0.1 0.046279 0
0.1 0.046279 0.001 0.1 0.0480236 0 0.1 0.0480236 0.001 0.1
0.0498355 0 0.1 0.0498355 0.001 0.1 0.0517173 0 0.1 0.0517173
0.001 0.1 0.0536719 0 0.1 0.0536719 0.001 0.1 0.0557019 0
0.1 0.0557019 0.001 0.1 0.0578102 0 0.1 0.0578102 0.001 0.1
0.06 0 0.1 0.06 0.001 0.1 0 0 0.1 8.46956e-05
0 0.1 8.46956e-05 0.001 0.1 0 0.001 0.1 0.000172762 0
0.1 0.000172762 0.001 0.1 0.000264333 0 0.1 0.000264333 0.001 0.1
0.000359549 0 0.1 0.000359549 0.001 0.1 0.000458554 0 0.1 0.000458554
0.001 0.1 0.0005615 0 0.1 0.0005615 0.001 0.1 0.000668542 0
0.1 0.000668542 0.001 0.1 0.000779845 0 0.1 0.000779845 0.001 0.1
0.000895577 0 0.1 0.000895577 0.001 0.1 0.00101591 0 0.1 0.00101591
0.001 0.1 0.00114104 0 0.1 0.00114104 0.001 0.1 0.00127115 0
0.1 0.00127115 0.001 0.1 0.00140644 0 0.1 0.00140644 0.001 0.1
0.0015471 0 0.1 0.0015471 0.001 0.1 0.00169337 0 0.1 0.00169337
0.001 0.1 0.00184546 0 0.1 0.00184546 0.001 0.1 0.0020036 0
0.1 0.0020036 0.001 0.1 0.00216804 0 0.1 0.00216804 0.001 0.1
0.00233902 0 0.1 0.00233902 0.001 0.1 0.00251681 0 0.1 0.00251681
0.001 0.1 0.00270167 0 0.1 0.00270167 0.001 0.1 0.00289388 0
0.1 0.00289388 0.001 0.1 0.00309375 0 0.1 0.00309375 0.001 0.1
0.00330157 0 0.1 0.00330157 0.001 0.1 0.00351767 0 0.1 0.00351767
0.001 0.1 0.00374236 0 0.1 0.00374236 0.001 0.1 0.00397599 0
0.1 0.00397599 0.001 0.1 0.00421893 0 0.1 0.00421893 0.001 0.1
0.00447153 0 0.1 0.00447153 0.001 0.1 0.00473419 0 0.1 0.00473419
0.001 0.1 0.0050073 0 0.1 0.0050073 0.001 0.1 0.00529127 0
0.1 0.00529127 0.001 0.1 0.00558655 0 0.1 0.00558655 0.001 0.1
0.00589359 0 0.1 0.00589359 0.001 0.1 0.00621284 0 0.1 0.00621284
0.001 0.1 0.00654479 0 0.1 0.00654479 0.001 0.1 0.00688996 0
0.1 0.00688996 0.001 0.1 0.00724887 0 0.1 0.00724887 0.001 0.1
0.00762206 0 0.1 0.00762206 0.001 0.1 0.0080101 0 0.1 0.0080101
0.001 0.1 0.00841358 0 0.1 0.00841358 0.001 0.1 0.00883312 0
0.1 0.00883312 0.001 0.1 0.00926936 0 0.1 0.00926936 0.001 0.1
0.00972297 0 0.1 0.00972297 0.001 0.1 0.0101946 0 0.1 0.0101946
0.001 0.1 0.010685 0 0.1 0.010685 0.001 0.1 0.011195 0
0.1 0.011195 0.001 0.1 0.0117252 0 0.1 0.0117252 0.001 0.1
0.0122766 0 0.1 0.0122766 0.001 0.1 0.0128499 0 0.1 0.0128499
0.001 0.1 0.013446 0 0.1 0.013446 0.001 0.1 0.0140658 0
0.1 0.0140658 0.001 0.1 0.0147103 0 0.1 0.0147103 0.001 0.1
0.0153804 0 0.1 0.0153804 0.001 0.1 0.0160772 0 0.1 0.0160772
0.001 0.1 0.0168018 0 0.1 0.0168018 0.001 0.1 0.0175551 0
0.1 0.0175551 0.001 0.1 0.0183385 0 0.1 0.0183385 0.001 0.1
0.019153 0 0.1 0.019153 0.001 
POLYGONS 90 450
4 0 1 2 3 4 1 4 5 2 4
4 6 7 5 4 6 8 9 7 4
8 10 11 9 4 10 12 13 11 4
12 14 15 13 4 14 16 17 15 4
16 18 19 17 4 18 20 21 19 4
20 22 23 21 4 22 24 25 23 4
24 26 27 25 4 26 28 29 27 4
28 30 31 29 4 30 32 33 31 4
32 34 35 33 4 34 36 37 35 4
36 38 39 37 4 38 40 41 39 4
40 42 43 41 4 42 44 45 43 4
44 46 47 45 4 46 48 49 47 4
48 50 51 49 4 50 52 53 51 4
52 54 55 53 4 54 56 57 55 4
56 58 59 57 4 58 60 61 59 4
62 63 64 65 4 63 66 67 64 4
66 68 69 67 4 68 70 71 69 4
70 72 73 71 4 72 74 75 73 4
74 76 77 75 4 76 78 79 77 4
78 80 81 79 4 80 82 83 81 4
82 84 85 83 4 84 86 87 85 4
86 88 89 87 4 88 90 91 89 4
90 92 93 91 4 92 94 95 93 4
94 96 97 95 4 96 98 99 97 4
98 100 101 99 4 100 102 103 101 4
102 104 105 103 4 104 106 107 105 4
106 108 109 107 4 108 110 111 109 4
110 112 113 111 4 112 114 115 113 4
114 116 117 115 4 116 118 119 117 4
118 120 121 119 4 120 122 123 121 4
122 124 125 123 4 124 126 127 125 4
126 128 129 127 4 128 130 131 129 4
130 132 133 131 4 132 134 135 133 4
134 136 137 135 4 136 138 139 137 4
138 140 141 139 4 140 142 143 141 4
142 144 145 143 4 144 146 147 145 4
146 148 149 147 4 148 150 151 149 4
150 152 153 151 4 152 154 155 153 4
154 156 157 155 4 156 158 159 157 4
158 160 161 159 4 160 162 163 161 4
162 164 165 163 4 164 166 167 165 4
166 168 169 167 4 168 170 171 169 4
170 172 173 171 4 172 174 175 173 4
174 176 177 175 4 176 178 179 177 4
178 180 181 179 4 180 0 3 181 
CELL_DATA 90
FIELD attributes 3
patchID 1 90 float
2 2 2 2 2 2 2 2 2 2 2
2 2 2 2 2 2 2 2 2 2
2 2 2 2 2 2 2 2 2 2
2 2 2 2 2 2 2 2 2 2
2 2 2 2 2 2 2 2 2 2
2 2 2 2 2 2 2 2 2 2
2 2 2 2 2 2 2 2 2 2
2 2 2 2 2 2 2 2 2 2
2 2 2 2 2 2 2 2 2 
p 1 90 float
0 0 0 0 0 0 0 0 0 0 0
0 0 0 0 0 0 0 0 0 0
0 0 0 0 0 0 0 0 0 0
0 0 0 0 0 0 0 0 0 0
0 0 0 0 0 0 0 0 0 0
0 0 0 0 0 0 0 0 0 0
0 0 0 0 0 0 0 0 0 0
0 0 0 0 0 0 0 0 0 0
0 0 0 0 0 0 0 0 0 
U 3 90 float
1.00626 0.000565773 0 1.00623 0.000574699 0 1.00621 0.00058286 0 1.00619 0.000590114
0 1.00617 0.000596373 0 1.00614 0.000601499 0 1.00611 0.000605365 0
1.00609 0.000607838 0 1.00606 0.000608774 0 1.00603 0.000608028 0 1.006
0.00060545 0 1.00597 0.000600885 0 1.00594 0.000594178 0 1.00591 0.000585172
0 1.00588 0.000573709 0 1.00585 0.000559636 0 1.00582 0.000542801 0
1.00579 0.000523058 0 1.00576 0.000500269 0 1.00573 0.000474309 0 1.0057
0.000445062 0 1.00567 0.000412433 0 1.00565 0.000376346 0 1.00562 0.000336749
0 1.0056 0.000293623 0 1.00558 0.000246989 0 1.00556 0.000196863 0
1.00555 0.000143611 0 1.00554 8.6418e-05 0 1.00541 2.82611e-05 0 0.076581
-5.46379e-09 0 0.229802 -1.69406e-08 0 0.380038 -1.39892e-08 0 0.520988 4.54667e-08
0 0.646884 2.26465e-07 0 0.753366 6.24396e-07 0 0.83817 1.36038e-06 0
0.901399 2.56946e-06 0 0.94527 4.38237e-06 0 0.973431 6.89821e-06 0 0.990055
1.01543e-05 0 0.99903 1.41117e-05 0 1.00344 1.86727e-05 0 1.0054 2.37184e-05
0 1.00618 2.91454e-05 0 1.00647 3.48831e-05 0 1.00656 4.08932e-05 0
1.00658 4.71605e-05 0 1.00659 5.36825e-05 0 1.00659 6.04629e-05 0 1.00659
6.75078e-05 0 1.00659 7.48241e-05 0 1.00659 8.24194e-05 0 1.00659 9.03013e-05
0 1.00659 9.84772e-05 0 1.00659 0.000106955 0 1.00659 0.000115742 0
1.00658 0.000124845 0 1.00658 0.000134271 0 1.00658 0.000144027 0 1.00658
0.000154119 0 1.00658 0.000164552 0 1.00657 0.00017533 0 1.00657 0.000186458
0 1.00657 0.000197939 0 1.00656 0.000209773 0 1.00656 0.000221961 0
1.00655 0.000234501 0 1.00655 0.000247389 0 1.00654 0.000260621 0 1.00654
0.000274187 0 1.00653 0.000288078 0 1.00652 0.00030228 0 1.00652 0.000316775
0 1.00651 0.000331543 0 1.0065 0.000346558 0 1.00649 0.000361792 0
1.00648 0.000377209 0 1.00647 0.00039277 0 1.00646 0.000408429 0 1.00644
0.000424134 0 1.00643 0.000439825 0 1.00641 0.000455437 0 1.0064 0.000470896
0 1.00638 0.000486117 0 1.00636 0.000501013 0 1.00634 0.000515487 0
1.00632 0.000529412 0 1.0063 0.000542709 0 1.00628 0.000555203 0 
POINT_DATA  182
FIELD attributes 2
p 1 182 float
0 0 0 0 0 0 0 0 0 0 0
0 0 0 0 0 0 0 0 0 0
0 0 0 0 0 0 0 0 0 0
0 0 0 0 0 0 0 0 0 0
0 0 0 0 0 0 0 0 0 0
0 0 0 0 0 0 0 0 0 0
0 0 0 0 0 0 0 0 0 0
0 0 0 0 0 0 0 0 0 0
0 0 0 0 0 0 0 0 0 0
0 0 0 0 0 0 0 0 0 0
0 0 0 0 0 0 0 0 0 0
0 0 0 0 0 0 0 0 0 0
0 0 0 0 0 0 0 0 0 0
0 0 0 0 0 0 0 0 0 0
0 0 0 0 0 0 0 0 0 0
0 0 0 0 0 0 0 0 0 0
0 0 0 0 0 0 0 0 0 0
0 0 0 0 0 0 0 0 0 0
0 
U 3 182 float
1.00627 0.000560638 0 1.00625 0.000570206 0 1.00625 0.000570206 0 1.00627 0.000560638
0 1.00622 0.000578751 0 1.00622 0.000578751 0 1.0062 0.00058646 0
1.0062 0.00058646 0 1.00618 0.000593219 0 1.00618 0.000593219 0 1.00615
0.000598915 0 1.00615 0.000598915 0 1.00613 0.000603416 0 1.00613 0.000603416
0 1.0061 0.000606591 0 1.0061 0.000606591 0 1.00607 0.000608302 0
1.00607 0.000608302 0 1.00605 0.000608405 0 1.00605 0.000608405 0 1.00602
0.000606752 0 1.00602 0.000606752 0 1.00599 0.000603191 0 1.00599 0.000603191
0 1.00596 0.000597567 0 1.00596 0.000597567 0 1.00593 0.000589724 0
1.00593 0.000589724 0 1.0059 0.000579505 0 1.0059 0.000579505 0 1.00587
0.000566755 0 1.00587 0.000566755 0 1.00584 0.000551319 0 1.00584 0.000551319
0 1.0058 0.000533051 0 1.0058 0.000533051 0 1.00577 0.000511807 0
1.00577 0.000511807 0 1.00574 0.000487457 0 1.00574 0.000487457 0 1.00571
0.000459879 0 1.00571 0.000459879 0 1.00569 0.000428969 0 1.00569 0.000428969
0 1.00566 0.000394639 0 1.00566 0.000394639 0 1.00563 0.000356827 0
1.00563 0.000356827 0 1.00561 0.000315497 0 1.00561 0.000315497 0 1.00559
0.000270648 0 1.00559 0.000270648 0 1.00557 0.000222299 0 1.00557 0.000222299
0 1.00556 0.00017064 0 1.00556 0.00017064 0 1.00554 0.000115453 0
1.00554 0.000115453 0 1.00547 5.77922e-05 0 1.00547 5.77922e-05 0 1.00541
2.82611e-05 0 1.00541 2.82611e-05 0 0.076581 -5.46379e-09 0 0.15318 -1.12014e-08
0 0.15318 -1.12014e-08 0 0.076581 -5.46379e-09 0 0.304908 -1.54651e-08 0
0.304908 -1.54651e-08 0 0.450501 1.57337e-08 0 0.450501 1.57337e-08 0 0.583925
1.3595e-07 0 0.583925 1.3595e-07 0 0.700115 4.25392e-07 0 0.700115 4.25392e-07
0 0.795759 9.92308e-07 0 0.795759 9.92308e-07 0 0.869778 1.96478e-06 0
0.869778 1.96478e-06 0 0.923329 3.47569e-06 0 0.923329 3.47569e-06 0 0.959347
5.63995e-06 0 0.959347 5.63995e-06 0 0.98174 8.52577e-06 0 0.98174 8.52577e-06
0 0.994541 1.21324e-05 0 0.994541 1.21324e-05 0 1.00123 1.63914e-05 0
1.00123 1.63914e-05 0 1.00442 2.11946e-05 0 1.00442 2.11946e-05 0 1.00579
2.64308e-05 0 1.00579 2.64308e-05 0 1.00633 3.2013e-05 0 1.00633 3.2013e-05
0 1.00651 3.78868e-05 0 1.00651 3.78868e-05 0 1.00657 4.40253e-05 0
1.00657 4.40253e-05 0 1.00659 5.04198e-05 0 1.00659 5.04198e-05 0 1.00659
5.70708e-05 0 1.00659 5.70708e-05 0 1.00659 6.39831e-05 0 1.00659 6.39831e-05
0 1.00659 7.11635e-05 0 1.00659 7.11635e-05 0 1.00659 7.8619e-05 0
1.00659 7.8619e-05 0 1.00659 8.63573e-05 0 1.00659 8.63573e-05 0 1.00659
9.43858e-05 0 1.00659 9.43858e-05 0 1.00659 0.000102712 0 1.00659 0.000102712
0 1.00659 0.000111344 0 1.00659 0.000111344 0 1.00659 0.000120288 0
1.00659 0.000120288 0 1.00658 0.000129552 0 1.00658 0.000129552 0 1.00658
0.000139143 0 1.00658 0.000139143 0 1.00658 0.000149066 0 1.00658 0.000149066
0 1.00658 0.000159328 0 1.00658 0.000159328 0 1.00657 0.000169933 0
1.00657 0.000169933 0 1.00657 0.000180885 0 1.00657 0.000180885 0 1.00657
0.000192189 0 1.00657 0.000192189 0 1.00657 0.000203845 0 1.00657 0.000203845
0 1.00656 0.000215855 0 1.00656 0.000215855 0 1.00656 0.000228217 0
1.00656 0.000228217 0 1.00655 0.00024093 0 1.00655 0.00024093 0 1.00655
0.000253989 0 1.00655 0.000253989 0 1.00654 0.000267386 0 1.00654 0.000267386
0 1.00654 0.000281113 0 1.00654 0.000281113 0 1.00653 0.000295158 0
1.00653 0.000295158 0 1.00652 0.000309504 0 1.00652 0.000309504 0 1.00651
0.000324133 0 1.00651 0.000324133 0 1.0065 0.000339023 0 1.0065 0.000339023
0 1.0065 0.000354145 0 1.0065 0.000354145 0 1.00649 0.000369468 0
1.00649 0.000369468 0 1.00647 0.000384955 0 1.00647 0.000384955 0 1.00646
0.000400563 0 1.00646 0.000400563 0 1.00645 0.000416242 0 1.00645 0.000416242
0 1.00644 0.000431938 0 1.00644 0.000431938 0 1.00642 0.000447587 0
1.00642 0.000447587 0 1.00641 0.000463121 0 1.00641 0.000463121 0 1.00639
0.000478459 0 1.00639 0.000478459 0 1.00637 0.000493517 0 1.00637 0.000493517
0 1.00635 0.000508201 0 1.00635 0.000508201 0 1.00633 0.000522399 0
1.00633 0.000522399 0 1.00631 0.00053601 0 1.00631 0.00053601 0 1.00629
0.000548907 0 1.00629 0.000548907 0 
