/*--------------------------------*- C++ -*----------------------------------*\
| =========                 |                                                 |
| \\      /  F ield         | OpenFOAM: The Open Source CFD Toolbox           |
|  \\    /   O peration     | Version:  5.x                                   |
|   \\  /    A nd           | Web:      www.OpenFOAM.org                      |
|    \\/     M anipulation  |                                                 |
\*---------------------------------------------------------------------------*/
FoamFile
{
    version     2.0;
    format      ascii;
    class       volScalarField;
    location    "1";
    object      p;
}
// * * * * * * * * * * * * * * * * * * * * * * * * * * * * * * * * * * * * * //

dimensions      [0 2 -2 0 0 0 0];

internalField   nonuniform List<scalar> 
21600
(
0.018506365
0.016050121
0.012696941
0.0099166911
0.0077226484
0.0057895408
0.0039668342
0.002325277
0.0010366551
0.0002232678
-0.00012801783
-0.00013626629
4.9863353e-05
0.00030951053
0.00056590545
0.00077999095
0.00093975858
0.0010493383
0.0011197979
0.0011630602
0.0011890947
0.0012051783
0.0012161076
0.0012247392
0.0012325739
0.001240252
0.0012479274
0.001255515
0.0012628456
0.0012697486
0.0012760899
0.0012817808
0.001286777
0.0012910685
0.0012946727
0.001297623
0.0012999638
0.0013017426
0.0013030087
0.0013038071
0.0013041811
0.001304167
0.0013037987
0.0013031035
0.0013021067
0.001300828
0.0012992864
0.0012974964
0.0012954727
0.0012932261
0.001290769
0.0012881098
0.0012852592
0.0012822239
0.0012790138
0.0012756343
0.0012720943
0.0012683984
0.0012645548
0.0012605669
0.0012564427
0.0012521846
0.0012477999
0.0012432905
0.0012386632
0.001233919
0.0012290647
0.0012241005
0.0012190329
0.0012138614
0.0012085925
0.0012032251
0.0011977657
0.0011922125
0.001186572
0.0011808419
0.0011750286
0.0011691295
0.001163151
0.0011570898
0.0011509526
0.0011447355
0.0011384456
0.0011320781
0.0011256405
0.0011191274
0.0011125467
0.0011058922
0.0010991722
0.0010923801
0.0010855243
0.0010785977
0.0010716091
0.0010645506
0.0010574317
0.0010502437
0.0010429965
0.001035681
0.0010283074
0.0010208658
0.0010133671
0.0010058007
0.00099817819
0.00099048797
0.00098274239
0.00097492903
0.000967061
0.00095912494
0.00095113484
0.00094307632
0.00093496431
0.00092678338
0.00091854945
0.00091024597
0.00090188996
0.00089346363
0.00088498525
0.00087643565
0.00086783447
0.00085916107
0.00085043659
0.00084163875
0.00083279039
0.00082386742
0.00081489454
0.00080584568
0.00079674762
0.00078757209
0.00077834818
0.00076904516
0.00075969475
0.00075026344
0.00074078593
0.00073122555
0.00072162039
0.00071193023
0.00070219697
0.00069237635
0.00068251466
0.00067256304
0.00066257275
0.00065248967
0.00064237081
0.00063215599
0.0006219088
0.00061156211
0.00060118711
0.00059070867
0.0005802067
0.00056959684
0.00055896912
0.00054822849
0.00053747667
0.00052660625
0.00051573249
0.00050473363
0.00049374071
0.00048261523
0.00047150659
0.00046025683
0.00044903673
0.00043766563
0.00042633927
0.00041485046
0.00040342417
0.00039182209
0.00038030348
0.00036859352
0.00035699174
0.0003451804
0.00033350644
0.00032160151
0.00030986852
0.00029787934
0.00028610312
0.00027404087
0.00026224036
0.00025011842
0.00023831649
0.00022615092
0.00021437518
0.0002021853
0.00019046939
0.00017827854
0.00016666364
0.00015450021
0.0001430373
0.00013093603
0.00011968896
0.00010769275
9.6742906e-05
8.4905154e-05
7.4358765e-05
6.2746449e-05
5.2747208e-05
4.1443011e-05
3.2198308e-05
2.129336e-05
1.315488e-05
2.6221481e-06
0.015982175
0.014660298
0.012206793
0.009727964
0.0076074593
0.0057600474
0.0040592356
0.0025322189
0.0013126415
0.00050572816
0.00012027333
6.6141704e-05
0.00020895735
0.00043107802
0.00065750339
0.00084895529
0.00099279379
0.0010917721
0.0011552992
0.0011939386
0.001216731
0.0012303693
0.0012393086
0.0012462219
0.0012525214
0.0012588098
0.0012652241
0.0012716686
0.0012779656
0.0012839348
0.001289432
0.0012943579
0.0012986585
0.0013023151
0.0013053373
0.0013077519
0.0013095979
0.0013109181
0.0013117578
0.0013121588
0.0013121616
0.0013118
0.0013111061
0.001310105
0.0013088207
0.0013072712
0.0013054745
0.0013034435
0.0013011923
0.0012987304
0.0012960695
0.0012932171
0.0012901832
0.0012869739
0.0012835984
0.0012800615
0.0012763717
0.001272533
0.0012685532
0.0012644354
0.0012601871
0.0012558103
0.0012513122
0.0012466941
0.0012419629
0.001237119
0.0012321691
0.0012271132
0.0012219576
0.0012167015
0.0012113514
0.0012059059
0.0012003714
0.0011947459
0.0011890357
0.0011832385
0.0011773606
0.0011713991
0.0011653605
0.0011592413
0.0011530481
0.001146777
0.0011404348
0.0011340168
0.0011275304
0.0011209701
0.0011143436
0.001107645
0.0011008822
0.0010940487
0.0010871527
0.0010801872
0.0010731609
0.0010660658
0.0010589114
0.0010516891
0.0010444085
0.0010370606
0.0010296555
0.0010221834
0.0010146551
0.0010070598
0.00099940933
0.00099169185
0.00098391984
0.00097608069
0.00096818767
0.0009602272
0.00095221345
0.00094413181
0.0009359974
0.00092779454
0.00091953939
0.00091121509
0.00090283897
0.00089439285
0.00088589539
0.00087732698
0.00086870769
0.00086001639
0.00085127471
0.00084245984
0.00083359513
0.00082465592
0.0008156675
0.00080660316
0.00079749033
0.00078830001
0.00077906206
0.00076974491
0.00076038114
0.00075093633
0.00074144611
0.00073187281
0.00072225556
0.00071255301
0.00070280825
0.00069297576
0.00068310313
0.00067314012
0.00066313943
0.00065304541
0.00064291666
0.00063269132
0.00062243472
0.00061207792
0.00060169398
0.0005912058
0.00058069534
0.00057007609
0.00055944031
0.00054869062
0.00053793116
0.00052705197
0.00051617099
0.00050516365
0.00049416389
0.00048303019
0.00047191509
0.00046065736
0.00044943118
0.00043805233
0.00042672026
0.0004152239
0.00040379226
0.00039218282
0.00038065921
0.00036894207
0.00035733563
0.00034551727
0.00033383899
0.00032192719
0.00031019023
0.0002981943
0.00028641444
0.00027434556
0.00026254177
0.00025041331
0.00023860842
0.00022643642
0.00021465809
0.00020246187
0.00019074371
0.00017854661
0.00016692982
0.00015476022
0.00014329578
0.00013118844
0.00011994024
0.00010793806
9.6987483e-05
8.5143907e-05
7.4597225e-05
6.2979277e-05
5.2980255e-05
4.1670666e-05
3.2426891e-05
2.1516736e-05
1.3380602e-05
2.8469348e-06
0.014312628
0.013533162
0.011754793
0.0096120158
0.0075967185
0.0058295293
0.0042621668
0.0028835871
0.0017577602
0.00095943727
0.00051326514
0.00037024205
0.00043045068
0.00058832935
0.00076585947
0.00092326905
0.0010459685
0.0011331505
0.0011905327
0.0012259332
0.0012467527
0.001258843
0.0012662846
0.0012716236
0.0012762669
0.0012808639
0.0012856118
0.0012904651
0.0012952811
0.0012998969
0.0013041721
0.0013080024
0.0013113244
0.0013141076
0.0013163494
0.0013180649
0.0013192825
0.0013200353
0.0013203607
0.0013202933
0.0013198676
0.0013191127
0.0013180562
0.00131672
0.0013151251
0.0013132868
0.0013112212
0.0013089391
0.0013064531
0.0013037713
0.001300904
0.0012978576
0.0012946412
0.0012912598
0.0012877219
0.0012840315
0.0012801966
0.0012762203
0.0012721101
0.0012678685
0.0012635025
0.0012590137
0.0012544091
0.0012496894
0.0012448614
0.001239925
0.0012348868
0.0012297463
0.0012245099
0.0012191765
0.0012137523
0.0012082357
0.001202633
0.001196942
0.001191169
0.0011853113
0.0011793755
0.001173358
0.0011672657
0.0011610946
0.0011548516
0.0011485323
0.0011421438
0.001135681
0.0011291514
0.0011225494
0.0011158827
0.0011091451
0.0011023448
0.0010954748
0.0010885437
0.001081544
0.0010744848
0.0010673578
0.0010601725
0.0010529201
0.0010456106
0.0010382344
0.0010308021
0.0010233033
0.0010157495
0.0010081291
0.0010004545
0.00099271337
0.00098491863
0.00097705712
0.00096914266
0.00096116105
0.00095312705
0.00094502539
0.00093687185
0.00092865002
0.00092037678
0.00091203449
0.00090364123
0.00089517805
0.00088666436
0.00087807974
0.00086944506
0.00086073835
0.00085198208
0.00084315253
0.00083427399
0.0008253208
0.00081631926
0.00080724158
0.0007981163
0.00078891324
0.00077966347
0.00077033415
0.00076095916
0.00075150271
0.00074200183
0.00073241739
0.00072279002
0.0007130768
0.00070332243
0.0006934797
0.00068359796
0.00067362511
0.00066361577
0.00065351229
0.00064337533
0.00063314089
0.00062287652
0.00061251094
0.00060211964
0.00059162298
0.00058110556
0.00057047812
0.00055983577
0.00054907813
0.00053831248
0.00052742559
0.00051653878
0.00050552395
0.00049451873
0.00048337774
0.00047225753
0.00046099268
0.00044976174
0.00043837591
0.00042703944
0.00041553624
0.00040410053
0.00039248437
0.00038095704
0.00036923326
0.00035762346
0.00034579852
0.00033411724
0.0003221989
0.0003104593
0.00029845686
0.00028667474
0.00027459934
0.00026279367
0.00025065865
0.0002388523
0.00022667369
0.00021489431
0.00020269138
0.00019097262
0.0001787687
0.00016715179
0.00015497522
0.00014351117
0.00013139666
0.00012014941
0.00010813984
9.7190822e-05
8.5339579e-05
7.4795142e-05
6.3169201e-05
5.3173209e-05
4.1855236e-05
3.2615403e-05
2.1696526e-05
1.3561811e-05
3.0169701e-06
0.013145674
0.012575746
0.011241845
0.0094379317
0.0075921443
0.0059295196
0.0044823079
0.0032350203
0.0022048226
0.0014350516
0.00095194038
0.00073319328
0.00071010656
0.00079647974
0.00092048557
0.0010398457
0.0011362929
0.0012058021
0.0012514043
0.0012788236
0.0012939782
0.0013017522
0.0013056342
0.0013078345
0.0013095924
0.0013114878
0.0013137054
0.0013162185
0.001318901
0.0013215939
0.001324149
0.001326446
0.0013284023
0.0013299668
0.0013311184
0.0013318542
0.0013321878
0.0013321389
0.0013317342
0.0013309988
0.0013299599
0.0013286402
0.0013270623
0.0013252434
0.0013232011
0.0013209474
0.0013184956
0.001315854
0.0013130332
0.0013100389
0.00130688
0.0013035609
0.0013000894
0.001296469
0.0012927071
0.0012888062
0.0012847735
0.001280611
0.0012763255
0.0012719183
0.0012673962
0.0012627597
0.0012580154
0.0012531633
0.0012482097
0.0012431541
0.0012380029
0.0012327548
0.0012274161
0.001221985
0.0012164681
0.0012108627
0.0012051756
0.0011994036
0.0011935535
0.0011876218
0.0011816154
0.0011755301
0.001169373
0.0011631395
0.0011568369
0.0011504601
0.0011440167
0.0011375008
0.0011309205
0.0011242694
0.0011175557
0.0011107725
0.0011039286
0.0010970163
0.0010900447
0.0010830056
0.0010759087
0.001068745
0.0010615246
0.0010542379
0.0010468956
0.0010394873
0.0010320243
0.0010244955
0.0010169129
0.0010092644
0.0010015629
0.00099379527
0.00098597526
0.00097808887
0.00097015065
0.00096214562
0.00095408927
0.00094596553
0.00093779095
0.00092954828
0.00092125521
0.00091289322
0.00090448126
0.00089599945
0.0008874681
0.00087886583
0.00087021448
0.00086149103
0.000852719
0.00084387357
0.00083498012
0.00082601184
0.00081699619
0.00080790416
0.00079876552
0.00078954881
0.00078028638
0.00077094405
0.00076155707
0.0007520882
0.00074257595
0.00073297966
0.00072334151
0.00071361695
0.00070385238
0.0006939988
0.00068410738
0.00067412413
0.00066410562
0.00065399216
0.00064384652
0.00063360249
0.0006233299
0.0006129551
0.00060255602
0.00059205048
0.00058152571
0.00057088969
0.0005602404
0.00054947448
0.00053870229
0.00052780737
0.00051691441
0.0005058918
0.0004948808
0.00048373224
0.00047260662
0.0004613344
0.00045009841
0.00043870538
0.00042736422
0.00041585397
0.00040441392
0.00039279084
0.00038125952
0.00036952893
0.0003579155
0.00034608383
0.00033439927
0.00032247426
0.00031073173
0.00029872266
0.00028693798
0.00027485596
0.0002630481
0.00025090646
0.00023909829
0.00022691301
0.00021513221
0.00020292255
0.00019120278
0.00017899202
0.00016737453
0.00015519099
0.00014372681
0.00013160517
0.00012035823
0.00010834133
9.739311e-05
8.553432e-05
7.4991134e-05
6.3357406e-05
5.3363076e-05
4.2037125e-05
3.279903e-05
2.1872732e-05
1.3729817e-05
3.17219e-06
0.012212117
0.011725383
0.010671911
0.0091802712
0.0075486947
0.006019327
0.0046830416
0.0035436978
0.0025987368
0.001866612
0.0013675295
0.0010939839
0.0010010628
0.0010224937
0.0010957239
0.0011780499
0.0012478555
0.0012982046
0.001330056
0.0013475755
0.001355458
0.0013576567
0.0013570006
0.0013552725
0.001353466
0.0013520447
0.0013511558
0.0013507716
0.0013507761
0.0013510153
0.0013513383
0.0013516134
0.0013517426
0.0013516567
0.0013513166
0.0013507019
0.0013498101
0.0013486461
0.0013472238
0.0013455568
0.0013436629
0.0013415559
0.0013392517
0.0013367609
0.001334096
0.0013312642
0.001328275
0.0013251328
0.0013218453
0.0013184151
0.001314849
0.0013111486
0.0013073203
0.0013033651
0.0012992892
0.001295093
0.001290783
0.0012863591
0.0012818277
0.0012771884
0.0012724474
0.001267604
0.0012626644
0.0012576272
0.0012524988
0.0012472773
0.001241969
0.0012365715
0.0012310914
0.0012255257
0.0012198809
0.0012141538
0.001208351
0.0012024686
0.0011965136
0.0011904815
0.0011843795
0.0011782027
0.0011719585
0.0011656415
0.0011592593
0.001152806
0.0011462896
0.0011397035
0.0011330563
0.0011263405
0.0011195653
0.0011127227
0.0011058219
0.0010988547
0.0010918307
0.0010847409
0.0010775955
0.0010703847
0.0010631193
0.0010557889
0.0010484049
0.001040956
0.0010334543
0.0010258877
0.001018269
0.0010105852
0.00100285
0.00099504942
0.00098719799
0.00097928077
0.00097131318
0.00096327927
0.00095519543
0.0009470446
0.00093884426
0.00093057614
0.0009222589
0.00091387298
0.00090543833
0.00089693398
0.0008883813
0.00087975779
0.00087108637
0.00086234287
0.00085355194
0.00084468756
0.0008357763
0.00082679009
0.00081775765
0.00080864863
0.00079949414
0.00079026132
0.00078098393
0.00077162631
0.00076222519
0.0007527418
0.00074321619
0.00073360607
0.0007239553
0.00071421758
0.00070444105
0.00069457492
0.00068467219
0.00067467696
0.00066464776
0.00065452286
0.00064436709
0.0006341121
0.00062382994
0.00061344464
0.00060303652
0.00059252089
0.00058198758
0.00057134187
0.00056068451
0.00054990927
0.00053912946
0.00052822555
0.00051732541
0.00050629411
0.00049527636
0.0004841194
0.00047298743
0.00046170706
0.00045046512
0.00043906418
0.00042771745
0.00041619948
0.00040475426
0.00039312364
0.00038158751
0.00036984954
0.00035823166
0.00034639275
0.00033470411
0.00032277197
0.00031102572
0.0002990096
0.00028722155
0.00027513254
0.00026332167
0.00025117308
0.00023936226
0.00022717004
0.00021538694
0.00020317033
0.00019144861
0.00017923087
0.00016761176
0.00015542118
0.0001439557
0.00013182696
0.00012057901
0.00010855493
9.7605916e-05
8.5739864e-05
7.5195972e-05
6.3554965e-05
5.3559703e-05
4.2226735e-05
3.2986322e-05
2.205516e-05
1.3889819e-05
3.3196992e-06
0.01141644
0.010971238
0.010102877
0.0088717526
0.0074658314
0.0060896642
0.0048611809
0.0038108825
0.0029375346
0.0022456274
0.0017455883
0.0014351711
0.0012865394
0.0012511703
0.0012770587
0.0013237036
0.0013674828
0.0013988508
0.0014167789
0.0014240245
0.0014242206
0.0014204902
0.0014150363
0.0014092039
0.0014037129
0.0013988798
0.0013947897
0.0013913965
0.0013885867
0.0013862123
0.0013841238
0.0013821845
0.0013802859
0.0013783451
0.0013763083
0.0013741401
0.0013718241
0.0013693515
0.0013667243
0.0013639453
0.0013610228
0.0013579619
0.0013547718
0.0013514563
0.0013480228
0.0013444734
0.0013408137
0.0013370439
0.0013331688
0.0013291876
0.0013251047
0.0013209188
0.0013166345
0.0013122501
0.0013077705
0.0013031938
0.0012985252
0.0012937629
0.0012889121
0.0012839707
0.0012789444
0.0012738306
0.0012686353
0.0012633556
0.0012579974
0.0012525576
0.0012470425
0.0012414482
0.0012357813
0.0012300376
0.0012242239
0.0012183355
0.0012123794
0.0012063507
0.0012002564
0.0011940912
0.0011878625
0.0011815644
0.0011752046
0.0011687768
0.0011622891
0.0011557344
0.0011491215
0.0011424425
0.0011357067
0.0011289058
0.0011220493
0.0011151283
0.0011081528
0.0011011134
0.0010940206
0.0010868642
0.0010796553
0.001072383
0.0010650591
0.0010576718
0.0010502336
0.0010427319
0.00103518
0.0010275644
0.0010198991
0.0010121699
0.0010043914
0.00099654855
0.00098865685
0.00098070023
0.00097269515
0.00096462446
0.00095650567
0.00094832049
0.00094008752
0.00093178726
0.00092343954
0.00091502352
0.00090656035
0.00089802778
0.00088944839
0.00088079837
0.00087210193
0.00086333351
0.0008545191
0.00084563127
0.00083669797
0.00082768967
0.0008186365
0.00080950665
0.00080033267
0.00079108018
0.00078178444
0.00077240823
0.00076298983
0.00075348883
0.00074394695
0.00073432015
0.00072465403
0.00071490049
0.00070510948
0.00069522833
0.00068531193
0.00067530243
0.00066526032
0.00065512183
0.00064495388
0.00063468594
0.00062439227
0.00061399462
0.00060357563
0.0005930482
0.00058250462
0.00057184762
0.00056118057
0.00055039451
0.00053960556
0.00052869127
0.0005177825
0.00050674123
0.00049571534
0.00048454877
0.00047340915
0.00046211951
0.00045087037
0.00043946048
0.00042810698
0.00041658035
0.00040512877
0.00039348974
0.00038194767
0.00037020152
0.00035857809
0.00034673119
0.00033503737
0.00032309743
0.00031134637
0.0002993226
0.0002875301
0.00027543357
0.00026361858
0.00025146257
0.00023964795
0.00022744841
0.00021566181
0.00020343794
0.00019171298
0.00017948803
0.00016786591
0.00015566817
0.00014419984
0.00013206398
0.00012081323
0.00010878209
9.7830146e-05
8.5957167e-05
7.5409879e-05
6.3762252e-05
5.3762401e-05
4.242382e-05
3.3175078e-05
2.2242878e-05
1.4036352e-05
3.4550866e-06
0.010721394
0.010306893
0.0095710209
0.0085476568
0.0073512379
0.0061344441
0.0050146817
0.0040434412
0.0032306714
0.0025770313
0.0020850691
0.0017523717
0.0015613228
0.0014777325
0.0014602914
0.0014728181
0.001491328
0.0015042106
0.0015084581
0.0015053973
0.0014976747
0.0014877007
0.0014771456
0.0014669656
0.0014576173
0.0014492578
0.0014418888
0.0014354282
0.0014297528
0.0014247146
0.0014201638
0.001415958
0.0014119789
0.0014081299
0.0014043426
0.0014005662
0.0013967702
0.0013929322
0.0013890426
0.0013850928
0.001381082
0.0013770067
0.0013728691
0.0013686665
0.0013644015
0.0013600708
0.0013556768
0.0013512154
0.0013466888
0.0013420929
0.00133743
0.0013326961
0.0013278939
0.0013230195
0.0013180763
0.0013130603
0.0013079757
0.0013028186
0.0012975936
0.0012922966
0.0012869329
0.0012814982
0.0012759981
0.001270428
0.0012647939
0.0012590909
0.0012533254
0.0012474922
0.0012415978
0.0012356368
0.001229616
0.0012235295
0.0012173848
0.0012111752
0.0012049087
0.0011985782
0.001192192
0.0011857426
0.0011792386
0.0011726722
0.0011660522
0.0011593703
0.0011526359
0.00114584
0.0011389926
0.001132084
0.0011251247
0.0011181045
0.0011110344
0.0011039034
0.0010967233
0.0010894823
0.0010821927
0.0010748422
0.0010674436
0.0010599838
0.0010524765
0.0010449077
0.0010372917
0.0010296139
0.0010218892
0.0010141021
0.0010062684
0.00099837169
0.00099042872
0.00098242194
0.00097436915
0.00096625172
0.00095808849
0.00094985968
0.00094158528
0.00093324428
0.0009248579
0.00091640377
0.0009079045
0.00089933626
0.00089072312
0.00088203968
0.00087331165
0.00086451189
0.00085566791
0.00084675065
0.00083778962
0.00082875367
0.00081967451
0.00081051865
0.00080132026
0.00079204327
0.00078272461
0.00077332531
0.00076388537
0.00075436258
0.00074480043
0.00073515306
0.00072546786
0.00071569487
0.0007058859
0.00069598635
0.00068605303
0.00067602609
0.00066596803
0.000655813
0.00064563002
0.00063534638
0.00062503853
0.00061462595
0.00060419358
0.00059365195
0.00058309574
0.00057242522
0.00056174625
0.00055094729
0.00054014708
0.00052922048
0.00051830108
0.00050724803
0.00049621211
0.00048503426
0.00047388517
0.00046258471
0.00045132664
0.00043990634
0.00042854442
0.00041700778
0.00040554825
0.00039389957
0.00038235001
0.00037059453
0.00035896404
0.00034710812
0.00033540764
0.00032345894
0.0003117016
0.00029966933
0.00028787089
0.00027576607
0.00026394547
0.00025178137
0.00023996141
0.00022775397
0.00021596225
0.00020373065
0.00019200074
0.00017976823
0.00016814123
0.00015593611
0.00014446281
0.00013231978
0.00012106379
0.00010902577
9.806794e-05
8.6188524e-05
7.5634069e-05
6.3980852e-05
5.3971157e-05
4.2629235e-05
3.3363316e-05
2.2435687e-05
1.4164769e-05
3.5763004e-06
0.010108716
0.0097226584
0.009087906
0.0082278995
0.0072125628
0.006149253
0.0051391771
0.0042436242
0.0034849627
0.002866695
0.0023876362
0.0020435529
0.0018219703
0.0016990057
0.0016431327
0.0016237133
0.0016179374
0.0016129312
0.0016038704
0.0015906147
0.0015748387
0.0015583305
0.0015423359
0.0015275004
0.0015140532
0.0015019938
0.0014912262
0.0014816146
0.0014730116
0.0014652595
0.0014582035
0.0014516935
0.0014456003
0.0014398127
0.0014342472
0.0014288368
0.0014235366
0.0014183101
0.0014131358
0.0014079937
0.0014028736
0.0013977633
0.0013926578
0.0013875478
0.0013824308
0.0013772983
0.0013721489
0.0013669745
0.0013617747
0.0013565417
0.001351276
0.0013459705
0.0013406266
0.0013352376
0.001329806
0.0013243254
0.0013187992
0.0013132212
0.0013075957
0.0013019166
0.0012961889
0.0012904064
0.0012845746
0.0012786872
0.0012727504
0.0012667575
0.0012607151
0.0012546164
0.0012484685
0.001242264
0.0012360106
0.0012297007
0.0012233422
0.0012169272
0.0012104642
0.0012039445
0.0011973774
0.0011907536
0.0011840828
0.0011773555
0.0011705816
0.0011637511
0.0011568745
0.0011499413
0.0011429624
0.0011359267
0.0011288457
0.0011217077
0.0011145249
0.0011072848
0.0011000001
0.0010926578
0.0010852713
0.0010778266
0.001070338
0.0010627908
0.0010551998
0.0010475496
0.0010398559
0.0010321022
0.0010243051
0.0010164473
0.0010085462
0.0010005836
0.00099257781
0.00098450952
0.00097639811
0.00096822321
0.00096000527
0.00095172274
0.00094339724
0.00093500596
0.00092657182
0.00091807062
0.00090952667
0.00090091432
0.00089225937
0.00088353456
0.00087476738
0.0008659288
0.00085704811
0.0008480944
0.00083909896
0.00083002874
0.00082091729
0.00081172919
0.00080250049
0.00079319317
0.00078384602
0.00077441814
0.00076495142
0.0007554017
0.00074581437
0.00073614158
0.00072643268
0.00071663569
0.00070680441
0.00069688218
0.00068692785
0.00067687946
0.00066680159
0.00065662627
0.0006464246
0.00063612174
0.00062579627
0.00061536546
0.00060491646
0.00059435753
0.00058378562
0.00057309867
0.00056240487
0.00055159029
0.00054077607
0.00052983459
0.00051890196
0.00050783474
0.0004967863
0.00048559494
0.00047443401
0.00046312064
0.00045185136
0.00044041872
0.00042904618
0.00041749772
0.00040602815
0.00039436813
0.00038280904
0.00037104268
0.00035940313
0.00034753675
0.00033582766
0.00032386888
0.00031210333
0.00030006134
0.00028825503
0.00027614084
0.00026431266
0.00025213952
0.0002403122
0.00022809602
0.00021629708
0.00020405707
0.00019231994
0.00018007935
0.00016844497
0.00015623215
0.00014475109
0.00013260082
0.0001213363
0.00010929165
9.832393e-05
8.6438833e-05
7.5872019e-05
6.4214832e-05
5.4187927e-05
4.2846181e-05
3.3550745e-05
2.263517e-05
1.4273224e-05
3.6847978e-06
0.0095659981
0.0092075483
0.0086537196
0.0079219944
0.0070574699
0.0061339693
0.0052318283
0.0044117302
0.0037046666
0.0031197629
0.0026560202
0.0023081217
0.0020659163
0.0019121957
0.0018235065
0.0017750346
0.0017462918
0.0017240675
0.0017021052
0.0016788548
0.0016550125
0.0016317878
0.0016100858
0.0015903213
0.0015725444
0.0015566127
0.001542326
0.0015294798
0.001517888
0.0015073722
0.0014977667
0.0014889111
0.0014806647
0.0014729015
0.0014655228
0.0014584454
0.0014516097
0.0014449653
0.0014384787
0.0014321184
0.0014258653
0.0014196978
0.0014136043
0.0014075682
0.0014015821
0.0013956317
0.0013897123
0.001383811
0.0013779249
0.0013720425
0.0013661622
0.0013602738
0.0013543772
0.0013484629
0.0013425323
0.0013365765
0.0013305982
0.0013245889
0.0013185524
0.0013124806
0.0013063782
0.0013002369
0.0012940626
0.0012878467
0.0012815959
0.0012753015
0.0012689706
0.0012625946
0.001256181
0.0012497209
0.0012432226
0.0012366766
0.0012300919
0.0012234586
0.0012167862
0.0012100645
0.0012033034
0.0011964922
0.0011896416
0.0011827403
0.0011757994
0.0011688072
0.0011617754
0.0011546917
0.0011475685
0.0011403926
0.0011331773
0.0011259088
0.0011186007
0.0011112388
0.0011038374
0.0010963814
0.0010888859
0.0010813351
0.0010737448
0.0010660983
0.0010584123
0.0010506692
0.0010428866
0.001035046
0.0010271659
0.0010192267
0.0010112479
0.001003209
0.00099513035
0.00098699055
0.00097881093
0.00097056894
0.00096228707
0.00095394156
0.0009455561
0.00093710568
0.00092861528
0.00092005851
0.00091146175
0.00090279714
0.00089409261
0.00088531865
0.00087650488
0.00086762003
0.00085869556
0.00084969828
0.00084066167
0.0008315504
0.00082240021
0.00081317342
0.00080390826
0.00079456444
0.00078518297
0.00077572065
0.0007662216
0.00075663936
0.00074702156
0.00073731806
0.00072758043
0.00071775441
0.00070789603
0.00069794634
0.00068796644
0.00067789207
0.00066779007
0.00065759015
0.00064736569
0.00063703953
0.00062669252
0.00061623962
0.00060577026
0.00059519039
0.00058459923
0.00057389239
0.00056318038
0.00055234691
0.00054151545
0.00053055602
0.00051960706
0.00050852276
0.00049745885
0.00048625123
0.00047507563
0.00046374676
0.00045246356
0.00044101615
0.00042963038
0.00041806782
0.00040658565
0.00039491217
0.00038334107
0.00037156183
0.00035991082
0.00034803212
0.00033631204
0.00032434147
0.00031256533
0.00030051206
0.00028869551
0.00027657052
0.00026473234
0.00025254888
0.0002407117
0.00022848569
0.00021667688
0.00020442754
0.00019268035
0.00018043099
0.0001687861
0.00015656514
0.00014507274
0.00013291515
0.00012163787
0.00010958701
9.8604165e-05
8.6714526e-05
7.612849e-05
6.4469744e-05
5.4415815e-05
4.3079189e-05
3.373823e-05
2.2843619e-05
1.4362317e-05
3.7842664e-06
0.0090830104
0.0087510076
0.0082635615
0.0076339593
0.0068933234
0.0060926778
0.0052931104
0.0045483727
0.0038927228
0.0033405878
0.0028935788
0.0025468995
0.0022917807
0.0021151303
0.0019995136
0.0019254788
0.0018754811
0.0018368312
0.0018023913
0.0017693966
0.0017375886
0.0017076041
0.0016800491
0.0016551679
0.0016328825
0.0016129349
0.0015950251
0.0015788713
0.0015642367
0.001550912
0.0015387143
0.00152747
0.001517027
0.001507245
0.0014980106
0.0014892248
0.001480814
0.0014727135
0.0014648785
0.0014572658
0.0014498475
0.0014425929
0.0014354836
0.0014284957
0.0014216168
0.0014148268
0.0014081172
0.0014014705
0.001394881
0.0013883333
0.0013818239
0.0013753389
0.0013688771
0.0013624257
0.0013559852
0.0013495439
0.001343104
0.0013366543
0.0013301985
0.0013237258
0.0013172411
0.0013107338
0.0013042099
0.0012976589
0.0012910875
0.0012844852
0.0012778597
0.0012712001
0.001264515
0.0012577933
0.0012510442
0.0012442562
0.0012374394
0.0012305819
0.0012236943
0.0012167644
0.0012098034
0.0012027987
0.0011957621
0.0011886805
0.0011815664
0.001174406
0.0011672128
0.001159972
0.0011526979
0.0011453752
0.0011380189
0.0011306129
0.0011231729
0.0011156822
0.0011081572
0.0011005805
0.0010929691
0.0010853049
0.001077606
0.001069853
0.001062065
0.0010542218
0.0010463434
0.0010384087
0.0010304384
0.0010224107
0.0010143471
0.0010062248
0.00099806644
0.00098984802
0.00098159337
0.00097327726
0.00096492472
0.0009565093
0.00094805727
0.00093954088
0.00093098773
0.00092236867
0.00091371275
0.00090498933
0.00089622899
0.00088739946
0.00087853303
0.00086959566
0.00086062149
0.00085157455
0.00084249101
0.00083333276
0.00082413825
0.00081486702
0.00080555999
0.00079617409
0.00078675305
0.00077725089
0.00076771443
0.00075809445
0.00074844128
0.00073870201
0.00072893093
0.00071907101
0.00070918097
0.00069919914
0.00068918928
0.00067908441
0.00066895404
0.00065872518
0.00064847386
0.00063812022
0.00062774776
0.00061726877
0.00060677529
0.00059617062
0.00058555659
0.00057482619
0.00056409248
0.0005532366
0.00054238455
0.00053140379
0.00052043528
0.00050933068
0.00049824818
0.00048702123
0.00047582794
0.00046448066
0.00045318061
0.00044171565
0.00043031381
0.00041873452
0.00040723699
0.00039554755
0.00038396174
0.00037216727
0.00036050212
0.0003486089
0.00033687517
0.00032489076
0.00031310138
0.00030103492
0.00028920542
0.0002770679
0.00026521695
0.00025302162
0.00024117168
0.00022893447
0.00021711271
0.00020485292
0.00019309231
0.00018083334
0.00016917417
0.0001569446
0.00014543651
0.00013327158
0.00012197633
0.0001099199
9.8915401e-05
8.7022878e-05
7.6408967e-05
6.4751993e-05
5.4658705e-05
4.3333479e-05
3.3927755e-05
2.3063503e-05
1.4435027e-05
3.8799233e-06
0.0086509843
0.0083438702
0.0079118206
0.0073651179
0.006726303
0.0060314656
0.0053262437
0.0046551404
0.004051284
0.0035324008
0.0031034253
0.0027614396
0.0024991738
0.0023062366
0.0021694014
0.0020736527
0.002004508
0.001950435
0.0019040094
0.0018615686
0.0018219885
0.001785333
0.0017519133
0.0017218341
0.0016949317
0.0016708647
0.0016492494
0.0016297276
0.0016120046
0.001595832
0.0015810036
0.0015673304
0.0015546479
0.0015428027
0.0015316682
0.0015211301
0.0015111014
0.0015015036
0.0014922804
0.0014833775
0.0014747581
0.0014663824
0.0014582253
0.0014502556
0.0014424557
0.0014347998
0.0014272753
0.0014198602
0.0014125458
0.0014053125
0.001398155
0.0013910558
0.0013840121
0.0013770079
0.001370043
0.0013631026
0.0013561883
0.0013492862
0.0013423997
0.0013355157
0.0013286388
0.0013217562
0.0013148741
0.0013079795
0.00130108
0.0012941625
0.0012872356
0.0012802861
0.0012733234
0.0012663343
0.0012593289
0.0012522938
0.00124524
0.0012381534
0.0012310461
0.0012239036
0.0012167386
0.0012095361
0.0012023098
0.0011950439
0.0011877529
0.0011804206
0.0011730622
0.0011656606
0.0011582322
0.0011507591
0.0011432582
0.0011357112
0.0011281358
0.0011205126
0.0011128606
0.0011051593
0.0010974286
0.0010896474
0.0010818361
0.0010739729
0.0010660792
0.0010581321
0.0010501541
0.0010421213
0.0010340572
0.0010259368
0.0010177847
0.0010095748
0.0010013329
0.00099303165
0.00098469801
0.00097630354
0.00096787634
0.00095938672
0.00095086408
0.00094227738
0.00093365742
0.00092497172
0.00091625256
0.00090746592
0.00089864568
0.00088975618
0.00088083301
0.0008718387
0.00086281076
0.00085370975
0.00084457524
0.00083536564
0.00082612279
0.00081680274
0.00080744986
0.00079801757
0.00078855303
0.00077900675
0.00076942901
0.00075976706
0.0007500747
0.00074029551
0.00073048721
0.0007205893
0.00071066391
0.00070064592
0.00069060248
0.00068046317
0.0006703009
0.00066003924
0.00064975759
0.00063937271
0.00062897141
0.00061846265
0.00060794174
0.00059730869
0.00058666857
0.00057591111
0.00056515255
0.00055427087
0.00054339515
0.00053238979
0.00052139872
0.00051027064
0.00049916662
0.00048791726
0.00047670343
0.00046533476
0.00045401506
0.00044252968
0.00043110902
0.00041951024
0.00040799464
0.0003962866
0.00038468338
0.00037287118
0.00036118919
0.00034927907
0.00033752899
0.00032552849
0.00031372312
0.00030164139
0.00028979612
0.00027764415
0.00026577748