/*--------------------------------*- C++ -*----------------------------------*\
| =========                 |                                                 |
| \\      /  F ield         | OpenFOAM: The Open Source CFD Toolbox           |
|  \\    /   O peration     | Version:  5.x                                   |
|   \\  /    A nd           | Web:      www.OpenFOAM.org                      |
|    \\/     M anipulation  |                                                 |
\*---------------------------------------------------------------------------*/
FoamFile
{
    version     2.0;
    format      ascii;
    class       surfaceScalarField;
    location    "1";
    object      phi;
}
// * * * * * * * * * * * * * * * * * * * * * * * * * * * * * * * * * * * * * //

dimensions      [0 3 -1 0 0 0 0];

internalField   nonuniform List<scalar> 
42870
(
3.6478083e-08
3.00768e-09
-3.9485763e-08
3.2670395e-08
3.8076884e-09
2.8879467e-08
3.7909277e-09
2.528284e-08
3.5966277e-09
2.1877119e-08
3.4057208e-09
1.8729847e-08
3.1472719e-09
1.596668e-08
2.7631667e-09
1.3680867e-08
2.2858136e-09
1.1891327e-08
1.7895393e-09
1.0564875e-08
1.3264519e-09
9.6156872e-09
9.4918818e-10
8.9447055e-09
6.7098166e-10
8.4647697e-09
4.7993583e-10
8.1088892e-09
3.5588052e-10
7.8295253e-09
2.7936388e-10
7.5936086e-09
2.359167e-10
7.3807833e-09
2.1282528e-10
7.1805713e-09
2.0021202e-10
6.9887293e-09
1.9184196e-10
6.8042739e-09
1.8445542e-10
6.6275731e-09
1.7670084e-10
6.4592903e-09
1.6828276e-10
6.2998989e-09
1.5939145e-10
6.1495269e-09
1.5037194e-10
6.0079765e-09
1.415504e-10
5.8748086e-09
1.331679e-10
5.7494429e-09
1.2536574e-10
5.6312343e-09
1.1820864e-10
5.5195363e-09
1.1169793e-10
5.4137377e-09
1.0579861e-10
5.313284e-09
1.0045373e-10
5.2176811e-09
9.5602878e-11
5.1264972e-09
9.1183888e-11
5.0393544e-09
8.7142782e-11
4.9559255e-09
8.3428915e-11
4.8759235e-09
8.0002086e-11
4.7990985e-09
7.6824999e-11
4.7252284e-09
7.3870031e-11
4.6541179e-09
7.111051e-11
4.5855898e-09
6.8528113e-11
4.5194864e-09
6.6103437e-11
4.455662e-09
6.3824384e-11
4.3939859e-09
6.167612e-11
4.3343353e-09
5.9650537e-11
4.2765998e-09
5.7735545e-11
4.2206742e-09
5.5925623e-11
4.1664638e-09
5.421032e-11
4.1138779e-09
5.2585897e-11
4.062835e-09
5.1042919e-11
4.013256e-09
4.9579009e-11
3.9650706e-09
4.8185455e-11
3.9182095e-09
4.6861026e-11
3.872612e-09
4.55975e-11
3.8282174e-09
4.4394653e-11
3.7849728e-09
4.3244641e-11
3.7428246e-09
4.2148166e-11
3.7017269e-09
4.1097635e-11
3.6616323e-09
4.0094605e-11
3.6225007e-09
3.9131642e-11
3.5842896e-09
3.8211074e-11
3.5469641e-09
3.7325541e-11
3.510486e-09
3.6478083e-11
3.4748247e-09
3.5661323e-11
3.4399457e-09
3.4878969e-11
3.4058222e-09
3.4123556e-11
3.3724227e-09
3.3399418e-11
3.3397238e-09
3.269894e-11
3.3076967e-09
3.202705e-11
3.2763208e-09
3.1375942e-11
3.2455697e-09
3.0751105e-11
3.2154252e-09
3.0144498e-11
3.185863e-09
2.9562171e-11
3.1568672e-09
2.899581e-11
3.1284152e-09
2.8451999e-11
3.1004931e-09
2.7922127e-11
3.0730798e-09
2.741331e-11
3.0461632e-09
2.6916614e-11
3.0197235e-09
2.643967e-11
2.9937503e-09
2.597321e-11
2.9682249e-09
2.5525371e-11
2.9431384e-09
2.5086534e-11
2.918473e-09
2.4665336e-11
2.8942212e-09
2.4251792e-11
2.8703662e-09
2.3855034e-11
2.8469015e-09
2.3464701e-11
2.8238111e-09
2.309041e-11
2.8010897e-09
2.2721424e-11
2.7787218e-09
2.236783e-11
2.7567033e-09
2.2018514e-11
2.7350193e-09
2.1684024e-11
2.7136664e-09
2.1352867e-11
2.6926304e-09
2.1036044e-11
2.6719087e-09
2.0721683e-11
2.6514875e-09
2.0421225e-11
2.631365e-09
2.012243e-11
2.6115279e-09
1.9837157e-11
2.5919751e-09
1.955281e-11
2.5726934e-09
1.9281652e-11
2.5536827e-09
1.9010739e-11
2.53493e-09
1.8752718e-11
2.5164356e-09
1.8494317e-11
2.4981871e-09
1.8248543e-11
2.4801853e-09
1.8001813e-11
2.4624178e-09
1.7767474e-11
2.4448862e-09
1.7531647e-11
2.4275782e-09
1.7307997e-11
2.4104958e-09
1.7082372e-11
2.3936271e-09
1.6868727e-11
2.3769744e-09
1.6652663e-11
2.360526e-09
1.6448396e-11
2.3442847e-09
1.6241303e-11
2.3282389e-09
1.6045837e-11
2.3123917e-09
1.5847173e-11
2.2967317e-09
1.5659976e-11
2.2812625e-09
1.5469244e-11
2.2659726e-09
1.5289825e-11
2.2508661e-09
1.5106567e-11
2.2359316e-09
1.4934475e-11
2.2211733e-09
1.4758267e-11
2.2065802e-09
1.4593084e-11
2.1921567e-09
1.4423534e-11
2.1778918e-09
1.4264874e-11
2.1637902e-09
1.410162e-11
2.1498411e-09
1.3949127e-11
2.1360493e-09
1.379183e-11
2.1224041e-09
1.3645176e-11
2.1089106e-09
1.3493521e-11
2.0955582e-09
1.3352405e-11
2.0823521e-09
1.3206096e-11
2.0692818e-09
1.3070241e-11
2.0563528e-09
1.2929002e-11
2.0435547e-09
1.2798154e-11
2.0308929e-09
1.2661721e-11
2.0183573e-09
1.253565e-11
2.0059535e-09
1.2403775e-11
1.9936712e-09
1.2282273e-11
1.9815165e-09
1.2154716e-11
1.9694789e-09
1.2037598e-11
1.9575648e-09
1.1914128e-11
1.9457636e-09
1.1801233e-11
1.9340819e-09
1.1681623e-11
1.9225091e-09
1.1572813e-11
1.9110523e-09
1.1456841e-11
1.8997003e-09
1.1352002e-11
1.8884608e-09
1.1239442e-11
1.8773224e-09
1.1138488e-11
1.8662932e-09
1.1029115e-11
1.8553613e-09
1.0931987e-11
1.8445357e-09
1.0825566e-11
1.8338034e-09
1.0732237e-11
1.8231749e-09
1.0628523e-11
1.8126359e-09
1.0539002e-11
1.8021982e-09
1.0437732e-11
1.7918461e-09
1.0352068e-11
1.7815932e-09
1.0252962e-11
1.7714219e-09
1.0171246e-11
1.7613479e-09
1.0073993e-11
1.7513515e-09
9.9963733e-12
1.7414509e-09
9.9006309e-12
1.7316236e-09
9.8273118e-12
1.7218909e-09
9.7326925e-12
1.712227e-09
9.6639527e-12
1.7026569e-09
9.5700161e-12
1.6931507e-09
9.5062181e-12
1.6837383e-09
9.4124574e-12
1.6743842e-09
9.3540654e-12
1.6651243e-09
9.2598931e-12
1.6559168e-09
9.2074924e-12
1.6468046e-09
9.1122203e-12
1.637738e-09
9.0665455e-12
1.6287687e-09
8.9693606e-12
1.6198374e-09
8.9313267e-12
1.6110061e-09
8.8312657e-12
1.6022041e-09
8.8020097e-12
1.5935062e-09
8.6979173e-12
1.5848273e-09
8.6788576e-12
1.576258e-09
8.5693417e-12
1.5676957e-09
8.5622442e-12
1.5592501e-09
8.4456158e-12
1.5507974e-09
8.4526949e-12
1.5424705e-09
8.3268835e-12
1.5341196e-09
8.3509326e-12
1.5259062e-09
8.2133819e-12
1.5176482e-09
8.2579553e-12
1.5095428e-09
8.1054712e-12
1.5013676e-09
8.1751494e-12
1.4933639e-09
8.0036899e-12
1.4852595e-09
8.1044728e-12
1.4773506e-09
7.908837e-12
1.4693019e-09
8.048761e-12
1.4614797e-09
7.8221103e-12
1.4534675e-09
8.0122784e-12
1.4457221e-09
7.7453375e-12
1.4377203e-09
8.0017774e-12
1.430039e-09
7.6813277e-12
1.4220103e-09
8.0286838e-12
1.4143763e-09
7.6340624e-12
1.4062614e-09
8.1148542e-12
1.3986522e-09
7.6092401e-12
8.722216e-12
4.210519e-08
2.7426746e-09
-4.1840185e-08
4.1942897e-08
3.9699822e-09
4.1257292e-08
4.4765324e-09
4.0294857e-08
4.559063e-09
3.9154606e-08
4.5459719e-09
3.7832024e-08
4.469853e-09
3.6344601e-08
4.25059e-09
3.4753088e-08
3.8773269e-09
3.3143462e-08
3.3991656e-09
3.1585197e-08
2.8847162e-09
3.0125124e-08
2.4092611e-09
2.8781577e-08
2.0145291e-09
2.7554633e-08
1.7068801e-09
2.6437754e-08
1.4727594e-09
2.5427466e-08
1.2896522e-09
2.4513047e-08
1.1503353e-09
2.3682685e-08
1.043187e-09
2.292522e-08
9.5767696e-10
2.2230843e-08
8.8621914e-10
2.1591244e-08
8.2405445e-10
2.0999525e-08
7.6842039e-10
2.0450004e-08
7.1780377e-10
1.9937978e-08
6.714174e-10
1.9459484e-08
6.2886536e-10
1.9011119e-08
5.8991621e-10
1.8589908e-08
5.5437802e-10
1.8193235e-08
5.2203959e-10
1.7818765e-08
4.9267773e-10
1.746443e-08
4.6603351e-10
1.7128389e-08
4.4183946e-10
1.6809017e-08
4.1982533e-10
1.6504877e-08
3.9974283e-10
1.6214702e-08
3.8135938e-10
1.593737e-08
3.6447489e-10
1.5671891e-08
3.4890748e-10
1.5417386e-08
3.3450759e-10
1.5173071e-08
3.2113943e-10
1.4938246e-08
3.0869543e-10
1.4712281e-08
2.970755e-10
1.4494606e-08
2.8620317e-10
1.4284706e-08
2.7600354e-10
1.4082108e-08
2.6642181e-10
1.3886385e-08
2.5739995e-10
1.3697137e-08
2.4889787e-10
1.3514004e-08
2.4086868e-10
1.3336647e-08
2.3328239e-10
1.3164758e-08
2.2609956e-10
1.2998046e-08
2.1929752e-10
1.2836247e-08
2.1284199e-10
1.2679111e-08
2.067159e-10
1.2526407e-08
2.008889e-10
1.237792e-08
1.9534851e-10
1.223345e-08
1.9006726e-10
1.2092808e-08
1.8503657e-10
1.1955821e-08
1.8023128e-10
1.1822323e-08
1.7564619e-10
1.1692163e-08
1.7125785e-10
1.1565194e-08
1.6706409e-10
1.1441282e-08
1.6304277e-10
1.1320299e-08
1.5919429e-10
1.1202127e-08
1.5549749e-10
1.108665e-08
1.5195508e-10
1.0973765e-08
1.4854652e-10
1.0863367e-08
1.4527659e-10
1.0755366e-08
1.4212511e-10
1.0649667e-08
1.3909875e-10
1.0546188e-08
1.3617745e-10
1.0444846e-08
1.3336959e-10
1.0345566e-08
1.3065512e-10
1.0248274e-08
1.2804396e-10
1.0152902e-08
1.255159e-10
1.0059382e-08
1.2308236e-10
9.9676549e-09
1.2072286e-10
9.8776567e-09
1.184502e-10
9.7893353e-09
1.1624352e-10
9.7026316e-09
1.1411696e-10
9.617499e-09
1.1204923e-10
9.533883e-09
1.1005569e-10
9.4517416e-09
1.081146e-10
9.3710245e-09
1.0624248e-10
9.2916939e-09
1.0441711e-10
9.2137031e-09
1.0265607e-10
9.1370183e-09
1.0093667e-10
9.0615958e-09
9.9277503e-11
8.9874051e-09
9.7655354e-11
8.9144058e-09
9.6089797e-11
8.8425701e-09
9.455711e-11
8.7718602e-09
9.3077742e-11
8.7022512e-09
9.1627509e-11
8.6337075e-09
9.0227652e-11
8.5662068e-09
8.8853564e-11
8.4997157e-09
8.752719e-11
8.4342138e-09
8.6223555e-11
8.3696698e-09
8.496521e-11
8.3060654e-09
8.3726887e-11
8.2433709e-09
8.2531625e-11
8.1815697e-09
8.1353953e-11
8.1206341e-09
8.0217275e-11
8.0605488e-09
7.9096025e-11
8.0012877e-09
7.8013836e-11
7.9428369e-09
7.6945164e-11
7.8851717e-09
7.5913722e-11
7.8282794e-09
7.4894129e-11
7.7721368e-09
7.3910016e-11
7.7167322e-09
7.293631e-11
7.6620438e-09
7.1996384e-11
7.6080605e-09
7.1065658e-11
7.5547622e-09
7.0167038e-11
7.5021382e-09
6.9276628e-11
7.4501699e-09
6.8416665e-11
7.3988471e-09
6.7564135e-11
7.3481525e-09
6.6740383e-11
7.2980762e-09
6.5923503e-11
7.2486025e-09
6.5133703e-11
7.1997213e-09
6.4350431e-11
7.1514186e-09
6.3592491e-11
7.1036842e-09
6.2840952e-11
7.0565058e-09
6.2112933e-11
7.0098726e-09
6.1391407e-11
6.9637742e-09
6.069151e-11
6.9181993e-09
5.9998416e-11
6.8731392e-09
5.9324964e-11
6.828582e-09
5.865885e-11
6.7845209e-09
5.8010285e-11
6.7409429e-09
5.7369816e-11
6.6978434e-09
5.6744681e-11
6.6552083e-09
5.6128628e-11
6.6130351e-09
5.5525564e-11
6.5713084e-09
5.4932796e-11
6.5300281e-09
5.4350532e-11
6.4891771e-09
5.378001e-11
6.4487579e-09
5.3217356e-11
6.4087515e-09
5.2668121e-11
6.3691632e-09
5.2123965e-11
6.3299718e-09
5.1595132e-11
6.2911857e-09
5.1068434e-11
6.2527812e-09
5.0559185e-11
6.2147698e-09
5.0048973e-11
6.1771254e-09
4.9558552e-11
6.1398627e-09
4.906392e-11
6.1029527e-09
4.8591627e-11
6.0664138e-09
4.8111729e-11
6.0302137e-09
4.7656911e-11
5.9943747e-09
4.7190969e-11
5.9588612e-09
4.6753013e-11
5.9236993e-09
4.6300309e-11
5.8888498e-09
4.5878641e-11
5.8543433e-09
4.5438523e-11
5.8201362e-09
4.5032592e-11
5.786264e-09
4.4604477e-11
5.7526788e-09
4.4213757e-11
5.7194206e-09
4.3797132e-11
5.6864373e-09
4.3421107e-11
5.6537738e-09
4.3015542e-11
5.621373e-09
4.2653698e-11
5.5892854e-09
4.2258851e-11
5.5574488e-09
4.1910664e-11
5.5259188e-09
4.1526295e-11
5.4946283e-09
4.1191223e-11
5.4636384e-09
4.0817208e-11
5.4328764e-09
4.0494671e-11
5.4024093e-09
4.0131025e-11
5.3721589e-09
3.9820389e-11
5.3421979e-09
3.9467289e-11
5.3124425e-09
3.9167843e-11
5.2829709e-09
3.8825666e-11
5.2536942e-09
3.8536596e-11
5.2246957e-09
3.8205958e-11
5.1958816e-09
3.7926316e-11
5.16734e-09
3.7608131e-11
5.1389726e-09
3.7336787e-11
5.1108716e-09
3.7032338e-11
5.0829349e-09
3.6767934e-11
5.0552579e-09
3.6478966e-11
5.027736e-09
3.6219843e-11
5.0004662e-09
3.5948695e-11
4.9733427e-09
3.5692809e-11
4.9464624e-09
3.5442569e-11
4.9197206e-09
3.518738e-11
4.8932112e-09
3.4962125e-11
4.8668336e-09
3.4704438e-11
4.840675e-09
3.450954e-11
4.8146431e-09
3.4245313e-11
4.7888132e-09
3.4087884e-11
4.7631067e-09
3.3811946e-11
4.7375803e-09
3.3701479e-11
4.7121769e-09
3.3407148e-11
4.6869249e-09
3.3356476e-11
4.6617987e-09
3.3035017e-11
4.6367856e-09
3.3061811e-11
4.6119061e-09
3.2701651e-11
4.5870875e-09
3.2830868e-11
4.5624164e-09
3.2416444e-11
4.5377336e-09
3.2684536e-11
4.5132204e-09
3.2194568e-11
4.4885922e-09
3.2656919e-11
4.464165e-09
3.2061262e-11
4.4394696e-09
3.2810199e-11
4.4150184e-09
3.2060498e-11
3.4429006e-11
4.4026037e-08
2.5882752e-09
-4.3871638e-08
4.4407862e-08
3.5881577e-09
4.4608474e-08
4.27592e-09
4.4658509e-08
4.5090286e-09
4.4624925e-08
4.5795552e-09
4.4504288e-08
4.5904898e-09
4.4242307e-08
4.5125717e-09
4.3818069e-08
4.3015644e-09
4.3251853e-08
3.9653815e-09
4.2579024e-08
3.5575458e-09
4.1841265e-08
3.1470193e-09
4.1070868e-08
2.7849263e-09
4.0287326e-08
2.490422e-09
3.9502791e-08
2.2572944e-09
3.8722681e-08
2.0697627e-09
3.7954032e-08
1.9189836e-09
3.7200904e-08
1.7963156e-09
3.6465228e-08
1.693353e-09
3.5747982e-08
1.6034648e-09
3.5049804e-08
1.5222326e-09
3.43712e-08
1.4470245e-09
3.3712591e-08
1.3764129e-09
3.3074308e-08
1.3096998e-09
3.2456566e-08
1.2466082e-09
3.1859426e-08
1.1870556e-09
3.1282795e-08
1.1310098e-09
3.0726421e-08
1.0784126e-09
3.0189903e-08
1.029196e-09
2.9672716e-08
9.8322048e-10
2.9174241e-08
9.403149e-10
2.8693791e-08
9.0027558e-10
2.8230633e-08
8.6290015e-10
2.7784015e-08
8.2797764e-10
2.7353173e-08
7.9531653e-10
2.6937355e-08
7.6472614e-10
2.653582e-08
7.3604215e-10
2.6147857e-08
7.0910235e-10
2.577278e-08
6.8377235e-10
2.5409938e-08
6.5991743e-10
2.5058712e-08
6.3742994e-10
2.4718517e-08
6.1619814e-10
2.4388803e-08
5.9613622e-10
2.4069052e-08
5.7715049e-10
2.3758778e-08
5.591724e-10
2.3457524e-08
5.421221e-10
2.3164862e-08
5.2594474e-10
2.288039e-08
5.1057114e-10
2.260373e-08
4.9595749e-10
2.2334529e-08
4.8204291e-10
2.2072452e-08
4.6879272e-10
2.1817188e-08
4.5615286e-10
2.1568441e-08
4.4409644e-10
2.1325933e-08
4.3257469e-10
2.1089402e-08
4.2156738e-10
2.0858603e-08
4.1103012e-10
2.0633301e-08
4.0094848e-10
2.0413278e-08
3.9128145e-10
2.0198322e-08
3.8201971e-10
1.998824e-08
3.7312497e-10
1.9782842e-08
3.6459231e-10
1.9581954e-08
3.5638557e-10
1.9385405e-08
3.4850369e-10
1.919304e-08
3.4091207e-10
1.9004703e-08
3.3361313e-10
1.8820255e-08
3.265734e-10
1.8639555e-08
3.1979841e-10
1.8462477e-08
3.1325543e-10
1.8288894e-08
3.0695277e-10
1.8118691e-08
3.0085829e-10
1.7951752e-08
2.9498272e-10
1.7787974e-08
2.8929421e-10
1.762725e-08
2.8380587e-10
1.7469487e-08
2.7848595e-10
1.7314588e-08
2.7334959e-10
1.7162466e-08
2.6836508e-10
1.7013034e-08
2.6354946e-10
1.6866212e-08
2.5887096e-10
1.6721919e-08
2.5434828e-10
1.6580084e-08
2.4994957e-10
1.6440632e-08
2.4569505e-10
1.6303496e-08
2.4155277e-10
1.6168608e-08
2.3754423e-10
1.6035907e-08
2.3363742e-10
1.590533e-08
2.29855e-10
1.577682e-08
2.2616489e-10
1.5650319e-08
2.2259069e-10
1.5525776e-08
2.191004e-10
1.5403135e-08
2.1571832e-10
1.528235e-08
2.1241264e-10
1.516337e-08
2.0920811e-10
1.504615e-08
2.0607328e-10
1.4930644e-08
2.0303312e-10
1.4816811e-08
2.0005672e-10
1.4704607e-08
1.9716896e-10
1.4593994e-08
1.9433972e-10
1.4484932e-08
1.9159347e-10
1.4377385e-08
1.8890116e-10
1.4271316e-08
1.8628649e-10
1.416669e-08
1.8372179e-10
1.4063474e-08
1.8122964e-10
1.3961636e-08
1.7878409e-10
1.3861143e-08
1.7640614e-10
1.3761965e-08
1.7407201e-10
1.3664075e-08
1.7180066e-10
1.356744e-08
1.6957088e-10
1.3472037e-08
1.6739912e-10
1.3377836e-08
1.6526727e-10
1.3284814e-08
1.6318863e-10
1.3192942e-08
1.6114881e-10
1.3102201e-08
1.5915735e-10
1.3012561e-08
1.5720415e-10
1.2924007e-08
1.5529437e-10
1.2836508e-08
1.5342285e-10
1.2750052e-08
1.5158963e-10
1.2664607e-08
1.4979527e-10
1.2580166e-08
1.4803387e-10
1.2496694e-08
1.4631252e-10
1.2414189e-08
1.4461853e-10
1.2332614e-08
1.4296639e-10
1.2251969e-08
1.4133569e-10
1.2172219e-08
1.3974928e-10
1.2093365e-08
1.3817801e-10
1.201537e-08
1.3665415e-10
1.1938242e-08
1.351387e-10
1.1861937e-08
1.3367447e-10
1.178647e-08
1.3221146e-10
1.1711795e-08
1.3080419e-10
1.163793e-08
1.2939042e-10
1.1564825e-08
1.280377e-10
1.1492505e-08
1.2667016e-10
1.1420916e-08
1.2536976e-10
1.1350087e-08
1.2404561e-10
1.127996e-08
1.2279553e-10
1.1210572e-08
1.2151207e-10
1.1141856e-08
1.2031049e-10
1.107386e-08
1.1906515e-10
1.1006509e-08
1.1791044e-10
1.0939857e-08
1.1670078e-10
1.0873824e-08
1.1559146e-10
1.0808473e-08
1.1441515e-10
1.0743714e-08
1.1334991e-10
1.0679621e-08
1.1220473e-10
1.0616096e-08
1.1118241e-10
1.0553221e-08
1.1006623e-10
1.0490888e-08
1.0908581e-10
1.0429191e-08
1.0799659e-10
1.0368013e-08
1.0705718e-10
1.0307458e-08
1.0599296e-10
1.0247397e-08
1.050938e-10
1.0187949e-08
1.0405273e-10
1.012897e-08
1.0319318e-10
1.0070593e-08
1.0217347e-10
1.0012661e-08
1.0135299e-10
9.9553239e-09
1.0035295e-10
9.8984065e-09
9.9571118e-11
9.8420762e-09
9.8589131e-11
9.7861413e-09
9.7845614e-11
9.7307874e-09
9.6880193e-11
9.6758038e-09
9.617474e-11
9.6213966e-09
9.5224501e-11
9.5673343e-09
9.4556932e-11
9.5138447e-09
9.3620634e-11
9.4606742e-09
9.2990833e-11
9.4080741e-09
9.20674e-11
9.3557667e-09
9.1475287e-11
9.3040285e-09
9.0563854e-11
9.2525557e-09
9.0009371e-11
9.2016523e-09
8.9109328e-11
9.1509862e-09
8.8592408e-11
9.1008909e-09
8.770348e-11
9.0510037e-09
8.7224006e-11
9.0016897e-09
8.6346345e-11
8.9525535e-09
8.590411e-11
8.903994e-09
8.5038419e-11
8.8555808e-09
8.4633055e-11
8.8077487e-09
8.3780781e-11
8.7600299e-09
8.3411674e-11
8.7128972e-09
8.2575229e-11
8.6658432e-09
8.2241414e-11
8.6193808e-09
8.1424522e-11
8.5729607e-09
8.1124517e-11
8.5271375e-09
8.033269e-11
8.4813186e-09
8.0064297e-11
8.4361009e-09
7.9305504e-11
8.3908474e-09
7.9065516e-11
8.3461976e-09
7.835119e-11
8.3014698e-09
7.8135001e-11
8.2573447e-09
7.7481544e-11
8.2130971e-09
7.7282618e-11
8.1694452e-09
7.6713767e-11
8.1256239e-09
7.6522945e-11
8.0823811e-09
7.6073629e-11
8.0389192e-09
7.5878316e-11
7.9960025e-09
7.5601251e-11
7.9528125e-09
7.5384588e-11
7.9101072e-09
7.5362207e-11
7.8670693e-09
7.509919e-11
7.8243911e-09
7.5488345e-11
7.7813698e-09
7.5081838e-11
7.8223139e-11
4.5951904e-08
2.5157891e-09
-4.5879418e-08
4.6264494e-08
3.2755669e-09
4.6598719e-08
3.9416952e-09
4.6849506e-08
4.258242e-09
4.7064385e-08
4.3646755e-09
4.7268871e-08
4.386004e-09
4.7429668e-08
4.3517749e-09
4.7505954e-08
4.2252788e-09
4.7478454e-08
3.9928809e-09
4.735053e-08
3.6854699e-09
4.7142029e-08
3.3555204e-09
4.6876145e-08
3.0508108e-09
4.6570808e-08
2.7957591e-09
4.623612e-08
2.5919824e-09
4.5876468e-08
2.4294141e-09
4.5497402e-08
2.2980496e-09
4.5103495e-08
2.1902225e-09
4.4697491e-08
2.0993569e-09
4.4280967e-08
2.0199894e-09
4.3855085e-08
1.9481145e-09
4.3420978e-08
1.8811311e-09
4.2979856e-08
1.8175351e-09
4.2533013e-08
1.7565428e-09
4.2081796e-08
1.6978249e-09
4.1627566e-08
1.6412857e-09
4.1171641e-08
1.5869347e-09
4.0715261e-08
1.5347926e-09
4.0259572e-08
1.4848852e-09
3.9805609e-08
1.4371837e-09
3.935429e-08
1.3916334e-09
3.8906425e-08
1.3481408e-09
3.8462713e-08
1.3066117e-09
3.8023759e-08
1.2669324e-09
3.759007e-08
1.2290053e-09
3.7162075e-08
1.1927213e-09
3.6740123e-08
1.1579944e-09
3.6324496e-08
1.1247287e-09
3.5915415e-08
1.0928539e-09
3.5513044e-08
1.0622877e-09
3.5117501e-08
1.0329737e-09
3.4728858e-08
1.0048406e-09
3.4347151e-08
9.7784286e-10
3.3972385e-08
9.5191676e-10
3.3604533e-08
9.2702474e-10
3.3243547e-08
9.031081e-10
3.2889356e-08
8.8013523e-10
3.2541877e-08
8.580508e-10
3.2201006e-08
8.3682804e-10
3.1866635e-08
8.1641399e-10
3.1538642e-08
7.9678613e-10
3.1216901e-08
7.7789382e-10
3.0901279e-08
7.5971861e-10
3.0591642e-08
7.422117e-10
3.028785e-08
7.2535857e-10
2.9989768e-08
7.0911228e-10
2.9697254e-08
6.9346225e-10
2.9410173e-08
6.7836305e-10
2.9128385e-08
6.63808e-10
2.8851756e-08
6.4975314e-10
2.8580153e-08
6.3619536e-10
2.8313447e-08
6.2309207e-10
2.8051507e-08
6.1044349e-10
2.7794211e-08
5.9820811e-10
2.7541435e-08
5.863894e-10
2.7293061e-08
5.7494673e-10
2.7048973e-08
5.6388652e-10
2.680906e-08
5.5316884e-10
2.657321e-08
5.4280282e-10
2.6341319e-08
5.3274922e-10
2.6113282e-08
5.2301951e-10
2.5889001e-08
5.1357497e-10
2.5668378e-08
5.0442939e-10
2.5451319e-08
4.9554445e-10
2.5237733e-08
4.8693586e-10
2.5027532e-08
4.7856578e-10
2.482063e-08
4.7045163e-10
2.4616945e-08
4.6255602e-10
2.4416396e-08
4.5489775e-10
2.4218905e-08
4.4744003e-10
2.4024397e-08
4.4020274e-10
2.38328e-08
4.3314978e-10
2.3644043e-08
4.2630177e-10
2.3458057e-08
4.1962348e-10
2.3274776e-08
4.1313597e-10
2.3094136e-08
4.0680503e-10
2.2916075e-08
4.0065178e-10
2.2740532e-08
3.9464336e-10
2.2567449e-08
3.8880045e-10
2.239677e-08
3.8309191e-10
2.2228441e-08
3.7753752e-10
2.2062406e-08
3.721082e-10
2.1898617e-08
3.6682235e-10
2.173702e-08
3.616534e-10
2.1577571e-08
3.5661779e-10
2.1420219e-08
3.5169199e-10
2.1264922e-08
3.4688984e-10
2.1111632e-08
3.4219142e-10
2.0960311e-08
3.3760727e-10
2.0810911e-08
3.3312181e-10
2.06634e-08
3.2874144e-10
2.0517728e-08
3.244557e-10
2.0373868e-08
3.20266e-10
2.0231772e-08
3.1616785e-10
2.0091416e-08
3.1215672e-10
1.9952752e-08
3.08235e-10
1.981576e-08
3.043912e-10
1.9680392e-08
3.0063571e-10
1.9546631e-08
2.9694884e-10
1.941443e-08
2.9335016e-10
1.9283777e-08
2.8981059e-10
1.9154621e-08
2.8636009e-10
1.9026956e-08
2.8295879e-10
1.8900731e-08
2.7964854e-10
1.8775943e-08
2.7637714e-10
1.8652539e-08
2.7319986e-10
1.8530522e-08
2.7005051e-10
1.8409835e-08
2.6699951e-10
1.8290489e-08
2.6396486e-10
1.8172421e-08
2.6103401e-10
1.805565e-08
2.5810716e-10
1.7940108e-08
2.5529085e-10
1.7825821e-08
2.524653e-10
1.7712716e-08
2.4975838e-10
1.7600827e-08
2.4702802e-10
1.7490076e-08
2.4442578e-10
1.7380502e-08
2.417848e-10
1.7272024e-08
2.3928299e-10
1.7164688e-08
2.3672589e-10
1.7058405e-08
2.3432062e-10
1.6953233e-08
2.3184216e-10
1.6849073e-08
2.2952993e-10
1.6745994e-08
2.2712511e-10
1.6643886e-08
2.2490277e-10
1.6542832e-08
2.2256681e-10
1.6442711e-08
2.2043154e-10
1.6343616e-08
2.1815984e-10
1.6245417e-08
2.1610916e-10
1.6148221e-08
2.1389728e-10
1.6051883e-08
2.1192901e-10
1.5956526e-08
2.0977268e-10
1.5861991e-08
2.0788494e-10
1.5768415e-08
2.0577998e-10
1.5675627e-08
2.0397121e-10
1.5583779e-08
2.0191357e-10
1.5492683e-08
2.0018246e-10
1.5402511e-08
1.9816818e-10
1.5313054e-08
1.9651373e-10
1.5224508e-08
1.9453893e-10
1.5136642e-08
1.9296039e-10
1.5049673e-08
1.9102126e-10
1.4963348e-08
1.8951819e-10
1.4877911e-08
1.8761095e-10
1.4793081e-08
1.8618317e-10
1.4709129e-08
1.8430414e-10
1.4625749e-08
1.8295174e-10
1.4543241e-08
1.8109724e-10
1.4461266e-08
1.7982059e-10
1.4380159e-08
1.7798701e-10
1.4299547e-08
1.7678677e-10
1.4219801e-08
1.7497054e-10
1.414051e-08
1.7384764e-10
1.4062086e-08
1.7204527e-10
1.3984075e-08
1.7100091e-10
1.3906934e-08
1.6920898e-10
1.3830164e-08
1.6824467e-10
1.3754268e-08
1.6645988e-10
1.36787e-08
1.655774e-10
1.3604013e-08
1.6379662e-10
1.3529608e-08
1.6299802e-10
1.3456093e-08
1.6121837e-10
1.3382811e-08
1.6050597e-10
1.3310432e-08
1.5872492e-10
1.3238235e-08
1.5810128e-10
1.3166957e-08
1.5631677e-10
1.3095805e-08
1.5578468e-10
1.302559e-08
1.539954e-10
1.2955444e-08
1.5355779e-10
1.2886256e-08
1.517634e-10
1.2817074e-08
1.5142333e-10
1.2748874e-08
1.4962494e-10
1.2680613e-08
1.4938543e-10
1.2613359e-08
1.4758621e-10
1.2545973e-08
1.474501e-10
1.2479623e-08
1.4565621e-10
1.2413062e-08
1.4562592e-10
1.2347566e-08
1.4384787e-10
1.2281776e-08
1.4392508e-10
1.2217077e-08
1.4217987e-10
1.2151995e-08
1.4236503e-10
1.2088029e-08
1.4067962e-10
1.2023581e-08
1.4097131e-10
1.1960266e-08
1.3938836e-10
1.1896362e-08
1.3978242e-10
1.1833592e-08
1.3837098e-10
1.1770118e-08
1.3885823e-10
1.1707743e-08
1.3773718e-10
1.1644559e-08
1.3828404e-10
1.158231e-08
1.3773678e-10
1.1519297e-08
1.3809499e-10
1.4151652e-10
4.7969544e-08
2.4583614e-09
-4.7912116e-08
4.8196265e-08
3.0488461e-09
4.8513221e-08
3.6247392e-09
4.8794991e-08
3.9764719e-09
4.903868e-08
4.1209863e-09
4.927579e-08
4.1488943e-09
4.9505589e-08
4.1219753e-09
4.9700503e-08
4.0303654e-09
4.983494e-08
3.8584438e-09
4.9899364e-08
3.6210451e-09
4.9901717e-08
3.3531681e-09
4.9858592e-08
3.093935e-09
4.9784255e-08
2.8700964e-09
4.968705e-08
2.6891876e-09
4.9570663e-08
2.5458007e-09
4.9437977e-08
2.4307357e-09
4.929164e-08
2.3365599e-09
4.9133275e-08
2.2577219e-09
4.8963473e-08
2.1897916e-09
4.8782263e-08
2.1293246e-09
4.8589542e-08
2.0738522e-09
4.8385285e-08
2.0217917e-09
4.8169625e-08
1.9722029e-09
4.7942857e-08
1.9245932e-09
4.7705424e-08
1.8787189e-09
4.7457872e-08
1.8344867e-09
4.7200817e-08
1.7918468e-09
4.6934924e-08
1.750779e-09
4.6660873e-08
1.7112339e-09
4.637935e-08
1.6731562e-09
4.6091034e-08
1.6364575e-09
4.5796587e-08
1.6010586e-09
4.5496659e-08
1.5668606e-09
4.5191876e-08
1.5337878e-09
4.4882847e-08
1.5017508e-09
4.4570152e-08
1.4706893e-09
4.4254351e-08
1.4405297e-09
4.3935975e-08
1.4112294e-09
4.3615533e-08
1.3827303e-09
4.3293501e-08
1.3550052e-09
4.2970334e-08
1.3280078e-09
4.2646454e-08
1.3017226e-09
4.232226e-08
1.2761111e-09
4.1998119e-08
1.2511657e-09
4.1674375e-08
1.2268523e-09
4.1351341e-08
1.2031686e-09
4.102931e-08
1.1800823e-09
4.0708544e-08
1.1575943e-09
4.0389284e-08
1.1356731e-09
4.0071749e-08
1.1143217e-09
3.9756134e-08
1.0935087e-09
3.9442614e-08
1.0732388e-09
3.9131346e-08
1.0534799e-09
3.8822466e-08
1.0342383e-09
3.8516097e-08
1.0154814e-09
3.8212342e-08
9.9721683e-10
3.7911294e-08
9.7941117e-10
3.7613028e-08
9.6207356e-10
3.7317612e-08
9.4517001e-10
3.7025096e-08
9.2871089e-10
3.6735526e-08
9.1266179e-10
3.6448936e-08
8.9703423e-10
3.616535e-08
8.8179333e-10
3.5884788e-08
8.6695192e-10
3.560726e-08
8.5247472e-10
3.5332771e-08
8.3837576e-10
3.506132e-08
8.2461945e-10
3.4792902e-08
8.1122081e-10
3.4527507e-08
7.981444e-10
3.426512e-08
7.8540591e-10
3.4005725e-08
7.7297006e-10
3.3749301e-08
7.6085337e-10
3.3495825e-08
7.490209e-10
3.3245271e-08
7.3748954e-10
3.2997612e-08
7.2622503e-10
3.2752819e-08
7.1524447e-10
3.2510861e-08
7.0451459e-10
3.2271706e-08
6.9405218e-10
3.2035321e-08
6.8382538e-10
3.1801673e-08
6.7385039e-10
3.1570726e-08
6.640971e-10
3.1342447e-08
6.5458059e-10
3.1116797e-08
6.4527299e-10
3.0893746e-08
6.3618782e-10
3.0673251e-08
6.272999e-10
3.0455282e-08
6.1862055e-10
3.0239797e-08
6.1012798e-10
3.0026767e-08
6.0183056e-10
2.9816149e-08
5.9371058e-10
2.9607913e-08
5.8577271e-10
2.9402018e-08
5.7800406e-10
2.9198435e-08
5.7040477e-10
2.8997121e-08
5.6296764e-10
2.8798051e-08
5.5568729e-10
2.860118e-08
5.4856321e-10
2.8406487e-08
5.4158342e-10
2.8213923e-08
5.3475519e-10
2.8023471e-08
5.2805869e-10
2.7835083e-08
5.2151028e-10
2.7648743e-08
5.1508094e-10
2.7464402e-08
5.0879743e-10
2.7282048e-08
5.0262007e-10
2.7101628e-08
4.965876e-10
2.6923137e-08
4.90648e-10
2.6746518e-08
4.8485365e-10
2.6571771e-08
4.7913842e-10
2.6398836e-08
4.7357023e-10
2.6227718e-08
4.6806677e-10
2.6058355e-08
4.6271362e-10
2.5890755e-08
4.574101e-10
2.5724854e-08
4.5226167e-10
2.5560666e-08
4.4714689e-10
2.539812e-08
4.4219361e-10
2.5237241e-08
4.3725701e-10
2.507795e-08
4.3249007e-10
2.4920279e-08
4.2772163e-10
2.4764146e-08
4.2313285e-10
2.4609588e-08
4.1852308e-10
2.4456517e-08
4.1410497e-10
2.4304979e-08
4.0964485e-10
2.4154879e-08
4.0539048e-10
2.4006273e-08
4.0107141e-10
2.3859057e-08
3.9697445e-10
2.3713297e-08
3.9278824e-10
2.356888e-08
3.888429e-10
2.3425883e-08
3.8478167e-10
2.3284183e-08
3.809827e-10
2.314387e-08
3.7703891e-10
2.3004809e-08
3.7338157e-10
2.2867104e-08
3.6954794e-10
2.2730606e-08
3.6602797e-10
2.2595433e-08
3.6229746e-10
2.2461425e-08
3.5891109e-10
2.2328715e-08
3.5527687e-10
2.2197126e-08
3.5202079e-10
2.2066809e-08
3.4847622e-10
2.1937571e-08
3.4534756e-10
2.1809582e-08
3.4188615e-10
2.1682628e-08
3.3888251e-10
2.1556903e-08
3.3549787e-10
2.1432171e-08
3.326173e-10
2.1308648e-08
3.2930314e-10
2.1186075e-08
3.2654412e-10
2.1064694e-08
3.2329422e-10
2.0944221e-08
3.2065569e-10
2.0824925e-08
3.1746387e-10
2.0706494e-08
3.1494522e-10
2.0589227e-08
3.1180529e-10
2.0472781e-08
3.0940637e-10
2.035749e-08
3.0631217e-10
2.0242975e-08
3.0403329e-10
2.0129608e-08
3.0097858e-10
2.001697e-08
2.9882055e-10
1.9905475e-08
2.9579909e-10
1.9794664e-08
2.9376321e-10
1.9684993e-08
2.9076863e-10
1.9575956e-08
2.8885672e-10
1.9468061e-08
2.8588262e-10
1.936075e-08
2.8409705e-10
1.9254584e-08
2.8113689e-10
1.9148951e-08
2.794806e-10
1.9044469e-08
2.7652774e-10
1.8940465e-08
2.7500428e-10
1.8837622e-08
2.7205201e-10
1.8735201e-08
2.7066552e-10
1.8633954e-08
2.6770705e-10
1.8533069e-08
2.6646238e-10
1.8433375e-08
2.6349087e-10
1.833398e-08
2.6239353e-10
1.8235796e-08
2.5940218e-10
1.8137843e-08
2.5845844e-10
1.8041128e-08
2.5544059e-10
1.7944571e-08
2.5465745e-10
1.7849281e-08
2.5160671e-10
1.7754074e-08
2.5099198e-10
1.7660167e-08
2.479025e-10
1.756626e-08
2.4746476e-10
1.7473692e-08
2.4433158e-10
1.7381035e-08
2.4408019e-10
1.728976e-08
2.4089976e-10
1.7198301e-08
2.408448e-10
1.7108271e-08
2.3761579e-10
1.7017953e-08
2.3776794e-10
1.6929117e-08
2.3449245e-10
1.683988e-08
2.3486279e-10
1.675218e-08
2.3154824e-10
1.6663957e-08
2.3214786e-10
1.6577327e-08
2.2880999e-10
1.6490043e-08
2.2964936e-10
1.6404405e-08
2.263173e-10
1.6317971e-08
2.2740503e-10
1.6233229e-08
2.2413032e-10
1.6147541e-08
2.2547046e-10
1.6063567e-08
2.2234532e-10
1.5978497e-08
2.2392796e-10
1.5895102e-08
2.2113196e-10
1.5810508e-08
2.2287846e-10
1.5727343e-08
2.2090161e-10
1.5643105e-08
2.2233333e-10
2.2549458e-10
5.0054173e-08
2.3981059e-09
-4.9993917e-08
5.0228562e-08
2.874457e-09
5.0500873e-08
3.3524283e-09
5.0776169e-08
3.7011756e-09
5.102031e-08
3.8768456e-09
5.1245249e-08
3.9239553e-09
5.1464398e-08
3.9028257e-09
5.166575e-08
3.8290141e-09
5.1828687e-08
3.6955065e-09
5.1941272e-08
3.5084602e-09
5.2005205e-08
3.2892348e-09
5.2032064e-08
3.067076e-09
5.2034889e-08
2.8672714e-09
5.2022182e-08
2.7018946e-09
5.1998304e-08
2.5696792e-09
5.1965471e-08
2.4635686e-09
5.1925405e-08
2.3766258e-09
5.1879329e-08
2.3037977e-09
5.1827727e-08
2.2413937e-09
5.1770465e-08
2.1865864e-09
5.1707095e-08
2.1372223e-09
5.1637095e-08
2.091792e-09
5.1560003e-08
2.0492952e-09
5.1475465e-08
2.0091313e-09
5.1383246e-08
1.9709373e-09
5.1283213e-08
1.9345197e-09
5.1175315e-08
1.8997451e-09
5.1059565e-08
1.8665293e-09
5.0936025e-08
1.8347735e-09
5.0804791e-08
1.8043906e-09
5.0665985e-08
1.7752634e-09
5.0519751e-08
1.747292e-09
5.0366256e-08
1.7203558e-09
5.0205681e-08
1.6943629e-09
5.0038226e-08
1.6692055e-09
4.9864105e-08
1.6448104e-09
4.9683546e-08
1.6210885e-09
4.9496789e-08
1.5979869e-09
4.9304085e-08
1.5754347e-09
4.9105692e-08
1.5533975e-09
4.8901881e-08
1.5318194e-09
4.8692922e-08
1.510681e-09
4.8479096e-08
1.4899376e-09
4.8260681e-08
1.4695808e-09
4.803796e-08
1.4495735e-09
4.7811213e-08
1.4299156e-09
4.758072e-08
1.4105748e-09
4.7346758e-08
1.3915567e-09