/*--------------------------------*- C++ -*----------------------------------*\
| =========                 |                                                 |
| \\      /  F ield         | OpenFOAM: The Open Source CFD Toolbox           |
|  \\    /   O peration     | Version:  5.x                                   |
|   \\  /    A nd           | Web:      www.OpenFOAM.org                      |
|    \\/     M anipulation  |                                                 |
\*---------------------------------------------------------------------------*/
FoamFile
{
    version     2.0;
    format      ascii;
    class       volVectorField;
    location    "1";
    object      U;
}
// * * * * * * * * * * * * * * * * * * * * * * * * * * * * * * * * * * * * * //

dimensions      [0 1 -1 0 0 0 0];

internalField   nonuniform List<vector> 
21600
(
(0.44561618 0.0096597002 0)
(0.40260252 0.01313771 0)
(0.36167657 0.013390364 0)
(0.32011012 0.012309397 0)
(0.27850786 0.011030068 0)
(0.23875888 0.0096293119 0)
(0.20300299 0.0079010878 0)
(0.17303249 0.0058438043 0)
(0.14933271 0.0036686801 0)
(0.13152838 0.0018308441 0)
(0.11856044 0.00060918565 0)
(0.10924708 -4.4735216e-05 0)
(0.10257137 -0.00031939941 0)
(0.097691044 -0.0003697843 0)
(0.093974377 -0.00030772746 0)
(0.090953985 -0.00019937588 0)
(0.088320376 -8.7020288e-05 0)
(0.085894954 5.8681026e-06 0)
(0.083590846 7.1861475e-05 0)
(0.081377037 0.00011290631 0)
(0.079250604 0.00013455535 0)
(0.077218362 0.0001428076 0)
(0.075287601 0.00014272261 0)
(0.073462096 0.00013801857 0)
(0.071741635 0.00013114311 0)
(0.070122446 0.00012355109 0)
(0.068598616 0.00011601713 0)
(0.067162845 0.00010892169 0)
(0.065807586 0.00010240157 0)
(0.064525342 9.6473513e-05 0)
(0.063309329 9.1093768e-05 0)
(0.062153282 8.6206162e-05 0)
(0.061051848 8.1746156e-05 0)
(0.060000168 7.7660696e-05 0)
(0.0589942 7.3897184e-05 0)
(0.058030225 7.0417745e-05 0)
(0.057105205 6.7184007e-05 0)
(0.056216244 6.4171303e-05 0)
(0.055361019 6.1351951e-05 0)
(0.054537202 5.87107e-05 0)
(0.053742967 5.6226946e-05 0)
(0.05297638 5.3891648e-05 0)
(0.052235972 5.1688483e-05 0)
(0.051520085 4.9612294e-05 0)
(0.05082752 4.7649139e-05 0)
(0.050156823 4.5796285e-05 0)
(0.049507011 4.4041049e-05 0)
(0.04887679 4.2382321e-05 0)
(0.048265355 4.0808099e-05 0)
(0.047671539 3.9318614e-05 0)
(0.047094693 3.7902382e-05 0)
(0.046533753 3.6560743e-05 0)
(0.045988205 3.5282497e-05 0)
(0.045457069 3.4070042e-05 0)
(0.044939952 3.2912439e-05 0)
(0.044435938 3.18131e-05 0)
(0.043944744 3.0761269e-05 0)
(0.0434655 2.9761308e-05 0)
(0.042998024 2.8802555e-05 0)
(0.042541481 2.7890252e-05 0)
(0.042095778 2.7013749e-05 0)
(0.041660105 2.6179098e-05 0)
(0.041234452 2.5375583e-05 0)
(0.040818023 2.4610005e-05 0)
(0.040410886 2.3871519e-05 0)
(0.040012248 2.3167624e-05 0)
(0.039622256 2.248729e-05 0)
(0.03924011 2.1838669e-05 0)
(0.038866032 2.1210507e-05 0)
(0.038499209 2.0611577e-05 0)
(0.038139937 2.0030365e-05 0)
(0.037787382 1.9476241e-05 0)
(0.037441917 1.8937406e-05 0)
(0.037102677 1.8423793e-05 0)
(0.036770113 1.7923297e-05 0)
(0.036443322 1.7446402e-05 0)
(0.036122835 1.6980683e-05 0)
(0.035807707 1.6537152e-05 0)
(0.03549855 1.6103054e-05 0)
(0.035194366 1.5689912e-05 0)
(0.034895855 1.5284632e-05 0)
(0.03460196 1.4899231e-05 0)
(0.03431347 1.4520272e-05 0)
(0.034029261 1.4160251e-05 0)
(0.03375022 1.3805384e-05 0)
(0.033475145 1.3468628e-05 0)
(0.033205027 1.3135856e-05 0)
(0.032938577 1.2820471e-05 0)
(0.032676899 1.2508001e-05 0)
(0.032418605 1.2212283e-05 0)
(0.032164919 1.1918502e-05 0)
(0.031914347 1.1640913e-05 0)
(0.031668243 1.1364368e-05 0)
(0.03142499 1.1103521e-05 0)
(0.031186086 1.0842896e-05 0)
(0.03094978 1.0597536e-05 0)
(0.030717724 1.035164e-05 0)
(0.030488018 1.0120628e-05 0)
(0.030262482 9.8883791e-06 0)
(0.030039052 9.6706795e-06 0)
(0.029819732 9.4510954e-06 0)
(0.029602277 9.245766e-06 0)
(0.029388891 9.0379503e-06 0)
(0.029177128 8.844132e-06 0)
(0.028969413 8.6472663e-06 0)
(0.028763077 8.4641745e-06 0)
(0.028560789 8.2775101e-06 0)
(0.028359631 8.1044274e-06 0)
(0.02816254 7.9272779e-06 0)
(0.027966327 7.7635473e-06 0)
(0.027774221 7.5952821e-06 0)
(0.027582731 7.4403015e-06 0)
(0.027395413 7.2803402e-06 0)
(0.027208438 7.1335571e-06 0)
(0.027025721 6.9813642e-06 0)
(0.026843063 6.8422716e-06 0)
(0.026664775 6.697352e-06 0)
(0.026486246 6.5654841e-06 0)
(0.026312225 6.4273789e-06 0)
(0.026137647 6.302308e-06 0)
(0.025967744 6.1705909e-06 0)
(0.025796946 6.0519242e-06 0)
(0.025631019 5.9261977e-06 0)
(0.025463838 5.8135747e-06 0)
(0.025301759 5.6934675e-06 0)
(0.025138036 5.5865579e-06 0)
(0.024979684 5.4717213e-06 0)
(0.02481927 5.3702228e-06 0)
(0.024664532 5.260329e-06 0)
(0.02450728 5.1639658e-06 0)
(0.024356054 5.0587044e-06 0)
(0.024201821 4.9672257e-06 0)
(0.024054013 4.8663022e-06 0)
(0.023902661 4.7794814e-06 0)
(0.023758184 4.6826141e-06 0)
(0.023609578 4.6002477e-06 0)
(0.023468353 4.5071662e-06 0)
(0.023322359 4.4290731e-06 0)
(0.023184318 4.3395159e-06 0)
(0.023040803 4.2655371e-06 0)
(0.022905882 4.1792495e-06 0)
(0.022764717 4.1092481e-06 0)
(0.022632863 4.0259798e-06 0)
(0.022493915 3.9598409e-06 0)
(0.022365082 3.8793444e-06 0)
(0.02222822 3.8169757e-06 0)
(0.022102371 3.7390032e-06 0)
(0.021967461 3.6803359e-06 0)
(0.021844568 3.6046375e-06 0)
(0.021711475 3.5496269e-06 0)
(0.021591517 3.4759478e-06 0)
(0.021460104 3.4245749e-06 0)
(0.021343071 3.3526525e-06 0)
(0.021213193 3.3049263e-06 0)
(0.021099087 3.2344867e-06 0)
(0.020970595 3.1904464e-06 0)
(0.020859425 3.1212012e-06 0)
(0.020732165 3.0809189e-06 0)
(0.020623955 3.0125616e-06 0)
(0.020497764 2.9761459e-06 0)
(0.020392546 2.9083462e-06 0)
(0.020267253 2.8759479e-06 0)
(0.020165076 2.8083466e-06 0)
(0.020040496 2.7801634e-06 0)
(0.019941423 2.712366e-06 0)
(0.019817361 2.6886498e-06 0)
(0.019721469 2.6202193e-06 0)
(0.019597714 2.6012848e-06 0)
(0.019505098 2.5317318e-06 0)
(0.019381423 2.5179683e-06 0)
(0.019292198 2.4467388e-06 0)
(0.019168352 2.438623e-06 0)
(0.019082654 2.3650874e-06 0)
(0.018958365 2.3632001e-06 0)
(0.018876354 2.2866319e-06 0)
(0.018751322 2.2916836e-06 0)
(0.018673184 2.2112399e-06 0)
(0.018547075 2.2240952e-06 0)
(0.018473027 2.1387882e-06 0)
(0.018345469 2.1605081e-06 0)
(0.01827576 2.0691656e-06 0)
(0.018146336 2.101058e-06 0)
(0.018081255 2.0022755e-06 0)
(0.017949493 2.0459677e-06 0)
(0.017889369 1.938037e-06 0)
(0.017754734 1.9955802e-06 0)
(0.017699947 1.8763897e-06 0)
(0.017561819 1.9504153e-06 0)
(0.017512807 1.8172981e-06 0)
(0.017370466 1.9112664e-06 0)
(0.017327733 1.7607565e-06 0)
(0.017180323 1.8793833e-06 0)
(0.017144457 1.7067801e-06 0)
(0.016990932 1.856847e-06 0)
(0.016962636 1.6553099e-06 0)
(0.016801645 1.8474553e-06 0)
(0.016781844 1.6055824e-06 0)
(0.016611404 1.8595785e-06 0)
(0.016601779 1.5542334e-06 0)
(0.01641669 2.0652046e-06 0)
(0.47652913 0.016892605 0)
(0.47441702 0.023596201 0)
(0.47062322 0.025575282 0)
(0.46346316 0.02528424 0)
(0.45233596 0.024408258 0)
(0.4378427 0.023243367 0)
(0.42107055 0.02151821 0)
(0.40325326 0.01907886 0)
(0.38516786 0.016048253 0)
(0.36746514 0.012847928 0)
(0.35053826 0.0099292558 0)
(0.33460991 0.0075389833 0)
(0.31987931 0.0057131984 0)
(0.30641367 0.0043747455 0)
(0.29423725 0.003441199 0)
(0.28326417 0.002819966 0)
(0.2733546 0.0024157606 0)
(0.2643609 0.0021468334 0)
(0.25614972 0.0019550579 0)
(0.2486086 0.0018047133 0)
(0.24164673 0.0016761574 0)
(0.23519116 0.0015597766 0)
(0.22918336 0.0014516161 0)
(0.22357474 0.0013505926 0)
(0.21832461 0.0012567716 0)
(0.21339729 0.0011704578 0)
(0.20876191 0.0010917325 0)
(0.20439053 0.0010204038 0)
(0.20025872 0.00095599765 0)
(0.1963442 0.00089789089 0)
(0.19262772 0.0008453789 0)
(0.1890917 0.00079778837 0)
(0.18572115 0.00075447879 0)
(0.18250226 0.00071490361 0)
(0.17942342 0.00067857087 0)
(0.17647371 0.00064508568 0)
(0.17364409 0.00061409468 0)
(0.17092579 0.00058532644 0)
(0.16831168 0.00055853009 0)
(0.16579455 0.0005335204 0)
(0.16336871 0.00051011431 0)
(0.1610281 0.00048818269 0)
(0.15876811 0.00046758514 0)
(0.15658354 0.00044822849 0)
(0.15447064 0.00042999913 0)
(0.15242487 0.00041282772 0)
(0.15044317 0.00039661811 0)
(0.14852151 0.00038131786 0)
(0.14665741 0.00036684291 0)
(0.14484726 0.00035315374 0)
(0.14308907 0.00034017566 0)
(0.14137955 0.00032787989 0)
(0.13971714 0.00031619892 0)
(0.13809881 0.00030511304 0)
(0.13652337 0.00029456054 0)
(0.13498798 0.00028452956 0)
(0.13349181 0.00027496303 0)
(0.13203217 0.00026585589 0)
(0.13060851 0.00025715468 0)
(0.12921825 0.00024886023 0)
(0.12786115 0.00024092188 0)
(0.12653466 0.00023334558 0)
(0.12523882 0.00022608267 0)
(0.12397112 0.00021914361 0)
(0.12273184 0.00021248119 0)
(0.12151848 0.0002061098 0)
(0.12033155 0.00019998322 0)
(0.11916854 0.00019411935 0)
(0.1180302 0.00018847255 0)
(0.11691396 0.0001830639 0)
(0.11582081 0.00017784802 0)
(0.11474811 0.00017284892 0)
(0.11369709 0.00016802128 0)
(0.11266502 0.00016339171 0)
(0.11165336 0.00015891481 0)
(0.11065926 0.00015461957 0)
(0.10968444 0.00015046035 0)
(0.10872592 0.00014646835 0)
(0.10778565 0.00014259759 0)
(0.10686049 0.00013888131 0)
(0.10595268 0.00013527311 0)
(0.10505889 0.00013180809 0)
(0.10418163 0.00012843941 0)
(0.10331737 0.00012520387 0)
(0.10246891 0.00012205418 0)
(0.10163248 0.00011902868 0)
(0.10081122 0.00011607962 0)
(0.10000107 0.00011324674 0)
(0.099205522 0.00011048184 0)
(0.098420212 0.00010782594 0)
(0.097649022 0.00010523043 0)
(0.096887232 0.00010273743 0)
(0.096139136 0.00010029799 0)
(0.095399637 9.7955185e-05 0)
(0.094673473 9.5659807e-05 0)
(0.093955125 9.3455723e-05 0)
(0.093249815 9.1293537e-05 0)
(0.092551559 8.9217769e-05 0)
(0.091866105 8.7178927e-05 0)
(0.091186952 8.5222027e-05 0)
(0.090520426 8.3297588e-05 0)
(0.089859456 8.1450963e-05 0)
(0.089210996 7.9632793e-05 0)
(0.088567345 7.788861e-05 0)
(0.08793615 7.6169299e-05 0)
(0.087309011 7.4520405e-05 0)
(0.086694334 7.2893187e-05 0)
(0.086082947 7.1333042e-05 0)
(0.085484093 6.979173e-05 0)
(0.084887744 6.831434e-05 0)
(0.084304063 6.685327e-05 0)
(0.08372208 6.5453135e-05 0)
(0.083152968 6.4067108e-05 0)
(0.082584713 6.2739174e-05 0)
(0.082029606 6.1423418e-05 0)
(0.081474477 6.0163035e-05 0)
(0.080932849 5.8913154e-05 0)
(0.080390273 5.7716036e-05 0)
(0.079861632 5.6527982e-05 0)
(0.079331065 5.5390175e-05 0)
(0.078814955 5.4260211e-05 0)
(0.078295876 5.3178064e-05 0)
(0.077791871 5.2102735e-05 0)
(0.077283782 5.1072872e-05 0)
(0.076791488 5.0048978e-05 0)
(0.07629391 4.9068276e-05 0)
(0.075812959 4.8092849e-05 0)
(0.075325432 4.7158417e-05 0)
(0.074855486 4.6228701e-05 0)
(0.074377564 4.5337861e-05 0)
(0.07391831 4.4451288e-05 0)
(0.073449561 4.360156e-05 0)
(0.073000711 4.2755735e-05 0)
(0.072540713 4.1944822e-05 0)
(0.072102007 4.1137507e-05 0)
(0.071650347 4.0363282e-05 0)
(0.071221548 3.9592379e-05 0)
(0.07077782 3.8852877e-05 0)
(0.070358717 3.8116412e-05 0)
(0.069922519 3.7409817e-05 0)
(0.069512923 3.6705932e-05 0)
(0.069083858 3.6030571e-05 0)
(0.068683607 3.5357506e-05 0)
(0.068261275 3.4711844e-05 0)
(0.067870233 3.4067925e-05 0)
(0.067454233 3.345056e-05 0)
(0.067072288 3.2834191e-05 0)
(0.066662216 3.2243848e-05 0)
(0.066289283 3.1653495e-05 0)
(0.065884727 3.1089026e-05 0)
(0.065520749 3.052321e-05 0)
(0.065121287 2.9983594e-05 0)
(0.064766236 2.9440872e-05 0)
(0.064371435 2.892522e-05 0)
(0.064025314 2.8404177e-05 0)
(0.063634722 2.7911728e-05 0)
(0.063297567 2.7410965e-05 0)
(0.062910715 2.6941098e-05 0)
(0.062582595 2.6459214e-05 0)
(0.062198991 2.6011455e-05 0)
(0.061880014 2.5547033e-05 0)
(0.061499135 2.5121067e-05 0)
(0.06118945 2.4672654e-05 0)
(0.060810743 2.426834e-05 0)
(0.060510543 2.3834429e-05 0)
(0.060133414 2.3451824e-05 0)
(0.059842941 2.3030828e-05 0)
(0.059466753 2.2670206e-05 0)
(0.059186301 2.2260434e-05 0)
(0.058810363 2.192233e-05 0)
(0.058540288 2.1521943e-05 0)
(0.058163848 2.1207193e-05 0)
(0.057904568 2.0814175e-05 0)
(0.057526804 2.052397e-05 0)
(0.057278813 2.0136065e-05 0)
(0.056898818 1.9872037e-05 0)
(0.05666269 1.9486689e-05 0)
(0.056279463 1.9251e-05 0)
(0.056055865 1.8865273e-05 0)
(0.055668288 1.8660758e-05 0)
(0.055457989 1.8271219e-05 0)
(0.055064812 1.8101569e-05 0)
(0.0548687 1.7704149e-05 0)
(0.054468511 1.757417e-05 0)
(0.054287607 1.7163961e-05 0)
(0.053878802 1.7079949e-05 0)
(0.053714279 1.6650931e-05 0)
(0.053295019 1.6621235e-05 0)
(0.053148228 1.6165868e-05 0)
(0.052716377 1.6201768e-05 0)
(0.052588877 1.5710381e-05 0)
(0.052141916 1.5827557e-05 0)
(0.052035526 1.5287362e-05 0)
(0.051570398 1.5508498e-05 0)
(0.051487291 1.4901813e-05 0)
(0.051000106 1.5261523e-05 0)
(0.050943073 1.4562141e-05 0)
(0.050428323 1.5117822e-05 0)
(0.05040189 1.4293564e-05 0)
(0.049848956 1.5834223e-05 0)
(0.47978939 0.015745949 0)
(0.48110662 0.02148488 0)
(0.48390772 0.024576118 0)
(0.48658097 0.025587369 0)
(0.4878442 0.025703662 0)
(0.48726275 0.025403431 0)
(0.48488062 0.024570466 0)
(0.48091013 0.023003049 0)
(0.47553718 0.020778917 0)
(0.46896347 0.018211054 0)
(0.46144538 0.015688316 0)
(0.45323573 0.013478533 0)
(0.44463609 0.011674721 0)
(0.43588171 0.01023545 0)
(0.42718054 0.0090977325 0)
(0.41863271 0.0081939509 0)
(0.41027874 0.0074612181 0)
(0.40213209 0.0068480054 0)
(0.39419667 0.0063173992 0)
(0.38647314 0.0058457767 0)
(0.37896296 0.0054190405 0)
(0.37166822 0.005029097 0)
(0.36459239 0.0046713188 0)
(0.35773809 0.0043429928 0)
(0.35110757 0.0040422783 0)
(0.34470069 0.0037676539 0)
(0.33851633 0.0035175713 0)
(0.33255072 0.0032903268 0)
(0.32679936 0.003084012 0)
(0.32125561 0.0028966698 0)
(0.31591281 0.002726333 0)
(0.31076268 0.0025711707 0)
(0.30579761 0.0024294639 0)
(0.30100871 0.0022997008 0)
(0.29638827 0.002180504 0)
(0.29192748 0.0020707046 0)
(0.28761906 0.0019692457 0)
(0.28345465 0.0018752543 0)
(0.27942769 0.0017879331 0)
(0.27553045 0.0017066383 0)
(0.27175718 0.0016307651 0)
(0.26810083 0.0015598364 0)
(0.26455648 0.0014933841 0)
(0.26111768 0.0014310491 0)
(0.2577803 0.0013724588 0)
(0.25453846 0.0013173383 0)
(0.25138874 0.0012653828 0)
(0.24832573 0.0012163792 0)
(0.24534665 0.0011700719 0)
(0.24244648 0.0011262948 0)
(0.23962303 0.0010848296 0)
(0.23687159 0.0010455473 0)
(0.2341905 0.0010082584 0)
(0.23157528 0.00097286404 0)
(0.22902478 0.0009391976 0)
(0.22653468 0.00090718487 0)
(0.22410427 0.00087667739 0)
(0.22172939 0.00084762148 0)
(0.21940973 0.00081988294 0)
(0.2171412 0.00079342531 0)
(0.21492392 0.00076812562 0)
(0.21275381 0.00074396193 0)
(0.21063137 0.00072082009 0)
(0.20855253 0.00069869046 0)
(0.20651817 0.00067746583 0)
(0.20452416 0.00065714709 0)
(0.20257176 0.00063763241 0)
(0.20065674 0.00061893177 0)
(0.19878077 0.00060094759 0)
(0.19693946 0.00058369772 0)
(0.19513489 0.00056708784 0)
(0.1933625 0.00055114273 0)
(0.19162474 0.00053577069 0)
(0.18991689 0.00052100255 0)
(0.1882418 0.00050674863 0)
(0.18659449 0.00049304511 0)
(0.18497826 0.00047980392 0)
(0.18338784 0.00046706591 0)
(0.18182697 0.00045474432 0)
(0.18029008 0.00044288409 0)
(0.17878139 0.00043139958 0)
(0.17729495 0.00042033923 0)
(0.1758355 0.00040961842 0)
(0.17439668 0.00039928859 0)
(0.17298375 0.00038926607 0)
(0.17158993 0.00037960479 0)
(0.17022104 0.00037022208 0)
(0.16886979 0.00036117388 0)
(0.16754265 0.00035237859 0)
(0.16623173 0.00034389364 0)
(0.16494419 0.00033563868 0)
(0.16367153 0.00032767213 0)
(0.16242163 0.0003199151 0)
(0.16118529 0.0003124265 0)
(0.15997118 0.00030512915 0)
(0.15876937 0.00029808192 0)
(0.15758937 0.00029120965 0)
(0.15642039 0.00028457065 0)
(0.15527292 0.0002780921 0)
(0.15413522 0.00027183121 0)
(0.15301879 0.00026571791 0)
(0.15191089 0.00025980774 0)
(0.15082415 0.0002540338 0)
(0.14974468 0.00024844937 0)
(0.14868634 0.00024299121 0)
(0.147634 0.00023770971 0)
(0.14660288 0.0002325458 0)
(0.14557645 0.00022754634 0)
(0.14457142 0.00022265701 0)
(0.14356976 0.00021792046 0)
(0.1425898 0.00021328769 0)
(0.14161182 0.00020879649 0)
(0.14065594 0.00020440376 0)
(0.13970061 0.00020014174 0)
(0.13876792 0.00019597391 0)
(0.13783426 0.00019192617 0)
(0.13692391 0.00018796931 0)
(0.13601099 0.00018412213 0)
(0.13512219 0.0001803634 0)
(0.13422912 0.00017670408 0)
(0.13336113 0.00017313168 0)
(0.13248708 0.00016964849 0)
(0.13163922 0.00016625151 0)
(0.13078336 0.00016293356 0)
(0.12995499 0.00015970194 0)
(0.12911655 0.00015653912 0)
(0.12830708 0.00015346355 0)
(0.12748529 0.00015044651 0)
(0.12669417 0.00014751836 0)
(0.1258883 0.00014463837 0)
(0.12511504 0.00014184966 0)
(0.12432438 0.0001390986 0)
(0.12356851 0.00013644193 0)
(0.12279237 0.00013381223 0)
(0.12205346 0.00013128071 0)
(0.12129116 0.00012876532 0)
(0.12056884 0.00012635256 0)
(0.11981971 0.0001239449 0)
(0.11911364 0.00012164494 0)
(0.118377 0.00011933887 0)
(0.11768688 0.00011714615 0)
(0.11696208 0.00011493593 0)
(0.11628766 0.00011284528 0)
(0.11557403 0.00011072555 0)
(0.11491509 0.00010873212 0)
(0.11421197 0.00010669788 0)
(0.11356833 0.00010479714 0)
(0.11287505 0.00010284372 0)
(0.11224659 0.00010103141 0)
(0.11156245 9.9154473e-05 0)
(0.11094909 9.7426583e-05 0)
(0.11027339 9.5622108e-05 0)
(0.1096751 9.3974857e-05 0)
(0.10900711 9.2239114e-05 0)
(0.1084239 9.0668917e-05 0)
(0.10776287 8.8998479e-05 0)
(0.10719482 8.7501926e-05 0)
(0.10653996 8.5893661e-05 0)
(0.1059872 8.446749e-05 0)
(0.10533768 8.2918572e-05 0)
(0.10480041 8.1559637e-05 0)
(0.10415535 8.0067554e-05 0)
(0.10363384 7.8772798e-05 0)
(0.10299232 7.7335374e-05 0)
(0.1024869 7.6101796e-05 0)
(0.10184791 7.4717216e-05 0)
(0.10135901 7.3541837e-05 0)
(0.10072149 7.2208682e-05 0)
(0.10024962 7.1088502e-05 0)
(0.09961241 6.9805812e-05 0)
(0.099158177 6.873775e-05 0)
(0.098520012 6.7505093e-05 0)
(0.098084147 6.6485947e-05 0)
(0.097443645 6.53035e-05 0)
(0.097026996 6.4329856e-05 0)
(0.096382637 6.3198569e-05 0)
(0.095986192 6.2266713e-05 0)
(0.095336297 6.1188451e-05 0)
(0.094961199 6.0294262e-05 0)
(0.094303899 5.9272074e-05 0)
(0.093951468 5.8410856e-05 0)
(0.093284672 5.7449305e-05 0)
(0.092956427 5.6615603e-05 0)
(0.092277782 5.5721248e-05 0)
(0.091975467 5.490857e-05 0)
(0.091282308 5.4090669e-05 0)
(0.091007926 5.3291134e-05 0)
(0.090297203 5.2562695e-05 0)
(0.090053058 5.1766539e-05 0)
(0.08932125 5.1145954e-05 0)
(0.089109995 5.0340878e-05 0)
(0.088352971 4.9854575e-05 0)
(0.088177685 4.902492e-05 0)
(0.087390494 4.8711803e-05 0)
(0.087254812 4.7837722e-05 0)
(0.086431274 4.7756371e-05 0)
(0.086339699 4.6813758e-05 0)
(0.08547151 4.7060532e-05 0)
(0.085430248 4.6017477e-05 0)
(0.084505407 4.8281542e-05 0)
(0.48225171 0.01472904 0)
(0.48328173 0.01905258 0)
(0.48587859 0.022167359 0)
(0.48937884 0.023692757 0)
(0.49279569 0.024194417 0)
(0.49556122 0.024158184 0)
(0.4975189 0.023671905 0)
(0.49864153 0.022639033 0)
(0.4988934 0.021075096 0)
(0.49821904 0.019169392 0)
(0.49663133 0.017197459 0)
(0.49422245 0.015396277 0)
(0.49117012 0.013882626 0)
(0.48766524 0.012664693 0)
(0.48387331 0.011686377 0)
(0.47989606 0.010886199 0)
(0.47578453 0.010214893 0)
(0.47156054 0.0096354619 0)
(0.46723414 0.009120786 0)
(0.46281101 0.0086519266 0)
(0.4582984 0.0082164319 0)
(0.45370521 0.0078067391 0)
(0.44904388 0.0074186264 0)
(0.44432765 0.0070500565 0)
(0.43957166 0.0067001711 0)
(0.43478984 0.006368682 0)
(0.4299967 0.0060553884 0)
(0.42520441 0.0057599789 0)
(0.42042527 0.0054818721 0)
(0.41566891 0.0052203418 0)
(0.41094523 0.004974493 0)
(0.40626138 0.004743426 0)
(0.40162505 0.0045261823 0)
(0.39704115 0.0043218822 0)
(0.39251555 0.0041296303 0)
(0.38805129 0.0039486403 0)
(0.38365272 0.0037781183 0)
(0.37932134 0.0036173879 0)
(0.37506032 0.0034657586 0)
(0.37086989 0.0033226567 0)
(0.36675232 0.0031874829 0)
(0.36270681 0.0030597518 0)
(0.35873498 0.0029389398 0)
(0.35483519 0.0028246352 0)
(0.35100863 0.002716377 0)
(0.34725302 0.0026138162 0)
(0.34356925 0.0025165446 0)
(0.33995452 0.0024242674 0)
(0.33640963 0.0023366222 0)
(0.33293136 0.0022533624 0)
(0.32952049 0.0021741648 0)
(0.32617347 0.0020988247 0)
(0.32289119 0.0020270531 0)
(0.31966981 0.0019586827 0)
(0.31651039 0.0018934543 0)
(0.31340884 0.0018312338 0)
(0.31036646 0.0017717871 0)
(0.30737893 0.0017150091 0)
(0.30444781 0.0016606871 0)
(0.30156856 0.0016087408 0)
(0.29874309 0.0015589756 0)
(0.29596659 0.0015113328 0)
(0.29324134 0.0014656324 0)
(0.29056227 0.0014218345 0)
(0.28793205 0.0013797714 0)
(0.28534535 0.0013394193 0)
(0.28280526 0.0013006208 0)
(0.28030612 0.0012633658 0)
(0.27785149 0.0012275056 0)
(0.27543539 0.0011930422 0)
(0.27306184 0.0011598341 0)
(0.2707245 0.0011278934 0)
(0.2684279 0.001097085 0)
(0.26616529 0.0010674299 0)
(0.26394177 0.0010387983 0)
(0.26175012 0.0010112188 0)
(0.25959604 0.00098456644 0)
(0.2574718 0.00095887627 0)
(0.25538374 0.00093402768 0)
(0.25332358 0.00091006101 0)
(0.25129835 0.0008868598 0)
(0.24929914 0.00086446862 0)
(0.24733373 0.00084277509 0)
(0.24539255 0.00082182696 0)
(0.24348415 0.00080151599 0)
(0.24159823 0.0007818921 0)
(0.23974422 0.00076285136 0)
(0.23791097 0.00074444486 0)
(0.23610887 0.0007265733 0)
(0.23432586 0.00070928789 0)
(0.23257335 0.00069249434 0)
(0.23083829 0.00067624301 0)
(0.2291332 0.00066044511 0)
(0.22744393 0.00064514909 0)
(0.22578422 0.0006302723 0)
(0.22413872 0.00061586014 0)
(0.22252247 0.00060183682 0)
(0.22091881 0.00058824358 0)
(0.21934423 0.00057501228 0)
(0.21778061 0.00056217882 0)
(0.216246 0.00054968359 0)
(0.21472071 0.00053755593 0)
(0.21322449 0.00052574578 0)
(0.2117359 0.00051427458 0)
(0.21027658 0.00050310295 0)
(0.20882316 0.00049224303 0)
(0.20739934 0.00048166731 0)
(0.20597963 0.00047137723 0)
(0.20458999 0.00046135845 0)
(0.20320261 0.00045160013 0)
(0.20184592 0.0004421025 0)
(0.20048955 0.00043284089 0)
(0.19916464 0.00042383159 0)
(0.19783801 0.00041503438 0)
(0.1965438 0.00040648321 0)
(0.19524571 0.00039812059 0)
(0.19398118 0.00038999978 0)
(0.19271048 0.00038204414 0)
(0.19147466 0.00037432811 0)
(0.19023024 0.00036675392 0)
(0.18902225 0.00035941906 0)
(0.18780304 0.00035220263 0)
(0.18662204 0.00034522716 0)
(0.18542701 0.00033834648 0)
(0.18427222 0.00033171029 0)
(0.18310038 0.00032514488 0)
(0.18197107 0.00031882935 0)
(0.18082144 0.00031256014 0)
(0.17971695 0.00030654808 0)
(0.1785886 0.00030055727 0)
(0.17750832 0.00029483274 0)
(0.17640031 0.00028910372 0)
(0.17534367 0.00028365196 0)
(0.1742551 0.00027816919 0)
(0.17322159 0.00027297652 0)
(0.17215157 0.00026772542 0)
(0.17114072 0.00026277917 0)
(0.17008837 0.0002577461 0)
(0.16909978 0.00025303451 0)
(0.1680642 0.00024820664 0)
(0.16709752 0.00024371881 0)
(0.16607783 0.00023908409 0)
(0.16513275 0.00023480989 0)
(0.16412807 0.00023035697 0)
(0.16320436 0.00022628702 0)
(0.16221378 0.00022200522 0)
(0.16131124 0.00021813081 0)
(0.16033386 0.00021401007 0)
(0.15945236 0.0002103231 0)
(0.15848723 0.00020635392 0)
(0.15762671 0.00020284692 0)
(0.15667287 0.00019902034 0)
(0.15583333 0.00019568634 0)
(0.15488979 0.00019199392 0)
(0.15407131 0.00018882646 0)
(0.15313702 0.00018526025 0)
(0.15233974 0.00018225335 0)
(0.15141362 0.00017880587 0)
(0.15063776 0.00017595397 0)
(0.14971868 0.0001726182 0)
(0.14896456 0.00016991614 0)
(0.14805128 0.00016668554 0)
(0.14731932 0.0001641285 0)
(0.14641056 0.00016099699 0)
(0.14570127 0.00015858049 0)
(0.14479564 0.0001555425 0)
(0.14410966 0.00015326234 0)
(0.14320567 0.00015031282 0)
(0.14254375 0.00014816504 0)
(0.14163977 0.00014529955 0)
(0.14100282 0.00014328036 0)
(0.1400971 0.00014049515 0)
(0.13948617 0.0001386009 0)
(0.13857677 0.00013589299 0)
(0.13799309 0.00013412009 0)
(0.1370779 0.00013148751 0)
(0.1365229 0.00012983231 0)
(0.13559957 0.00012727428 0)
(0.13507489 0.00012573301 0)
(0.13414082 0.0001232503 0)
(0.13364836 0.00012181888 0)
(0.13270063 0.0001194143 0)
(0.13224255 0.00011808815 0)
(0.13127791 0.0001157672 0)
(0.13085669 0.000114541 0)
(0.12987145 0.00011231296 0)
(0.12948994 0.00011118028 0)
(0.1284799 0.00010905971 0)
(0.12814135 0.0001080126 0)
(0.12710169 0.00010602178 0)
(0.12680982 0.00010505029 0)
(0.12573493 0.0001032232 0)
(0.12549402 0.00010231496 0)
(0.1243773 0.00010070399 0)
(0.12419228 9.984418e-05 0)
(0.1230257 9.853254e-05 0)
(0.12290233 9.7700056e-05 0)
(0.1216759 9.6861222e-05 0)
(0.12162058 9.5926814e-05 0)
(0.12032346 9.8238406e-05 0)
(0.4842274 0.014152968 0)
(0.48511928 0.01753698 0)
(0.48717194 0.020381011 0)
(0.49014112 0.022086732 0)
(0.49340131 0.022767999 0)
(0.4964292 0.022798282 0)
(0.49901671 0.022385712 0)
(0.50113014 0.021562146 0)
(0.50275419 0.020343321 0)
(0.50383203 0.018837708 0)
(0.50431497 0.017231226 0)
(0.50421367 0.015714564 0)
(0.50361807 0.014407119 0)
(0.50265881 0.013341459 0)
(0.50146033 0.012484782 0)
(0.50010681 0.011786368 0)
(0.49864139 0.011202727 0)
(0.49707715 0.010701783 0)
(0.49541341 0.010260093 0)
(0.49364303 0.0098605219 0)
(0.49176023 0.0094908363 0)
(0.48976042 0.0091428734 0)
(0.48764353 0.0088115457 0)
(0.48541076 0.0084940533 0)
(0.48306699 0.0081889844 0)
(0.48061677 0.0078957753 0)
(0.4780673 0.0076141271 0)
(0.47542435 0.0073438634 0)
(0.47269589 0.0070846807 0)
(0.46988784 0.0068362404 0)
(0.46700832 0.0065980627 0)
(0.46406295 0.0063696971 0)
(0.46105968 0.0061506174 0)
(0.45800361 0.0059403854 0)
(0.4549024 0.005738516 0)
(0.45176058 0.0055446338 0)
(0.44858545 0.0053583175 0)
(0.44538089 0.0051792606 0)
(0.44215386 0.0050071012 0)
(0.43890752 0.0048415914 0)
(0.43564849 0.004682415 0)
(0.43237917 0.0045293677 0)
(0.42910583 0.0043821642 0)
(0.42583011 0.0042406298 0)
(0.42255793 0.0041044982 0)
(0.41929017 0.0039736155 0)
(0.41603243 0.0038477274 0)
(0.41278484 0.0037266956 0)
(0.40955275 0.0036102745 0)
(0.40633553 0.0034983398 0)
(0.40313835 0.0033906532 0)
(0.39995985 0.0032871031 0)
(0.39680509 0.0031874584 0)
(0.39367199 0.0030916207 0)
(0.39056558 0.0029993666 0)
(0.3874831 0.0029106115 0)
(0.38442962 0.0028251403 0)
(0.38140171 0.0027428819 0)
(0.37840455 0.0026636296 0)
(0.37543408 0.0025873258 0)
(0.37249565 0.0025137723 0)
(0.36958456 0.002442924 0)
(0.36670644 0.0023745912 0)
(0.36385594 0.0023087409 0)
(0.36103901 0.0022451912 0)
(0.35824967 0.0021839205 0)
(0.35549427 0.0021247546 0)
(0.35276617 0.0020676821 0)
(0.35007218 0.002012536 0)
(0.34740499 0.0019593144 0)
(0.34477194 0.0019078576 0)
(0.342165 0.0018581714 0)
(0.33959215 0.001810103 0)
(0.33704458 0.0017636652 0)
(0.33453095 0.0017187119 0)
(0.33204166 0.0016752617 0)
(0.32958612 0.0016331754 0)
(0.32715389 0.0015924759 0)
(0.3247552 0.001553031 0)
(0.32237869 0.0015148669 0)
(0.32003553 0.0014778587 0)
(0.31771334 0.0014420343 0)
(0.31542431 0.0014072765 0)
(0.313155 0.0013736138 0)
(0.31091869 0.0013409371 0)
(0.30870078 0.0013092738 0)
(0.30651575 0.0012785239 0)
(0.30434775 0.0012487122 0)
(0.30221259 0.0012197484 0)
(0.30009302 0.0011916534 0)
(0.29800629 0.0011643475 0)
(0.29593368 0.0011378459 0)
(0.29389399 0.0011120806 0)
(0.29186687 0.0010870594 0)
(0.28987286 0.0010627276 0)
(0.28788981 0.0010390835 0)
(0.28594013 0.001016087 0)
(0.28399975 0.00099372524 0)
(0.28209311 0.00097197406 0)
(0.28019403 0.00095080752 0)
(0.27832916 0.00093021921 0)
(0.27647003 0.00091016778 0)
(0.27464573 0.00089066655 0)
(0.27282525 0.00087165648 0)
(0.27104034 0.00085317268 0)
(0.26925724 0.00083513595 0)
(0.2675106 0.00081760546 0)
(0.26576363 0.00080047928 0)
(0.26405418 0.00078384305 0)
(0.26234214 0.00076756936 0)
(0.26066886 0.00075177294 0)
(0.25899057 0.00073629798 0)
(0.25735246 0.00072129113 0)
(0.25570678 0.00070656508 0)
(0.25410291 0.00069230138 0)
(0.25248872 0.00067827799 0)
(0.2509182 0.00066471456 0)
(0.24933441 0.00065135083 0)
(0.24779639 0.00063844801 0)
(0.24624193 0.00062570394 0)
(0.24473563 0.00061342502 0)
(0.24320945 0.0006012633 0)
(0.24173411 0.00058957428 0)
(0.24023519 0.00057796012 0)
(0.23879011 0.00056682952 0)
(0.23731743 0.00055573038 0)
(0.23590196 0.00054512901 0)
(0.23445454 0.00053451444 0)
(0.23306806 0.00052441524 0)
(0.23164491 0.00051425672 0)
(0.23028688 0.00050463459 0)
(0.228887 0.00049490534 0)
(0.22755691 0.00048573701 0)
(0.22617935 0.00047641186 0)
(0.22487673 0.00046767575 0)
(0.2235205 0.000458731 0)
(0.22224497 0.00045040711 0)
(0.22090909 0.00044182042 0)
(0.21966028 0.0004338902 0)
(0.21834376 0.00042564049 0)
(0.21712138 0.00041808676 0)
(0.21582323 0.00041015407 0)
(0.21462705 0.00040296093 0)
(0.21334624 0.00039532638 0)
(0.21217608 0.00038847914 0)
(0.21091157 0.0003811248 0)
(0.20976733 0.00037460988 0)
(0.20851805 0.00036751875 0)
(0.20739967 0.00036132362 0)
(0.20616451 0.0003544795 0)
(0.20507205 0.00034859266 0)
(0.20384986 0.00034198012 0)
(0.20278341 0.000336391 0)
(0.20157299 0.00032999533 0)
(0.20053275 0.00032469427 0)
(0.19933284 0.00031850144 0)
(0.1983191 0.00031347962 0)
(0.19712837 0.00030747621 0)
(0.19614152 0.00030272563 0)
(0.19495855 0.00029689885 0)
(0.19399909 0.0002924123 0)
(0.19282238 0.00028674991 0)
(0.19189092 0.00028252091 0)
(0.19071887 0.00027701127 0)
(0.18981615 0.00027303406 0)
(0.18864703 0.00026766611 0)
(0.18777394 0.00026393561 0)
(0.18660587 0.0002586989 0)
(0.18576346 0.00025521068 0)
(0.18459441 0.00025009543 0)
(0.18378391 0.00024684564 0)
(0.18261165 0.00024184284 0)
(0.18183449 0.00023882823 0)
(0.1806566 0.00023392974 0)
(0.1799144 0.00023114754 0)
(0.17872821 0.00022634635 0)
(0.17802288 0.00022379423 0)
(0.17682543 0.00021908469 0)
(0.17615911 0.00021676067 0)
(0.17494712 0.00021213897 0)
(0.1743223 0.00021004128 0)
(0.17309212 0.00020550604 0)
(0.1725116 0.00020363297 0)
(0.17125913 0.0001991862 0)
(0.17072614 0.00019753582 0)
(0.16944676 0.0001931843 0)
(0.16896493 0.00019175415 0)
(0.16765344 0.00018751165 0)
(0.16722692 0.00018629825 0)
(0.16587735 0.00018218905 0)
(0.16551083 0.00018118732 0)
(0.16411637 0.00017725226 0)
(0.16381514 0.00017645448 0)
(0.16236787 0.0001727625 0)
(0.16213784 0.00017215495 0)
(0.16062854 0.00016883049 0)
(0.16047611 0.00016836544 0)
(0.15889419 0.00016573843 0)
(0.15882495 0.00016507325 0)
(0.15716139 0.00016675939 0)
(0.48588544 0.01372017 0)
(0.48671532 0.016484341 0)
(0.48840452 0.018956461 0)
(0.49084658 0.020652497 0)
(0.49366338 0.02145181 0)
(0.49643005 0.021563906 0)
(0.49890118 0.021215886 0)
(0.50100968 0.020520172 0)
(0.50275362 0.019521009 0)
(0.50411562 0.018285362 0)
(0.50506654 0.016935222 0)
(0.50560248 0.015617928 0)
(0.50577423 0.014446336 0)