/*--------------------------------*- C++ -*----------------------------------*\
| =========                 |                                                 |
| \\      /  F ield         | OpenFOAM: The Open Source CFD Toolbox           |
|  \\    /   O peration     | Version:  5.x                                   |
|   \\  /    A nd           | Web:      www.OpenFOAM.org                      |
|    \\/     M anipulation  |                                                 |
\*---------------------------------------------------------------------------*/
FoamFile
{
    version     2.0;
    format      ascii;
    class       volScalarField;
    location    "0.1";
    object      p;
}
// * * * * * * * * * * * * * * * * * * * * * * * * * * * * * * * * * * * * * //

dimensions      [0 2 -2 0 0 0 0];

internalField   nonuniform List<scalar> 
10800
(
0.0363226
0.0318763
0.0255127
0.0196936
0.014449
0.00941767
0.00457396
0.000399235
-0.00235948
-0.00336832
-0.00297948
-0.00190506
-0.000712676
0.000295538
0.00100386
0.00141189
0.00158175
0.00159822
0.00154333
0.00147978
0.00143995
0.00142395
0.00141412
0.00139573
0.00136789
0.00133962
0.00131848
0.00130516
0.00129493
0.00128177
0.00126224
0.0012351
0.00120273
0.00117156
0.00114448
0.00111591
0.00107826
0.00103163
0.000982076
0.000932624
0.000884338
0.000839568
0.000797886
0.000756527
0.000712504
0.00066025
0.000599379
0.000542088
0.000495107
0.000447407
0.000393151
0.000342906
0.000302159
0.000266694
0.00023733
0.000216803
0.000202634
0.000194404
0.000195023
0.000203585
0.000217177
0.000235939
0.000260268
0.000287947
0.000316989
0.000347436
0.000379252
0.000411051
0.000440915
0.000467049
0.00048826
0.000504677
0.000517596
0.000528372
0.000537755
0.000545945
0.00055277
0.000557831
0.000560698
0.000561048
0.00055864
0.000553307
0.000544956
0.000533576
0.000519253
0.000502093
0.000482276
0.000459875
0.000435084
0.000407972
0.000378623
0.000347071
0.000313401
0.000277574
0.000239733
0.000199878
0.000158205
0.000114771
6.98418e-05
2.35233e-05
0.0330682
0.0304924
0.025071
0.0194327
0.0142637
0.00939536
0.0047541
0.000746183
-0.00197899
-0.00306909
-0.00277555
-0.00176137
-0.00060785
0.000372007
0.00106069
0.00145647
0.00161878
0.00163023
0.00157147
0.00150473
0.00146238
0.00144444
0.00143296
0.001413
0.00138363
0.001354
0.00133172
0.00131746
0.00130643
0.00129255
0.00127233
0.00124452
0.00121147
0.0011797
0.00115218
0.00112323
0.00108517
0.00103808
0.000988102
0.000938267
0.000889602
0.000844499
0.000802534
0.000760915
0.000716681
0.000664204
0.000602998
0.00054538
0.000498222
0.000450357
0.000395816
0.000345295
0.000304353
0.00026868
0.000239093
0.00021838
0.000204036
0.000195619
0.000196074
0.000204502
0.000217963
0.000236603
0.000260836
0.000288437
0.000317405
0.000347787
0.000379549
0.000411304
0.000441133
0.000467236
0.000488418
0.000504805
0.000517695
0.000528448
0.000537811
0.000545986
0.000552799
0.000557852
0.000560712
0.000561053
0.000558642
0.000553306
0.000544952
0.00053357
0.000519246
0.000502085
0.000482268
0.000459868
0.000435077
0.000407965
0.000378617
0.000347066
0.000313397
0.00027757
0.00023973
0.000199876
0.000158204
0.00011477
6.98412e-05
2.35233e-05
0.0305988
0.0291967
0.0247009
0.0193035
0.0141865
0.00948172
0.00512192
0.00136989
-0.00128249
-0.00250286
-0.00241127
-0.00154543
-0.000477109
0.000450158
0.00110863
0.00149018
0.00164785
0.00165927
0.00160157
0.00153487
0.00149099
0.00147053
0.00145633
0.00143388
0.00140233
0.0013708
0.00134685
0.00133112
0.00131883
0.00130388
0.00128279
0.00125422
0.00122045
0.00118801
0.00115991
0.00113047
0.00109193
0.00104439
0.000994013
0.0009438
0.000894743
0.000849295
0.000807044
0.00076517
0.00072073
0.000668037
0.000606518
0.000548613
0.000501318
0.000453301
0.000398478
0.0003477
0.00030659
0.000270729
0.000240934
0.000220049
0.000205533
0.000196932
0.000197233
0.000205528
0.000218847
0.000237357
0.000261488
0.000289003
0.00031789
0.000348203
0.000379911
0.000411623
0.000441415
0.000467484
0.000488629
0.000504977
0.000517832
0.000528554
0.000537895
0.000546053
0.000552852
0.000557894
0.000560746
0.00056108
0.000558663
0.00055332
0.000544963
0.000533578
0.000519251
0.000502087
0.000482269
0.000459866
0.000435076
0.000407964
0.000378616
0.000347065
0.000313396
0.00027757
0.00023973
0.000199876
0.000158204
0.00011477
6.98411e-05
2.35234e-05
0.0287141
0.0279154
0.0242296
0.0191865
0.0141729
0.00962456
0.00553812
0.00204742
-0.000500189
-0.001817
-0.00193513
-0.00125643
-0.000302519
0.000562975
0.00118696
0.00154915
0.00169708
0.00170513
0.00164712
0.00157967
0.00153278
0.00150768
0.00148891
0.00146289
0.00142868
0.00139486
0.00136862
0.00135058
0.00133613
0.00131936
0.00129688
0.00126734
0.00123279
0.00119953
0.00117051
0.00114021
0.00110098
0.00105293
0.00100214
0.00095146
0.000901858
0.000855875
0.00081317
0.000770927
0.00072621
0.00067327
0.000611445
0.000553249
0.000505758
0.000457528
0.000402404
0.000351361
0.000310055
0.000273975
0.000243938
0.000222822
0.000208064
0.000199214
0.000199285
0.00020735
0.000220429
0.000238716
0.000262661
0.000290015
0.000318765
0.000348965
0.000380583
0.000412219
0.000441942
0.000467946
0.000489025
0.000505306
0.0005181
0.000528773
0.000538074
0.0005462
0.000552974
0.000557995
0.000560828
0.000561147
0.000558717
0.000553363
0.000544996
0.000533604
0.000519269
0.000502101
0.000482279
0.000459872
0.000435079
0.000407965
0.000378616
0.000347065
0.000313397
0.00027757
0.00023973
0.000199876
0.000158204
0.00011477
6.98404e-05
2.35228e-05
0.0271476
0.0266329
0.0236088
0.0190141
0.0141849
0.00979294
0.0059434
0.00268921
0.0002559
-0.00112183
-0.00142458
-0.000936709
-0.000108343
0.000691897
0.00128199
0.00162441
0.00176094
0.00176419
0.00170529
0.001637
0.00158672
0.00155616
0.00153196
0.00150188
0.00146476
0.00142834
0.00139924
0.00137807
0.00136052
0.001341
0.00131643
0.00128554
0.00125006
0.00121574
0.00118532
0.00115362
0.00111344
0.00106487
0.0010137
0.000962536
0.000912242
0.000865453
0.000822002
0.000779185
0.000734087
0.000680904
0.000618858
0.000560384
0.000512592
0.000464066
0.000408642
0.000357319
0.000315772
0.000279453
0.000249139
0.000227708
0.000212622
0.000203439
0.000203145
0.000210798
0.000223449
0.000241329
0.000264905
0.000291942
0.000320436
0.000350437
0.00038189
0.000413381
0.000442971
0.000468849
0.000489804
0.000505968
0.000518655
0.000529235
0.000538459
0.000546522
0.000553244
0.000558221
0.000561016
0.000561302
0.000558844
0.000553466
0.000545078
0.000533669
0.000519318
0.000502136
0.000482277
0.00045989
0.000435091
0.000407973
0.000378621
0.000347067
0.000313398
0.00027757
0.00023973
0.000199875
0.000158203
0.000114769
6.98383e-05
2.35208e-05
0.0257686
0.0253783
0.0228728
0.0187791
0.0142157
0.00998949
0.00633724
0.00328583
0.000965109
-0.000446619
-0.000903753
-0.00059836
9.80388e-05
0.000827868
0.00138379
0.00170753
0.00183298
0.00183092
0.00177041
0.00170078
0.00164694
0.00161089
0.00158135
0.00154743
0.00150767
0.0014688
0.00143679
0.00141225
0.00139118
0.00136839
0.00134124
0.00130869
0.00127213
0.00123655
0.00120433
0.00117082
0.00112948
0.00108041
0.00102895
0.000977339
0.000926269
0.000878443
0.000833971
0.000790366
0.000744765
0.000691363
0.000629224
0.000570514
0.000522339
0.000473493
0.000417819
0.000366199
0.000324362
0.000287805
0.000257188
0.000235354
0.000219876
0.000210314
0.00020954
0.000216592
0.0002286
0.000245838
0.000268791
0.000295274
0.000323325
0.000352979
0.000384149
0.000415397
0.00044477
0.000470444
0.000491203
0.000507178
0.00051969
0.000530112
0.000539201
0.000547149
0.000553774
0.000558667
0.00056139
0.000561615
0.000559104
0.000553679
0.000545252
0.000533809
0.000519428
0.000502221
0.000482342
0.000459935
0.000435123
0.000407989
0.000378633
0.000347074
0.000313402
0.000277571
0.000239729
0.000199874
0.0001582
0.000114767
6.98342e-05
2.3517e-05
0.0245142
0.0241883
0.0220874
0.0184936
0.0142575
0.010214
0.006725
0.00383983
0.001623
0.000198976
-0.000381585
-0.000243607
0.000317735
0.000970678
0.00149057
0.00179678
0.00191209
0.00190437
0.00184106
0.00176889
0.00171085
0.0016692
0.00163438
0.00159671
0.00155443
0.00151319
0.00147834
0.00145048
0.00142587
0.0013997
0.00136978
0.00133542
0.00129769
0.0012607
0.00122645
0.00119093
0.00114837
0.00109887
0.00104723
0.000995257
0.000943414
0.000894436
0.000848794
0.000804294
0.000758125
0.000704523
0.000642404
0.000583519
0.000534944
0.000485843
0.000430034
0.000378124
0.000335966
0.0002992
0.000268261
0.000245928
0.000230002
0.000220044
0.00021871
0.000225019
0.000236225
0.000252623
0.000274705
0.000300377
0.000327756
0.000356865
0.00038758
0.000418448
0.000447502
0.000472893
0.000493389
0.000509111
0.000521377
0.000531568
0.000540447
0.000548213
0.000554679
0.000559434
0.000562038
0.00056216
0.000559561
0.000554061
0.000545568
0.000534068
0.000519638
0.000502388
0.000482472
0.000460034
0.000435196
0.00040804
0.000378667
0.000347095
0.000313395
0.000277576
0.00023973
0.000199872
0.000158196
0.000114763
6.9828e-05
2.35114e-05
0.023359
0.0230855
0.0213031
0.0181682
0.014291
0.0104513
0.00710459
0.00435396
0.00223
0.000810171
0.000136021
0.000126158
0.000552973
0.00112224
0.00160265
0.00189185
0.00199803
0.00198433
0.00191696
0.00184094
0.00177782
0.00173026
0.00169009
0.00164854
0.00160363
0.00156
0.00152231
0.00149116
0.00146308
0.00143354
0.00140079
0.00136452
0.00132555
0.00128706
0.00125068
0.00121305
0.00116923
0.00111934
0.00106758
0.0010153
0.000962709
0.000912558
0.000865731
0.000820358
0.00077363
0.000719828
0.000657765
0.000598749
0.000549822
0.000500591
0.00044479
0.000392638
0.000350178
0.000313258
0.000281994
0.000259077
0.00024265
0.000232285
0.000230345
0.000235835
0.000246167
0.000261627
0.000282678
0.000307345
0.000333852
0.000362213
0.000392272
0.000422584
0.000451186
0.000476206
0.000496384
0.000511812
0.000523785
0.000533682
0.000542282
0.000549795
0.000556035
0.00056059
0.00056302
0.000562991
0.000560263
0.000554652
0.000546064
0.000534482
0.00051998
0.000502667
0.000482697
0.00046021
0.000435331
0.000408141
0.000378737
0.000347142
0.000313425
0.000277592
0.000239736
0.000199874
0.000158193
0.000114758
6.98206e-05
2.35043e-05
0.0222942
0.0220775
0.0205479
0.0178121
0.0142986
0.0106835
0.0074728
0.00483388
0.00279133
0.00138636
0.000644279
0.000507851
0.000804443
0.00128417
0.00172045
0.00199201
0.0020898
0.00207005
0.00199773
0.00191679
0.00184773
0.00179374
0.00174805
0.0017025
0.00165479
0.00160869
0.00156814
0.00153368
0.00150214
0.00146926
0.00143361
0.00139533
0.00135503
0.001315
0.00127644
0.00123665
0.00119154
0.00114123
0.00108934
0.00103675
0.000983409
0.000932091
0.000884121
0.000837948
0.000790702
0.000736678
0.000674646
0.000615511
0.000566287
0.000517036
0.00046136
0.000409026
0.000366314
0.000329315
0.000297739
0.000274175
0.000257197
0.000246403
0.000243809
0.000248429
0.000257874
0.000272389
0.000292362
0.000315937
0.000341456
0.00036892
0.000398147
0.000427722
0.000455717
0.000480262
0.00050007
0.000515185
0.000526849
0.000536424
0.0005447
0.000551902
0.000557855
0.000562151
0.000564352
0.000564124
0.000561224
0.000555465
0.000546752
0.000535062
0.000520467
0.000503072
0.000483031
0.00046048
0.000435544
0.000408305
0.000378859
0.000347228
0.000313482
0.000277628
0.000239755
0.000199882
0.000158193
0.000114756
6.98133e-05
2.34965e-05
0.0213141
0.0211595
0.0198357
0.0174377
0.0142734
0.0108985
0.00782705
0.00528555
0.00331343
0.00192863
0.00113862
0.000896276
0.00107067
0.00145729
0.00184421
0.00209631
0.00218618
0.00216075
0.0020831
0.00199651
0.00192073
0.00185969
0.00180817
0.00175853
0.00170785
0.00165914
0.00161572
0.00157792
0.00154286
0.0015066
0.00146801
0.00142759
0.00138587
0.00134429
0.00130352
0.0012615
0.00121505
0.00116427
0.0011122
0.00105927
0.00100516
0.00095267
0.000903588
0.000856673
0.000808943
0.000754668
0.000692613
0.000633351
0.000583873
0.000534666
0.000479171
0.000426688
0.000383771
0.00034676
0.000314895
0.000290645
0.000273077
0.000261824
0.000258524
0.000262221
0.000270768
0.000284362
0.000303272
0.000325744
0.000350236
0.000376727
0.000405006
0.000433702
0.000460945
0.0004849
0.000504276
0.000519062
0.000530423
0.000539674
0.000547606
0.000554464
0.000560086
0.000564076
0.000566002
0.000565532
0.000562422
0.000556483
0.000547616
0.000535795
0.000521088
0.000503596
0.000483469
0.00046084
0.000435836
0.000408536
0.000379035
0.000347358
0.000313574
0.000277688
0.00023979
0.000199902
0.0001582
0.000114757
6.98078e-05
2.34893e-05
0.0204125
0.020324
0.0191747
0.0170603
0.0142166
0.0110883
0.00816303
0.00571217
0.00380169
0.00243875
0.00161518
0.00128558
0.00134879
0.00164184
0.00197451
0.00220445
0.00228653
0.00225613
0.00217306
0.00208026
0.00199713
0.00192835
0.00187053
0.00181663
0.00176286
0.00171135
0.001665
0.00162387
0.00158519
0.00154549
0.00150393
0.00146129
0.00141802
0.00137483
0.00133183
0.00128753
0.00123966
0.00118837
0.00113608
0.00108275
0.00102783
0.000974148
0.000923957
0.000876337
0.000828152
0.000773595
0.000711455
0.000652043
0.000602339
0.000553211
0.000497907
0.000445273
0.000402173
0.000365196
0.000333059
0.000308095
0.000289906
0.00027817
0.000274121
0.000276842
0.00028447
0.000297153
0.00031502
0.000336398
0.000359858
0.000385347
0.000412617
0.000440344
0.000466728
0.000489992
0.000508869
0.000523301
0.000534361
0.000543295
0.000550883
0.000557379
0.000562644
0.000566293
0.000567911
0.000567166
0.000563815
0.000557668
0.000548624
0.000536653
0.000521819
0.000504217
0.000483994
0.000461279
0.000436198
0.000408827
0.000379264
0.000347531
0.000313699
0.000277773
0.000239844
0.000199934
0.000158215
0.000114763
6.98053e-05
2.34834e-05
0.0195843
0.0195656
0.0185694
0.0166925
0.0141335
0.0112475
0.00847569
0.00611478
0.00426023
0.00291874
0.00207117
0.00167059
0.0016356
0.00183785
0.00211253
0.00231701
0.00239077
0.00235592
0.00226743
0.0021679
0.00207697
0.00199997
0.00193526
0.00187681
0.00181984
0.00176537
0.00171599
0.00167157
0.00162923
0.00158591
0.00154131
0.00149643
0.0014515
0.00140657
0.00136132
0.00131473
0.00126537
0.00121351
0.00116097
0.0011072
0.00105139
0.000996466
0.000945159
0.00089687
0.000848262
0.000793387
0.000731085
0.000671491
0.000621588
0.000572561
0.000517432
0.000464617
0.000421333
0.000384419
0.00035202
0.000326315
0.000307476
0.000295242
0.000290414
0.000292114
0.000298791
0.000310557
0.000327384
0.000347672
0.000370093
0.000394562
0.000420793
0.000447498
0.000472954
0.000495455
0.000513774
0.000527819
0.000538569
0.000547189
0.000554432
0.000560559
0.000565449
0.000568737
0.00057002
0.000568976
0.000565361
0.000558985
0.000549746
0.000537609
0.000522635
0.000504914
0.000484587
0.000461779
0.000436614
0.000409168
0.000379535
0.00034774
0.000313853
0.000277883
0.000239917
0.00019998
0.000158239
0.000114775
6.98065e-05
2.34792e-05
0.0188241
0.0188799
0.0180203
0.016343
0.0140314
0.0113751
0.00876114
0.00649268
0.00469126
0.00337025
0.00250529
0.00204778
0.00192822
0.00204504
0.00225943
0.00243482
0.00249868
0.00245943
0.00236565
0.00225914
0.00216019
0.00207478
0.00200265
0.00193912
0.00187882
0.00182127
0.0017687
0.001721
0.00167502
0.00162792
0.00158013
0.00153298
0.00148634
0.00143955
0.00139199
0.00134309
0.0012922
0.0012397
0.00118687
0.00113261
0.00107583
0.00101961
0.000967182
0.000918268
0.000869266
0.000814027
0.000751477
0.000691667
0.000641592
0.000592684
0.0005377
0.000484658
0.000441177
0.000404344
0.000371687
0.000345211
0.000325696
0.000312951
0.000307324
0.000307966
0.000313661
0.000324493
0.00034027
0.000359452
0.000380821
0.000404253
0.000429418
0.000455069
0.000479555
0.000501242
0.000518958
0.000532584
0.000543006
0.000551303
0.000558195
0.000563945
0.000568447
0.000571357
0.000572289
0.000570926
0.00056703
0.000560408
0.000550959
0.000538645
0.000523521
0.000505671
0.000485234
0.000462328
0.000437074
0.000409547
0.00037984
0.000347979
0.000314033
0.000278012
0.000240004
0.000200037
0.000158271
0.000114792
6.98114e-05
2.34766e-05
0.0181259
0.0182622
0.0175263
0.0160179
0.0139186
0.0114734
0.00901663
0.00684365
0.00509514
0.00379475
0.00291787
0.00241528
0.002224
0.00226218
0.00241551
0.00255825
0.00261
0.00256597
0.00246728
0.00235394
0.00224683
0.00215291
0.00207297
0.00200367
0.00193972
0.00187908
0.00182318
0.00177211
0.00172257
0.00167162
0.00162039
0.00157091
0.00152261
0.00147386
0.00142384
0.00137261
0.00132019
0.00126699
0.0012138
0.00115898
0.00110117
0.00104359
0.000990047
0.000940554
0.000891175
0.000835516
0.000772629
0.000712572
0.000662356
0.000613581
0.000558702
0.00050538
0.000461684
0.000424946
0.00039203
0.000364754
0.000344535
0.000331269
0.000324825
0.000324378
0.000329062
0.000338939
0.000353644
0.0003717
0.000391993
0.000414364
0.000438439
0.000463011
0.000486496
0.000507335
0.000524411
0.000537588
0.000547659
0.000555617
0.000562146
0.000567508
0.000571611
0.000574128
0.000574693
0.000572998
0.000568806
0.000561925
0.000552253
0.00053975
0.000524467
0.000506482
0.000485928
0.000462917
0.00043757
0.000409958
0.000380173
0.000348242
0.000314233
0.000278158
0.000240105
0.000200104
0.000158311
0.000114814
6.98196e-05
2.34756e-05
0.0174831
0.0177077
0.0170856
0.0157213
0.0138024
0.0115462
0.00924083
0.00716519
0.00547146
0.00419368
0.00331003
0.00277191
0.00252007
0.002487
0.00258021
0.00268766
0.00272502
0.00267547
0.00257207
0.0024522
0.00233679
0.00223418
0.00214628
0.00207068
0.00200255
0.00193878
0.00187953
0.0018249
0.00177183
0.0017171
0.00166221
0.00161018
0.00156027
0.00150958
0.00145692
0.00140326
0.00134933
0.00129542
0.00124179
0.00118634
0.00112744
0.00106844
0.00101378
0.00096374
0.000914002
0.000857869
0.000794559
0.000734225
0.000683894
0.000635262
0.000580446
0.000526789
0.000482857
0.000446225
0.000413048
0.000384939
0.000363987
0.000350192
0.000342918
0.000341352
0.000344996
0.000353896
0.000367505
0.000384407
0.000403597
0.000424881
0.000447841
0.000471309
0.000493768
0.000513729
0.000530135
0.000542832
0.000552527
0.000560128
0.000566278
0.000571238
0.000574928
0.000577041
0.000577226
0.000575185
0.000570683
0.000563531
0.000553625
0.000540924
0.000525472
0.000507344
0.000486666
0.000463546
0.000438101
0.0004104
0.000380532
0.000348527
0.000314451
0.00027832
0.000240218
0.00020018
0.000158357
0.000114842
6.9831e-05
2.34759e-05
0.0168894
0.0172114
0.0166961
0.0154554
0.013688
0.0115979
0.00943446
0.00745584
0.00581957
0.00456787
0.00368242
0.00311643
0.00281368
0.00271717
0.00275296
0.00282363
0.00284443
0.00278808
0.00267952
0.00255333
0.00242979
0.00231836
0.00222255
0.00214043
0.00206749
0.00200035
0.0019378
0.00187943
0.0018227
0.00176433
0.00170574
0.00165088
0.00159925
0.00154673
0.00149136
0.00143507
0.00137962
0.00132505
0.0012709
0.00121472
0.00115465
0.00109421
0.00103841
0.00098784
0.000937766
0.000881113
0.000817293
0.000756644
0.000706225
0.000657747
0.00060295
0.000548897
0.000504705
0.00046819
0.000434748
0.000405772
0.00038406
0.000369728
0.000361609
0.000358896
0.000361472
0.000369373
0.000381861
0.000397578
0.000415636
0.000435806
0.000457624
0.000479963
0.000501373
0.000520431
0.000536136
0.000548325
0.000557618
0.000564838
0.000570591
0.000575136
0.000578399
0.000580094
0.000579885
0.000577485
0.000572661
0.000565226
0.000555076
0.000542166
0.000526538
0.000508259
0.00048745
0.000464215
0.000438666
0.000410871
0.000380917
0.000348834
0.000314688
0.000278496
0.000240343
0.000200266
0.000158411
0.000114873
6.98454e-05
2.34774e-05
0.0163394
0.0167677
0.0163546
0.015221
0.0135794
0.0116329
0.00959995
0.00771559
0.00613872
0.0049171
0.00403478
0.00344772
0.00310298
0.00295114
0.00293323
0.00296641
0.00296853
0.0029038
0.00278918
0.00265666
0.00252561
0.00240552
0.00230173
0.00221308
0.00213478
0.00206376
0.00199796
0.00193577
0.00187515
0.00181322
0.00175108
0.00169314
0.00163954
0.00158525
0.00152725
0.00146816
0.00141104
0.00135586
0.00130121
0.00124416
0.00118282
0.00112089
0.00106395
0.00101289
0.000962499
0.00090528
0.000840855
0.000779851
0.000729369
0.000681055
0.000626233
0.000571721
0.000527243
0.000490853
0.000457142
0.000427266
0.000404764
0.000389887
0.000380913
0.000377025
0.000378505
0.000385383
0.000396724
0.000411226
0.000428121
0.000447147
0.000467797
0.000488983
0.00050932
0.000527449
0.000542425
0.000554077
0.000562941
0.000569756
0.000575094
0.000579206
0.000582029
0.000583292
0.000582676
0.000579903
0.000574745
0.000567015
0.00055661
0.000543481
0.000527667
0.000509229
0.000488282
0.000464925
0.000439267
0.000411373
0.000381328
0.000349163
0.000314943
0.000278688
0.000240481
0.000200362
0.000158472
0.00011491
6.98631e-05
2.34802e-05
0.0158279
0.0163704
0.0160568
0.0150175
0.0134799
0.0116554
0.0097405
0.0079457
0.00642829
0.00524037
0.00436646
0.00376515
0.00338695
0.00318762
0.00311999
0.00311546
0.00309715
0.00302276
0.00290113
0.00276183
0.00262389
0.00249571
0.00238371
0.00228841
0.0022046
0.00212912
0.00205995
0.00199407
0.00192926
0.00186363
0.00179819
0.00173718
0.00168124
0.00162504
0.00156458
0.00150265
0.00144363
0.00138781
0.00133274
0.00127473
0.00121196
0.0011485
0.00109045
0.00103893
0.00098823
0.000930386
0.000865267
0.000803869
0.000753347
0.000705207
0.000650311
0.000595277
0.000550486
0.000514232
0.000480247
0.000449433
0.000426112
0.000410684
0.000400842
0.00039575
0.000396106
0.000401941
0.000412108
0.000425363
0.000441063
0.000458916
0.000478371
0.00049838
0.000517621
0.000534795
0.000549015
0.000560099
0.000568505
0.000574891
0.000579793
0.000583456
0.000585825
0.00058664
0.000585604
0.000582444
0.000576939
0.000568902
0.00055823
0.000544872
0.000528862
0.000510257
0.000489165
0.00046568
0.000439906
0.000411907
0.000381767
0.000349516
0.000315218
0.000278897
0.000240632
0.000200467
0.000158541
0.000114953
6.98842e-05
2.34842e-05
0.0153503
0.016013
0.0157979
0.0148433
0.0133917
0.011669
0.00985922
0.0081481
0.0066883
0.00553672
0.0046769
0.00406823
0.0036645
0.00342498
0.00331182
0.00327008
0.0032302
0.00314525
0.00301575
0.00286865
0.00272386
0.00258854
0.00246844
0.00236621
0.002277
0.00219675
0.00212378
0.00205434
0.00198518
0.00191546
0.00184688
0.00178309
0.00172457
0.00166609
0.00160321
0.0015386
0.00147753
0.0014209
0.00136546
0.0013065
0.00124215
0.00117706
0.00111794
0.00106599
0.00101498
0.000956446
0.000890548
0.000828725
0.000778187
0.000730226
0.000675207
0.000619586
0.000574454
0.000538342
0.000504076
0.000472289
0.000448119
0.000432132
0.000421411
0.000415087
0.000414291
0.00041906
0.000428029
0.000440004
0.000454478
0.000471129
0.00048936
0.000508168
0.00052629
0.000542484
0.000555917
0.000566403
0.000574322
0.000580254
0.000584698
0.000587895
0.000589793
0.000590147
0.000588675
0.000585116
0.00057925
0.000570893
0.000559942
0.000546344
0.000530129
0.000511347
0.000490102
0.000466481
0.000440585
0.000412477
0.000382236
0.000349894
0.000315515
0.000279122
0.000240797
0.000200584
0.000158619
0.000115001
6.99089e-05
2.34897e-05
0.0149027
0.0156895
0.0155722
0.0146962
0.0133167
0.011677
0.00995865
0.00832501
0.00691996
0.00580594
0.00496555
0.00435606
0.00393397
0.00366148
0.00350765
0.00342999
0.00336766
0.00327127
0.00313316
0.00297705
0.00282479
0.00268336
0.00255605
0.00244652
0.00235188
0.00226691
0.00218957
0.00211645
0.00204304
0.00196876
0.0018969
0.00183079
0.00176979
0.00170856
0.001643
0.00157593
0.00151292
0.00145524
0.00139932
0.00133947
0.00127345
0.00120659
0.0011464
0.00109411
0.00104279
0.000983488
0.000916725
0.000854448
0.000803917
0.000756134
0.000700938
0.000644664
0.000599162
0.0005632
0.000528648
0.000495849
0.000470799
0.000454247
0.000442635
0.00043505
0.000433074
0.000436756
0.000444499
0.000455164
0.000468379
0.000483798
0.000500779
0.000518361
0.000535342
0.00055053
0.000563145
0.000573001
0.000580404
0.000585855
0.00058982
0.000592532
0.000593944
0.000593821
0.000591898
0.000587923
0.000581683
0.000572993
0.000561751
0.000547902
0.000531471
0.000512503
0.000491096
0.000467332
0.000441308
0.000413084
0.000382736
0.000350299
0.000315833
0.000279367
0.000240977
0.000200713
0.000158705
0.000115056
6.99375e-05
2.34966e-05
0.0144821
0.0153944
0.0153747
0.014573
0.0132553
0.0116822
0.0100412
0.00847876
0.00712555
0.0060486
0.00523166
0.00462739
0.00419363
0.00389557
0.00370673
0.003595
0.00350927
0.00340031
0.00325317
0.00308729
0.00292652
0.00277942
0.00264636
0.00252963
0.00242904
0.00233952
0.0022575
0.00218026
0.00210282
0.00202374
0.00194813
0.00188004
0.00181701
0.00175275
0.00168398
0.00161446
0.0015498
0.00149101
0.00143434
0.00137357
0.0013059
0.00123716
0.00117584
0.0011233
0.0010717
0.00101155
0.000943815
0.000881052
0.000830557
0.000782951
0.000727521
0.000670527
0.000624629
0.000588822
0.000553977
0.000520127
0.000494165
0.000477042
0.000464528
0.000455652
0.000452469
0.000455042
0.000461535
0.000470857
0.000482782
0.000496941
0.000512643
0.000528975
0.000544791
0.000558946
0.000570714
0.000579909
0.000586763
0.000591706
0.000595168
0.000597377
0.000598284
0.000597669
0.000595279
0.000590875
0.000584245
0.000575209
0.000563663
0.000549551
0.000532893
0.00051373
0.000492152
0.000468236
0.000442076
0.00041373
0.000383271
0.000350733
0.000316177
0.000279631
0.000241174
0.000200855
0.000158802
0.000115117
6.99703e-05
2.3505e-05
0.0140855
0.0151232
0.0152002
0.0144699
0.0132066
0.0116868
0.0101096
0.00861154
0.00730747
0.00626581
0.00547456
0.00488114
0.00444204
0.00412562
0.00390797
0.00376468
0.00365476
0.0035319
0.00337552
0.00319961
0.00302923
0.00287603
0.00273865
0.00261574
0.00250854
0.00241428
0.00232771
0.00224582
0.00216437
0.00208069
0.00200074
0.00193054
0.00186611
0.00179892
0.00172633
0.00165399
0.00158802
0.00152838
0.00147068
0.00140874
0.00133949
0.00126886
0.00120633
0.00115356
0.00110174
0.00104067
0.000971834
0.000908547
0.000858128
0.000810708
0.00075498
0.000697194
0.000650871
0.000615228
0.000580081
0.000545139
0.000518232
0.000500531
0.000487105
0.00047691
0.000472489
0.000473933
0.000479152
0.000487098
0.000497703
0.000510571
0.000524967
0.000540025
0.000554652
0.000567749
0.000578638
0.000587138
0.000593413
0.000597818
0.000600754
0.000602439
0.000602825
0.0006017
0.000598828
0.000593978
0.000586944
0.000577546
0.000565683
0.000551296
0.0005344
0.00051503
0.000493272
0.000469197
0.000442894
0.000414419
0.000383842
0.000351198
0.000316546
0.000279917
0.000241388
0.000201011
0.000158909
0.000115186
7.00078e-05
2.35152e-05
0.0137103
0.014872
0.015044
0.0143828
0.0131692
0.0116927
0.0101668
0.00872512
0.00746748
0.00645921
0.00569432
0.00511664
0.00467809
0.00434967
0.00410964
0.00393833
0.00380416
0.00366593
0.00349977
0.00331391
0.00313313
0.00297284
0.0028319
0.00270462
0.00259081
0.00249099
0.0024001
0.00231334
0.00222753
0.00213968
0.0020551
0.00198211
0.00191667
0.00184712
0.00177039
0.00169461
0.00162733
0.00156731
0.0015086
0.00144505
0.00137409
0.00130171
0.00123795
0.00118489
0.0011329
0.00107089
0.00100082
0.000936951
0.000886649
0.000839433
0.000783343
0.000724681
0.000677901
0.000642432
0.000606976
0.000570899
0.000543011
0.000524729
0.000510381
0.000498835
0.000493148
0.000493444
0.000497364
0.000503904
0.000513155
0.000524704
0.000537769
0.000551527
0.000564942
0.000576953
0.000586932
0.000594703
0.000600366
0.000604204
0.000606589
0.000607729
0.000607575
0.000605923
0.000602551
0.00059724
0.000589786
0.000580013
0.000567819
0.000553143
0.000535997
0.00051641
0.000494461
0.000470219
0.000443764
0.000415153
0.000384452
0.000351696
0.000316944
0.000280227
0.000241622
0.000201182
0.000159027
0.000115263
7.00501e-05
2.35271e-05
0.0133547
0.0146374
0.0149023
0.014308
0.0131411
0.011701
0.0102152
0.00882115
0.00760687
0.00663075
0.00589188
0.0053335
0.00490085
0.00456578
0.00430962
0.00411503
0.00395764
0.0038026
0.00362546
0.00342966
0.00323825
0.00306993
0.00292537
0.00279548
0.00267618
0.00256991
0.0024744
0.00238296
0.0022922
0.00220043
0.00211154
0.0020349
0.00196826
0.00189718
0.00181647
0.00173661
0.00166762
0.00160759
0.00154822
0.00148273
0.00140965
0.00133561
0.00127078
0.00121737
0.00116516
0.00110222
0.00103084
0.000966292
0.000916124
0.00086914
0.000812633
0.000753005
0.000705728
0.000670448
0.000634681
0.000597424
0.000568518
0.000549647
0.000534371
0.000521444
0.00051446
0.000513588
0.000516187
0.000521289
0.000529156
0.000539357
0.000551063
0.000563498
0.000575676
0.000586574
0.000595612
0.00060262
0.000607636
0.000610877
0.000612684
0.000613258
0.000612545
0.000610348
0.000606459
0.000600669
0.000592779
0.000582615
0.000570075
0.000555098
0.000537689
0.000517874
0.000495724
0.000471304
0.00044469
0.000415935
0.000385103
0.000352229
0.000317371
0.000280562
0.000241876
0.000201369
0.000159159
0.000115348
7.00978e-05
2.3541e-05
0.0130166
0.0144168
0.0147718
0.0142423
0.01312
0.0117118
0.010257
0.00890154
0.00772685
0.00678217
0.0060687
0.00553161
0.00510959
0.00477254
0.00450573
0.00429328
0.00411497
0.00394224
0.00375238
0.00354618
0.00334434
0.00316749
0.00301881
0.00288739
0.00276451
0.00265168
0.00255049
0.00245442
0.00235836
0.00226247
0.00217014
0.00208951
0.00202077
0.00194866
0.00186462
0.00178031
0.00170899
0.00164892
0.00158939
0.00152202
0.00144629
0.00137044
0.0013048
0.00125111
0.00119857
0.00113464
0.00106191
0.000996606
0.000946553
0.00089983
0.000842878
0.000782196
0.000734369
0.000699288
0.000663215
0.000624732
0.000594762
0.000575299
0.000559088
0.00054475
0.000536438
0.00053438
0.000535635
0.000539268
0.00054572
0.000554546
0.000564866
0.000575952
0.000586871
0.000596629
0.000604692
0.000610902
0.000615239
0.000617851
0.000619052
0.000619037
0.000617745
0.000614984
0.00061056
0.000604275
0.000595932
0.000585361
0.00057246
0.000557167
0.000539482
0.000519426
0.000497066
0.000472458
0.000445676
0.000416769
0.000385799
0.000352801
0.000317831
0.000280924
0.000242152
0.000201574
0.000159303
0.000115444
7.01513e-05
2.3557e-05
0.0126947
0.0142079
0.0146495
0.0141828
0.0131034
0.0117242
0.0102939
0.00896861
0.00782875
0.00691465
0.0062262
0.00571135
0.00530394
0.00496926
0.00469605
0.00447096
0.00427519
0.00408502
0.00388076
0.00366298
0.00345088
0.00326554
0.00311237
0.00297973
0.00285501
0.00273667
0.00262862
0.00252725
0.00242597
0.00232561
0.00223063
0.00214661
0.00207458
0.00200102
0.00191448
0.00182592
0.00175175
0.00169128
0.00163184
0.00156297
0.00148432
0.00140618
0.00133987
0.00128616
0.0012332
0.00116815
0.00109402
0.00102793
0.000977968
0.000931512
0.000874097