/*--------------------------------*- C++ -*----------------------------------*\
| =========                 |                                                 |
| \\      /  F ield         | OpenFOAM: The Open Source CFD Toolbox           |
|  \\    /   O peration     | Version:  5.x                                   |
|   \\  /    A nd           | Web:      www.OpenFOAM.org                      |
|    \\/     M anipulation  |                                                 |
\*---------------------------------------------------------------------------*/
FoamFile
{
    version     2.0;
    format      ascii;
    class       surfaceScalarField;
    location    "0.1";
    object      phi;
}
// * * * * * * * * * * * * * * * * * * * * * * * * * * * * * * * * * * * * * //

dimensions      [0 3 -1 0 0 0 0];

internalField   nonuniform List<scalar> 
21390
(
7.3828e-08
6.86124e-09
-8.06893e-08
6.53684e-08
8.4596e-09
5.7084e-08
8.28439e-09
4.91043e-08
7.97969e-09
4.1444e-08
7.66035e-09
3.44071e-08
7.03691e-09
2.8435e-08
5.97202e-09
2.38604e-08
4.57462e-09
2.07345e-08
3.12588e-09
1.87456e-08
1.98893e-09
1.74614e-08
1.2842e-09
1.6581e-08
8.80397e-10
1.59316e-08
6.49402e-10
1.54026e-08
5.29044e-10
1.49227e-08
4.79822e-10
1.44573e-08
4.65427e-10
1.39962e-08
4.61138e-10
1.35438e-08
4.524e-10
1.31103e-08
4.33444e-10
1.27049e-08
4.05471e-10
1.23309e-08
3.73948e-10
1.19861e-08
3.44791e-10
1.16654e-08
3.20706e-10
1.13646e-08
3.00831e-10
1.10818e-08
2.82803e-10
1.08165e-08
2.65231e-10
1.05681e-08
2.48438e-10
1.03349e-08
2.33239e-10
1.01146e-08
2.20225e-10
9.90538e-09
2.09258e-10
9.70564e-09
1.99747e-10
9.51442e-09
1.91218e-10
9.3317e-09
1.82721e-10
9.15805e-09
1.73644e-10
8.99317e-09
1.64888e-10
8.83542e-09
1.5775e-10
8.6833e-09
1.52116e-10
8.53679e-09
1.46508e-10
8.39648e-09
1.40308e-10
8.26235e-09
1.34132e-10
8.13435e-09
1.28e-10
8.01254e-09
1.21814e-10
7.89646e-09
1.16076e-10
7.78564e-09
1.10818e-10
7.67947e-09
1.0617e-10
7.57684e-09
1.02632e-10
7.47799e-09
9.88519e-11
7.38499e-09
9.30036e-11
7.29814e-09
8.68431e-11
7.21543e-09
8.2715e-11
7.13662e-09
7.88091e-11
7.06336e-09
7.32582e-11
6.99571e-09
6.76494e-11
6.93295e-09
6.27567e-11
6.87554e-09
5.74158e-11
6.82363e-09
5.1906e-11
6.77657e-09
4.70607e-11
6.7343e-09
4.22718e-11
6.69708e-09
3.72188e-11
6.66446e-09
3.26223e-11
6.63582e-09
2.86382e-11
6.61099e-09
2.48351e-11
6.58966e-09
2.13272e-11
6.57121e-09
1.84495e-11
6.55518e-09
1.60284e-11
6.54144e-09
1.37386e-11
6.52985e-09
1.15886e-11
6.52015e-09
9.70555e-12
6.51203e-09
8.11956e-12
6.5052e-09
6.82818e-12
6.49941e-09
5.79458e-12
6.49452e-09
4.89051e-12
6.4905e-09
4.0168e-12
6.48732e-09
3.1749e-12
6.48492e-09
2.40658e-12
6.48319e-09
1.72394e-12
6.48206e-09
1.13663e-12
6.48141e-09
6.48312e-13
6.48115e-09
2.56221e-13
6.48121e-09
-5.63061e-14
6.4815e-09
-2.95892e-13
6.48198e-09
-4.73046e-13
6.48257e-09
-5.93103e-13
6.48324e-09
-6.69966e-13
6.48395e-09
-7.08616e-13
6.48467e-09
-7.21628e-13
6.48538e-09
-7.13256e-13
6.48607e-09
-6.88631e-13
6.48672e-09
-6.52611e-13
6.48733e-09
-6.0792e-13
6.48789e-09
-5.5786e-13
6.48839e-09
-5.01916e-13
6.48884e-09
-4.46081e-13
6.48922e-09
-3.82248e-13
6.48955e-09
-3.25189e-13
6.4898e-09
-2.56703e-13
6.49001e-09
-2.05239e-13
6.49014e-09
-1.35535e-13
6.49024e-09
-9.91607e-14
-2.28111e-14
8.51331e-08
6.4009e-09
-8.46727e-08
8.41726e-08
9.42011e-09
8.2243e-08
1.02139e-08
7.98142e-08
1.04085e-08
7.68996e-08
1.0575e-08
7.35243e-08
1.04123e-08
6.98433e-08
9.653e-09
6.60922e-08
8.32572e-09
6.25408e-08
6.67727e-09
5.9376e-08
5.1537e-09
5.6586e-08
4.07418e-09
5.4075e-08
3.39139e-09
5.1788e-08
2.93649e-09
4.97003e-08
2.61668e-09
4.77842e-08
2.39597e-09
4.60158e-08
2.23383e-09
4.43772e-08
2.09975e-09
4.28579e-08
1.9717e-09
4.14537e-08
1.83758e-09
4.01614e-08
1.6978e-09
3.89728e-08
1.56257e-09
3.78747e-08
1.44284e-09
3.68535e-08
1.34191e-09
3.58988e-08
1.25554e-09
3.50042e-08
1.17738e-09
3.41654e-08
1.10408e-09
3.33776e-08
1.03624e-09
3.26354e-08
9.75448e-10
3.1933e-08
9.22614e-10
3.12653e-08
8.76948e-10
3.06286e-08
8.36433e-10
3.00208e-08
7.99021e-10
2.94412e-08
7.6233e-10
2.88892e-08
7.25674e-10
2.83626e-08
6.91502e-10
2.78581e-08
6.62252e-10
2.73733e-08
6.36912e-10
2.69079e-08
6.11906e-10
2.64624e-08
5.8578e-10
2.60368e-08
5.59768e-10
2.56304e-08
5.3433e-10
2.52424e-08
5.09873e-10
2.48709e-08
4.8749e-10
2.45149e-08
4.6689e-10
2.41732e-08
4.4783e-10
2.38452e-08
4.3061e-10
2.35318e-08
4.12286e-10
2.32349e-08
3.89941e-10
2.29541e-08
3.67562e-10
2.26877e-08
3.4913e-10
2.2436e-08
3.3055e-10
2.22007e-08
3.08577e-10
2.19818e-08
2.86515e-10
2.1779e-08
2.6554e-10
2.15929e-08
2.4354e-10
2.14233e-08
2.21479e-10
2.12695e-08
2.00867e-10
2.11314e-08
1.80415e-10
2.10087e-08
1.59914e-10
2.09002e-08
1.41114e-10
2.08045e-08
1.24324e-10
2.07206e-08
1.08768e-10
2.06471e-08
9.4818e-11
2.05825e-08
8.30193e-11
2.05258e-08
7.27505e-11
2.04763e-08
6.32102e-11
2.04335e-08
5.43999e-11
2.03966e-08
4.65634e-11
2.0365e-08
3.97496e-11
2.03379e-08
3.39208e-11
2.03148e-08
2.89387e-11
2.02952e-08
2.44754e-11
2.02789e-08
2.03217e-11
2.02656e-08
1.64873e-11
2.02549e-08
1.30598e-11
2.02466e-08
1.00428e-11
2.02403e-08
7.44696e-12
2.02357e-08
5.25454e-12
2.02325e-08
3.44549e-12
2.02305e-08
1.95648e-12
2.02294e-08
7.65304e-13
2.02291e-08
-1.73781e-13
2.02294e-08
-8.76958e-13
2.02301e-08
-1.39715e-12
2.02312e-08
-1.7449e-12
2.02324e-08
-1.96972e-12
2.02338e-08
-2.07665e-12
2.02352e-08
-2.10046e-12
2.02366e-08
-2.04623e-12
2.02379e-08
-1.94439e-12
2.02392e-08
-1.79592e-12
2.02403e-08
-1.623e-12
2.02413e-08
-1.4315e-12
2.02421e-08
-1.22262e-12
2.02428e-08
-1.02394e-12
2.02434e-08
-8.02169e-13
2.02438e-08
-6.28343e-13
2.0244e-08
-4.02969e-13
2.02442e-08
-2.89531e-13
-3.28794e-14
8.90126e-08
6.00956e-09
-8.86212e-08
8.94067e-08
9.02598e-09
8.93149e-08
1.03057e-08
8.90425e-08
1.06809e-08
8.86665e-08
1.09511e-08
8.8045e-08
1.10337e-08
8.70735e-08
1.06245e-08
8.57604e-08
9.63883e-09
8.42057e-08
8.23196e-09
8.25748e-08
6.78455e-09
8.09664e-08
5.68264e-09
7.93694e-08
4.98839e-09
7.77582e-08
4.54766e-09
7.61334e-08
4.24151e-09
7.45036e-08
4.02575e-09
7.28729e-08
3.8645e-09
7.12447e-08
3.72796e-09
6.96251e-08
3.59135e-09
6.80245e-08
3.43812e-09
6.64562e-08
3.26614e-09
6.49311e-08
3.08762e-09
6.34561e-08
2.9179e-09
6.20347e-08
2.7633e-09
6.06696e-08
2.62063e-09
5.93629e-08
2.48403e-09
5.81154e-08
2.35158e-09
5.69255e-08
2.22622e-09
5.57893e-08
2.11161e-09
5.47021e-08
2.0098e-09
5.36589e-08
1.92013e-09
5.26556e-08
1.83978e-09
5.16897e-08
1.76489e-09
5.07609e-08
1.69112e-09
4.98688e-08
1.61777e-09
4.90113e-08
1.54906e-09
4.81851e-08
1.48845e-09
4.7388e-08
1.43396e-09
4.66197e-08
1.38026e-09
4.58804e-08
1.32507e-09
4.51703e-08
1.26983e-09
4.44891e-08
1.21552e-09
4.38354e-08
1.16358e-09
4.3207e-08
1.11594e-09
4.26019e-08
1.07198e-09
4.20191e-08
1.03056e-09
4.14588e-08
9.90958e-10
4.09221e-08
9.49009e-10
4.04102e-08
9.01818e-10
3.99226e-08
8.55115e-10
3.94584e-08
8.13342e-10
3.90183e-08
7.70709e-10
3.86034e-08
7.23453e-10
3.82141e-08
6.75838e-10
3.78508e-08
6.28862e-10
3.75142e-08
5.80077e-10
3.72044e-08
5.31312e-10
3.69209e-08
4.84342e-10
3.6664e-08
4.37366e-10
3.64331e-08
3.90806e-10
3.62266e-08
3.47617e-10
3.60425e-08
3.08392e-10
3.58789e-08
2.72315e-10
3.57336e-08
2.4015e-10
3.56041e-08
2.12497e-10
3.54888e-08
1.88117e-10
3.53864e-08
1.65621e-10
3.52959e-08
1.44874e-10
3.52163e-08
1.2612e-10
3.51467e-08
1.09402e-10
3.50859e-08
9.46503e-11
3.50333e-08
8.16326e-11
3.49879e-08
6.98305e-11
3.49493e-08
5.89574e-11
3.49167e-08
4.90321e-11
3.48896e-08
4.01799e-11
3.48673e-08
3.23673e-11
3.48491e-08
2.55921e-11
3.48346e-08
1.97784e-11
3.48232e-08
1.48703e-11
3.48144e-08
1.07218e-11
3.48079e-08
7.28545e-12
3.48033e-08
4.44885e-12
3.48002e-08
2.18548e-12
3.47984e-08
3.76965e-13
3.47977e-08
-9.84782e-13
3.47977e-08
-2.01119e-12
3.47983e-08
-2.69602e-12
3.47994e-08
-3.13215e-12
3.48006e-08
-3.31354e-12
3.4802e-08
-3.3331e-12
3.48034e-08
-3.18077e-12
3.48047e-08
-2.94061e-12
3.48059e-08
-2.61121e-12
3.48069e-08
-2.23874e-12
3.48078e-08
-1.85769e-12
3.48084e-08
-1.43955e-12
3.48089e-08
-1.10297e-12
3.48091e-08
-6.70228e-13
3.48093e-08
-4.60939e-13
3.71456e-14
9.28642e-08
5.86985e-09
-9.27245e-08
9.33674e-08
8.52282e-09
9.36157e-08
1.00574e-08
9.37596e-08
1.0537e-08
9.39833e-08
1.07274e-08
9.42112e-08
1.08058e-08
9.42947e-08
1.05409e-08
9.41518e-08
9.78182e-09
9.37715e-08
8.6122e-09
9.32346e-08
7.32149e-09
9.26435e-08
6.27371e-09
9.20233e-08
5.60855e-09
9.13525e-08
5.21849e-09
9.06222e-08
4.97181e-09
8.98385e-08
4.80945e-09
8.9004e-08
4.69905e-09
8.8117e-08
4.61492e-09
8.71755e-08
4.5329e-09
8.61798e-08
4.43373e-09
8.51348e-08
4.31118e-09
8.40479e-08
4.17451e-09
8.2928e-08
4.0378e-09
8.17848e-08
3.90654e-09
8.06288e-08
3.77657e-09
7.94711e-08
3.64172e-09
7.83215e-08
3.50121e-09
7.71874e-08
3.36034e-09
7.60731e-08
3.22588e-09
7.49802e-08
3.10269e-09
7.39082e-08
2.99221e-09
7.28551e-08
2.89287e-09
7.18194e-08
2.80054e-09
7.08013e-08
2.70929e-09
6.98014e-08
2.61758e-09
6.88201e-08
2.53041e-09
6.78568e-08
2.45176e-09
6.69121e-08
2.3786e-09
6.5988e-08
2.30438e-09
6.50865e-08
2.22665e-09
6.42092e-08
2.14708e-09
6.33573e-08
2.06738e-09
6.25306e-08
1.99034e-09
6.17278e-08
1.91875e-09
6.09478e-08
1.852e-09
6.01897e-08
1.78858e-09
5.94543e-08
1.72641e-09
5.87437e-08
1.65955e-09
5.80598e-08
1.58576e-09
5.74022e-08
1.51272e-09
5.67711e-08
1.44442e-09
5.61681e-08
1.37371e-09
5.55939e-08
1.29765e-09
5.50486e-08
1.22113e-09
5.45335e-08
1.14403e-09
5.40497e-08
1.06384e-09
5.35975e-08
9.83461e-10
5.31775e-08
9.04351e-10
5.27909e-08
8.2397e-10
5.2438e-08
7.43699e-10
5.21178e-08
6.67873e-10
5.18286e-08
5.97565e-10
5.15685e-08
5.32416e-10
5.13346e-08
4.74054e-10
5.11238e-08
4.23324e-10
5.09335e-08
3.78439e-10
5.07617e-08
3.37387e-10
5.06069e-08
2.99681e-10
5.04678e-08
2.65244e-10
5.03433e-08
2.33905e-10
5.02324e-08
2.0548e-10
5.01344e-08
1.79667e-10
5.00484e-08
1.55848e-10
4.99735e-08
1.3379e-10
4.9909e-08
1.13605e-10
4.98536e-08
9.55066e-11
4.98066e-08
7.94255e-11
4.97668e-08
6.53473e-11
4.97335e-08
5.31018e-11
4.97058e-08
4.25777e-11
4.9683e-08
3.34994e-11
4.96645e-08
2.57779e-11
4.96498e-08
1.91908e-11
4.96383e-08
1.36985e-11
4.96296e-08
9.08679e-12
4.96232e-08
5.36241e-12
4.96189e-08
2.33241e-12
4.96161e-08
3.81933e-14
4.96147e-08
-1.6936e-12
4.96142e-08
-2.81979e-12
4.96144e-08
-3.5275e-12
4.9615e-08
-3.7782e-12
4.96158e-08
-3.76411e-12
4.96167e-08
-3.47107e-12
4.96175e-08
-3.04312e-12
4.96181e-08
-2.52205e-12
4.96186e-08
-1.92489e-12
4.9619e-08
-1.42194e-12
4.96191e-08
-7.68152e-13
4.9619e-08
-4.57813e-13
2.9729e-13
9.69459e-08
5.8458e-09
-9.69218e-08
9.73986e-08
8.0701e-09
9.7751e-08
9.70489e-09
9.79712e-08
1.03169e-08
9.82522e-08
1.04464e-08
9.86067e-08
1.04513e-08
9.89245e-08
1.02231e-08
9.91121e-08
9.59414e-09
9.91286e-08
8.5957e-09
9.90083e-08
7.44184e-09
9.88384e-08
6.44364e-09
9.86629e-08
5.784e-09
9.84708e-08
5.41063e-09
9.82471e-08
5.19551e-09
9.79925e-08
5.06406e-09
9.77084e-08
4.98309e-09
9.73913e-08
4.93209e-09
9.70334e-08
4.89081e-09
9.66264e-08
4.84069e-09
9.61645e-08
4.77307e-09
9.56454e-08
4.69366e-09
9.50699e-08
4.61323e-09
9.44418e-08
4.53464e-09
9.37668e-08
4.45154e-09
9.30528e-08
4.35577e-09
9.23086e-08
4.24542e-09
9.15433e-08
4.12567e-09
9.07648e-08
4.00433e-09
8.99791e-08
3.88843e-09
8.91894e-08
3.78188e-09
8.83966e-08
3.68567e-09
8.75998e-08
3.59732e-09
8.6798e-08
3.5111e-09
8.59904e-08
3.42515e-09
8.51764e-08
3.34446e-09
8.43553e-08
3.27282e-09
8.35281e-08
3.20579e-09
8.26976e-08
3.13497e-09
8.1867e-08
3.05716e-09
8.10404e-08
2.97371e-09
8.02212e-08
2.88654e-09
7.94116e-08
2.79994e-09
7.86123e-08
2.71805e-09
7.78237e-08
2.64059e-09
7.70458e-08
2.56658e-09
7.62786e-08
2.49352e-09
7.55248e-08
2.41336e-09
7.47873e-08
2.32328e-09
7.40676e-08
2.23244e-09
7.33679e-08
2.14414e-09
7.26915e-08
2.05007e-09
7.20399e-08
1.94923e-09
7.14131e-08
1.84794e-09
7.08124e-08
1.7448e-09
7.02389e-08
1.63726e-09
6.96929e-08
1.5295e-09
6.91751e-08
1.42218e-09
6.86878e-08
1.31121e-09
6.82331e-08
1.19839e-09
6.7812e-08
1.089e-09
6.74251e-08
9.84462e-10
6.70723e-08
8.85235e-10
6.67517e-08
7.94608e-10
6.64605e-08
7.1454e-10
6.61955e-08
6.43487e-10
6.59535e-08
5.79348e-10
6.57318e-08
5.21378e-10
6.55283e-08
4.68791e-10
6.53416e-08
4.20593e-10
6.51712e-08
3.75906e-10
6.50168e-08
3.34047e-10
6.48783e-08
2.94291e-10
6.47554e-08
2.56709e-10
6.46472e-08
2.21797e-10
6.45526e-08
1.90109e-10
6.44704e-08
1.61669e-10
6.43992e-08
1.36527e-10
6.43379e-08
1.14414e-10
6.42853e-08
9.51659e-11
6.42405e-08
7.83296e-11
6.42025e-08
6.37536e-11
6.41706e-08
5.10414e-11
6.41442e-08
4.01231e-11
6.41227e-08
3.06379e-11
6.41054e-08
2.26195e-11
6.4092e-08
1.57668e-11
6.40818e-08
1.01974e-11
6.40745e-08
5.64207e-12
6.40694e-08
2.23883e-12
6.40662e-08
-3.10747e-13
6.40643e-08
-1.88913e-12
6.40634e-08
-2.83494e-12
6.4063e-08
-3.09415e-12
6.40629e-08
-2.97889e-12
6.4063e-08
-2.5315e-12
6.40629e-08
-1.89725e-12
6.40628e-08
-1.28811e-12
6.40625e-08
-4.62611e-13
6.40621e-08
-5.99125e-14
9.16619e-13
1.01194e-07
5.85485e-09
-1.01203e-07
1.01567e-07
7.69659e-09
1.01969e-07
9.30338e-09
1.02243e-07
1.00427e-08
1.02515e-07
1.01748e-08
1.0285e-07
1.01156e-08
1.03187e-07
9.88654e-09
1.03436e-07
9.34566e-09
1.03549e-07
8.48257e-09
1.03538e-07
7.45213e-09
1.03479e-07
6.50334e-09
1.03425e-07
5.83768e-09
1.03381e-07
5.45486e-09
1.03331e-07
5.24509e-09
1.03274e-07
5.12159e-09
1.03211e-07
5.04572e-09
1.03143e-07
5.00063e-09
1.03062e-07
4.97144e-09
1.0296e-07
4.94268e-09
1.02828e-07
4.90541e-09
1.02658e-07
4.86299e-09
1.02448e-07
4.82333e-09
1.02196e-07
4.78706e-09
1.01901e-07
4.74608e-09
1.01567e-07
4.69041e-09
1.01196e-07
4.61617e-09
1.00795e-07
4.52678e-09
1.0037e-07
4.42914e-09
9.99275e-08
4.33077e-09
9.94724e-08
4.23698e-09
9.90071e-08
4.15097e-09
9.85319e-08
4.07252e-09
9.80457e-08
3.99735e-09
9.75465e-08
3.92435e-09
9.7032e-08
3.85886e-09
9.65001e-08
3.80478e-09
9.59489e-08
3.75694e-09
9.53785e-08
3.70539e-09
9.47902e-08
3.64546e-09
9.41868e-08
3.57714e-09
9.3572e-08
3.50135e-09
9.29494e-08
3.42257e-09
9.23216e-08
3.34577e-09
9.16909e-08
3.2713e-09
9.10581e-08
3.19941e-09
9.04226e-08
3.12899e-09
8.97846e-08
3.0514e-09
8.91455e-08
2.96233e-09
8.85076e-08
2.87039e-09
8.78744e-08
2.77728e-09
8.72515e-08
2.67297e-09
8.66426e-08
2.55814e-09
8.60491e-08
2.44143e-09
8.54726e-08
2.32129e-09
8.49141e-08
2.19578e-09
8.43727e-08
2.07093e-09
8.38478e-08
1.94709e-09
8.33406e-08
1.81835e-09
8.28533e-08
1.68575e-09
8.23883e-08
1.554e-09
8.19494e-08
1.42331e-09
8.15405e-08
1.29412e-09
8.11637e-08
1.17147e-09
8.08188e-08
1.05945e-09
8.0504e-08
9.5826e-10
8.0216e-08
8.67305e-10
7.99505e-08
7.86904e-10
7.97032e-08
7.1616e-10
7.94709e-08
6.52877e-10
7.92525e-08
5.94302e-10
7.90485e-08
5.3807e-10
7.88602e-08
4.82513e-10
7.8689e-08
4.27922e-10
7.85352e-08
3.75586e-10
7.83983e-08
3.2699e-10
7.82773e-08
2.82691e-10
7.81708e-08
2.43079e-10
7.80773e-08
2.07895e-10
7.79955e-08
1.76991e-10
7.79241e-08
1.49724e-10
7.78619e-08
1.25883e-10
7.78082e-08
1.04822e-10
7.77619e-08
8.64053e-11
7.77225e-08
7.00344e-11
7.76893e-08
5.57577e-11
7.7662e-08
4.31123e-11
7.76399e-08
3.23346e-11
7.76225e-08
2.30436e-11
7.76091e-08
1.55555e-11
7.75994e-08
9.46005e-12
7.75924e-08
5.06021e-12
7.75877e-08
1.85909e-12
7.75846e-08
4.17061e-14
7.75826e-08
-9.41945e-13
7.75811e-08
-1.08231e-12
7.758e-08
-7.85412e-13
7.7579e-08
-2.5822e-13
7.75779e-08
5.77828e-13
7.75768e-08
1.03087e-12
2.12616e-12
1.05563e-07
5.85763e-09
-1.05565e-07
1.05861e-07
7.39815e-09
1.06275e-07
8.88986e-09
1.066e-07
9.71707e-09
1.06875e-07
9.89958e-09
1.07184e-07
9.80696e-09
1.07505e-07
9.56585e-09
1.0776e-07
9.09047e-09
1.07899e-07
8.34355e-09
1.0792e-07
7.43118e-09
1.07881e-07
6.54261e-09
1.07842e-07
5.87633e-09
1.07821e-07
5.47566e-09
1.07807e-07
5.25934e-09
1.07794e-07
5.13471e-09
1.07785e-07
5.05454e-09
1.07783e-07
5.00254e-09
1.07786e-07
4.96888e-09
1.07786e-07
4.94225e-09
1.07777e-07
4.91476e-09
1.07751e-07
4.8884e-09
1.07705e-07
4.86919e-09
1.07636e-07
4.85628e-09
1.07541e-07
4.84084e-09
1.0742e-07
4.81195e-09
1.07272e-07
4.76421e-09
1.071e-07
4.69909e-09
1.06907e-07
4.62183e-09
1.06698e-07
4.53931e-09
1.06478e-07
4.45712e-09
1.0625e-07
4.37965e-09
1.06014e-07
4.30834e-09
1.05771e-07
4.24041e-09
1.05519e-07
4.17587e-09
1.05257e-07
4.12069e-09
1.04983e-07
4.07942e-09
1.04692e-07
4.0474e-09
1.04383e-07
4.01435e-09
1.04054e-07
3.9746e-09
1.03705e-07
3.92668e-09
1.03336e-07
3.86987e-09
1.02951e-07
3.80751e-09
1.02553e-07
3.74399e-09
1.02145e-07
3.67957e-09
1.01729e-07
3.61553e-09
1.01304e-07
3.55324e-09
1.0087e-07
3.48585e-09
1.00424e-07
3.40859e-09
9.99654e-08
3.32857e-09
9.94977e-08
3.24495e-09
9.90257e-08
3.14497e-09
9.85548e-08
3.02907e-09
9.80887e-08
2.90748e-09
9.76305e-08
2.7795e-09
9.71816e-08
2.64473e-09
9.67408e-08
2.51171e-09
9.63061e-08
2.38175e-09
9.5876e-08
2.24849e-09
9.54492e-08
2.11255e-09
9.50262e-08
1.97695e-09
9.46111e-08
1.83846e-09
9.42106e-08
1.69465e-09
9.38316e-08
1.55044e-09
9.34794e-08
1.41168e-09
9.31565e-08
1.28114e-09
9.28625e-08
1.16129e-09
9.25937e-08
1.05575e-09
9.23438e-08
9.66022e-10
9.21063e-08
8.90338e-10
9.18768e-08
8.23849e-10
9.16542e-08
7.60663e-10
9.14408e-08
6.9587e-10
9.12402e-08
6.28525e-10
9.10553e-08
5.60476e-10
9.08875e-08
4.94791e-10
9.07369e-08
4.33369e-10
9.06024e-08
3.77585e-10
9.04827e-08
3.27509e-10
9.03765e-08
2.83212e-10
9.02823e-08
2.4393e-10
9.01987e-08
2.09455e-10
9.01247e-08
1.78851e-10
9.00592e-08
1.51885e-10
9.00017e-08
1.27593e-10
8.99515e-08
1.0598e-10
8.99083e-08
8.63084e-11
8.98716e-08
6.89504e-11
8.98413e-08
5.33636e-11
8.98167e-08
4.01352e-11
8.97975e-08
2.87328e-11
8.97827e-08
1.97972e-11
8.97719e-08
1.26809e-11
8.97641e-08
7.88501e-12
8.97585e-08
4.57614e-12
8.97545e-08
2.96804e-12
8.97515e-08
2.23274e-12
8.97489e-08
2.28862e-12
8.97467e-08
2.80046e-12
8.97445e-08
3.19353e-12
4.20848e-12
1.10034e-07
5.8419e-09
-1.10019e-07
1.10274e-07
7.15859e-09
1.10674e-07
8.49027e-09
1.11037e-07
9.3538e-09
1.11329e-07
9.60729e-09
1.11622e-07
9.51395e-09
1.11925e-07
9.26352e-09
1.12178e-07
8.83712e-09
1.12331e-07
8.19003e-09
1.12373e-07
7.38923e-09
1.12344e-07
6.57233e-09
1.12302e-07
5.91768e-09
1.12277e-07
5.50078e-09
1.12263e-07
5.27342e-09
1.12252e-07
5.14562e-09
1.12246e-07
5.06081e-09
1.12249e-07
4.99983e-09
1.12261e-07
4.9565e-09
1.12279e-07
4.92387e-09
1.12298e-07
4.89575e-09
1.12313e-07
4.87338e-09
1.12321e-07
4.86144e-09
1.12319e-07
4.8583e-09
1.12305e-07
4.85493e-09
1.12277e-07
4.84029e-09
1.12233e-07
4.80828e-09
1.12173e-07
4.75887e-09
1.12099e-07
4.69571e-09
1.12014e-07
4.62473e-09
1.11919e-07
4.55121e-09
1.11819e-07
4.47979e-09
1.11715e-07
4.41276e-09
1.11607e-07
4.34829e-09
1.11496e-07
4.28704e-09
1.11381e-07
4.23545e-09
1.11262e-07
4.19875e-09
1.11136e-07
4.17346e-09
1.11e-07
4.15015e-09
1.10851e-07
4.12319e-09
1.10688e-07
4.09032e-09
1.10508e-07
4.04961e-09
1.10313e-07
4.00285e-09
1.10104e-07
3.95293e-09
1.09884e-07
3.89896e-09
1.09658e-07
3.84231e-09
1.09424e-07
3.78654e-09
1.09182e-07
3.72794e-09
1.08928e-07
3.66292e-09
1.08659e-07
3.59759e-09
1.08375e-07
3.52902e-09
1.08078e-07
3.44158e-09
1.07774e-07
3.33355e-09
1.07466e-07
3.21479e-09
1.0716e-07
3.08534e-09
1.06858e-07
2.94675e-09
1.0656e-07
2.8101e-09
1.06263e-07
2.67838e-09
1.05966e-07
2.54639e-09
1.05662e-07
2.41635e-09
1.05348e-07
2.29088e-09
1.05024e-07
2.16265e-09
1.04695e-07
2.0235e-09
1.0437e-07
1.87484e-09
1.0406e-07
1.7222e-09
1.03771e-07
1.57022e-09
1.03508e-07
1.42431e-09
1.03271e-07
1.29234e-09
1.03056e-07
1.18073e-09
1.02855e-07
1.09178e-09
1.02658e-07
1.02114e-09
1.02459e-07
9.59317e-10
1.02259e-07
8.95695e-10
1.02063e-07
8.25123e-10
1.01875e-07
7.48207e-10
1.017e-07
6.69442e-10
1.01541e-07
5.92833e-10
1.01397e-07
5.21663e-10
1.01267e-07
4.56939e-10
1.01151e-07
3.99318e-10
1.01047e-07
3.48072e-10
1.00953e-07
3.03147e-10
1.00869e-07
2.63337e-10
1.00792e-07
2.28337e-10
1.00723e-07
1.96685e-10
1.00661e-07
1.68256e-10
1.00605e-07
1.4185e-10
1.00557e-07
1.17936e-10
1.00514e-07
9.56987e-11
1.00478e-07
7.60689e-11
1.00449e-07
5.83361e-11
1.00425e-07
4.36398e-11
1.00406e-07
3.11672e-11
1.00392e-07
2.19908e-11
1.00382e-07
1.49704e-11
1.00374e-07
1.07976e-11
1.00368e-07
8.07036e-12
1.00363e-07
7.0659e-12
1.00359e-07
6.72221e-12
1.00356e-07
6.85346e-12
7.46467e-12
1.14615e-07
5.80985e-09
-1.14583e-07
1.14816e-07
6.95829e-09
1.15186e-07
8.1204e-09
1.15567e-07
8.97216e-09
1.15881e-07
9.29317e-09
1.16169e-07
9.22624e-09
1.16455e-07
8.97741e-09
1.16704e-07
8.58859e-09
1.16868e-07
8.02518e-09
1.16932e-07
7.3258e-09
1.16917e-07
6.58738e-09
1.16877e-07
5.95722e-09
1.16848e-07
5.53029e-09
1.16831e-07
5.29027e-09
1.16818e-07
5.15849e-09
1.16808e-07
5.07115e-09
1.16804e-07
5.00338e-09
1.1681e-07
4.95065e-09
1.16824e-07
4.90992e-09
1.16843e-07
4.87718e-09
1.16863e-07
4.85328e-09
1.16882e-07
4.84188e-09
1.169e-07
4.84099e-09
1.16913e-07
4.84168e-09
1.1692e-07
4.83322e-09
1.16919e-07
4.80943e-09
1.16908e-07
4.76938e-09
1.16888e-07
4.71544e-09
1.1686e-07
4.65268e-09
1.16826e-07
4.58591e-09
1.16786e-07
4.51956e-09
1.16743e-07
4.45613e-09
1.16697e-07
4.39413e-09
1.16649e-07
4.3344e-09
1.16602e-07
4.28334e-09
1.16554e-07
4.24651e-09
1.16506e-07
4.22157e-09
1.16455e-07
4.20043e-09
1.164e-07
4.17818e-09
1.16338e-07
4.15261e-09
1.16266e-07
4.12133e-09
1.16184e-07
4.08507e-09
1.16092e-07
4.04512e-09
1.15992e-07
3.99896e-09
1.15887e-07
3.94711e-09
1.15779e-07
3.89434e-09
1.15667e-07
3.84005e-09
1.15548e-07
3.78258e-09
1.15417e-07
3.72787e-09
1.15274e-07
3.672e-09
1.15118e-07
3.59757e-09
1.14952e-07
3.50012e-09
1.14779e-07
3.38748e-09
1.14605e-07
3.25956e-09
1.14432e-07
3.11967e-09
1.14261e-07
2.98099e-09
1.14092e-07
2.84783e-09
1.13921e-07
2.71655e-09
1.13745e-07
2.59255e-09
1.13555e-07
2.48078e-09
1.13346e-07
2.37166e-09
1.13119e-07
2.25045e-09
1.12882e-07
2.11223e-09
1.12645e-07
1.95963e-09
1.12417e-07
1.79785e-09
1.12207e-07
1.63408e-09
1.1202e-07
1.47908e-09
1.11857e-07
1.34429e-09
1.1171e-07
1.23869e-09
1.11569e-07
1.16251e-09
1.11422e-07
1.1055e-09
1.11267e-07
1.05107e-09
1.11105e-07
9.87246e-10
1.10943e-07
9.10508e-10
1.10787e-07
8.25339e-10
1.10642e-07
7.37866e-10
1.10509e-07
6.54063e-10
1.1039e-07
5.76585e-10
1.10282e-07
5.07174e-10
1.10184e-07
4.4537e-10
1.10096e-07
3.91461e-10
1.10015e-07
3.44049e-10
1.09941e-07
3.02847e-10
1.09872e-07
2.65814e-10
1.09807e-07
2.32627e-10
1.09748e-07
2.01383e-10
1.09693e-07
1.72559e-10
1.09644e-07
1.44871e-10
1.09601e-07
1.19633e-10
1.09563e-07
9.58388e-11
1.09531e-07
7.52629e-11
1.09506e-07
5.68473e-11
1.09485e-07
4.24959e-11
1.0947e-07
3.07161e-11
1.09457e-07
2.30356e-11
1.09448e-07
1.73434e-11
1.0944e-07
1.46323e-11
1.09434e-07
1.27796e-11
1.09429e-07
1.2383e-11
1.21504e-11
1.19327e-07
5.76755e-09
-1.19285e-07
1.19504e-07
6.78131e-09
1.19838e-07
7.78684e-09
1.20219e-07
8.59066e-09
1.20552e-07
8.96022e-09
1.20841e-07
8.93759e-09
1.21114e-07
8.70429e-09
1.21355e-07
8.34723e-09
1.21528e-07
7.85278e-09
1.21611e-07
7.24227e-09
1.21615e-07
6.58326e-09
1.21584e-07
5.98859e-09
1.21555e-07
5.55966e-09
1.21538e-07
5.30708e-09
1.21526e-07
5.17e-09
1.21516e-07
5.08171e-09
1.21509e-07
5.01021e-09
1.21509e-07
4.95027e-09
1.21517e-07
4.90194e-09
1.21531e-07
4.86357e-09
1.21548e-07
4.836e-09
1.21568e-07
4.82203e-09
1.21589e-07
4.81964e-09
1.21611e-07
4.82023e-09
1.21631e-07
4.81341e-09
1.21647e-07
4.79329e-09
1.21658e-07
4.75858e-09
1.21662e-07
4.71069e-09
1.21661e-07
4.65395e-09
1.21654e-07
4.59277e-09
1.21642e-07
4.53124e-09
1.21627e-07
4.47169e-09
1.21608e-07
4.41268e-09
1.21588e-07
4.35488e-09
1.21567e-07
4.30432e-09
1.21547e-07
4.26647e-09
1.21529e-07
4.23974e-09
1.21512e-07
4.21726e-09
1.21495e-07
4.19504e-09
1.21476e-07
4.17133e-09
1.21454e-07
4.14396e-09
1.21426e-07
4.11319e-09
1.21392e-07
4.07915e-09
1.21353e-07
4.03788e-09
1.21311e-07
3.98867e-09
1.21269e-07
3.9366e-09
1.21226e-07
3.88336e-09
1.21179e-07
3.82909e-09
1.21127e-07
3.77979e-09
1.21068e-07
3.73142e-09
1.20999e-07
3.66626e-09
1.20921e-07
3.5778e-09
1.20838e-07
3.47129e-09
1.20751e-07
3.34571e-09
1.20665e-07
3.20558e-09
1.20581e-07
3.0656e-09
1.20498e-07
2.93066e-09
1.20417e-07
2.79792e-09
1.20333e-07
2.67608e-09
1.2024e-07
2.57425e-09
1.20128e-07
2.48344e-09
1.19995e-07
2.38379e-09
1.19844e-07
2.26311e-09
1.19684e-07
2.11944e-09
1.19524e-07
1.95748e-09
1.19373e-07
1.78537e-09
1.19237e-07
1.61497e-09
1.19121e-07
1.46042e-09
1.19023e-07
1.33697e-09
1.18933e-07
1.25185e-09
1.18841e-07
1.19782e-09
1.18737e-07
1.15459e-09
1.18622e-07
1.10297e-09
1.18499e-07
1.03317e-09
1.18377e-07
9.4768e-10
1.18261e-07
8.53888e-10
1.18154e-07
7.60643e-10
1.18058e-07
6.72755e-10
1.17972e-07
5.93531e-10
1.17894e-07
5.23014e-10
1.17823e-07
4.62026e-10
1.17758e-07
4.09054e-10
1.17697e-07
3.63957e-10
1.17639e-07
3.24095e-10
1.17583e-07
2.8893e-10
1.17528e-07
2.55644e-10
1.17476e-07
2.24598e-10
1.17427e-07
1.93797e-10
1.17382e-07
1.64926e-10
1.17341e-07
1.36529e-10
1.17306e-07
1.11113e-10
1.17275e-07
8.72348e-11
1.1725e-07
6.78391e-11
1.1723e-07
5.09702e-11
1.17213e-07
3.93517e-11
1.17201e-07
3.00215e-11
1.1719e-07
2.51218e-11
1.17182e-07
2.11429e-11
1.17174e-07
1.99685e-11
1.83983e-11
1.24195e-07
5.71983e-09
-1.24148e-07
1.24359e-07
6.61804e-09
1.24657e-07
7.48891e-09
1.25025e-07
8.22249e-09
1.25368e-07
8.61692e-09
1.25661e-07
8.6446e-09
1.25925e-07
8.44061e-09
1.26158e-07
8.11432e-09
1.26333e-07
7.67707e-09
1.26433e-07
7.14267e-09
1.26457e-07
6.55886e-09
1.26438e-07
6.00776e-09
1.26413e-07
5.585e-09
1.26398e-07
5.32176e-09
1.26391e-07
5.17772e-09
1.26384e-07
5.08871e-09
1.26378e-07
5.01597e-09
1.26377e-07
4.95139e-09
1.26382e-07
4.89696e-09
1.26392e-07
4.85323e-09
1.26406e-07
4.82147e-09
1.26425e-07
4.80376e-09
1.26446e-07
4.79817e-09
1.2647e-07
4.79669e-09
1.26494e-07
4.78924e-09
1.26517e-07
4.77026e-09
1.26537e-07
4.73847e-09
1.26553e-07
4.69462e-09
1.26565e-07
4.64239e-09
1.26572e-07
4.58583e-09
1.26574e-07
4.52878e-09
1.26573e-07
4.47327e-09
1.26567e-07
4.41772e-09
1.2656e-07
4.36259e-09
1.26551e-07
4.31343e-09
1.26542e-07
4.27536e-09
1.26534e-07
4.24715e-09
1.26529e-07
4.22279e-09
1.26525e-07
4.19905e-09
1.26521e-07
4.17472e-09
1.26517e-07
4.14814e-09
1.26511e-07
4.11954e-09
1.26502e-07
4.08844e-09
1.2649e-07
4.04988e-09
1.26476e-07
4.00206e-09
1.26463e-07
3.94987e-09
1.2645e-07
3.89645e-09
1.26436e-07
3.84313e-09
1.2642e-07
3.79576e-09
1.26401e-07
3.75051e-09
1.26377e-07
3.69038e-09
1.26347e-07
3.60795e-09
1.26312e-07
3.5063e-09
1.26274e-07
3.38313e-09
1.26236e-07
3.24354e-09
1.26199e-07
3.10318e-09
1.26162e-07
2.96702e-09
1.26128e-07
2.83206e-09
1.26095e-07
2.70921e-09
1.26057e-07
2.61188e-09
1.26007e-07
2.53369e-09
1.25939e-07
2.45208e-09
1.25853e-07
2.34865e-09
1.25756e-07
2.21643e-09
1.25654e-07
2.05922e-09
1.25554e-07
1.88592e-09
1.2546e-07
1.70856e-09
1.25379e-07
1.54151e-09
1.25313e-07
1.40364e-09
1.25256e-07
1.30856e-09
1.252e-07
1.25413e-09
1.25135e-07
1.21944e-09
1.25058e-07
1.17984e-09
1.24972e-07
1.11906e-09
1.24883e-07
1.0363e-09
1.24798e-07
9.39065e-10
1.2472e-07
8.38644e-10
1.24651e-07
7.42082e-10
1.2459e-07
6.54542e-10
1.24536e-07
5.76759e-10
1.24488e-07
5.10241e-10
1.24444e-07
4.53409e-10
1.24401e-07
4.06379e-10
1.24359e-07
3.65922e-10
1.24317e-07
3.31334e-10
1.24274e-07
2.98727e-10
1.2423e-07
2.6825e-10
1.24187e-07
2.36951e-10
1.24145e-07
2.06844e-10
1.24106e-07
1.75846e-10
1.2407e-07
1.47282e-10
1.24038e-07
1.19151e-10
1.2401e-07
9.55945e-11
1.23987e-07
7.40174e-11
1.23968e-07
5.86317e-11
1.23952e-07
4.54475e-11
1.23939e-07
3.81873e-11
1.23929e-07
3.16451e-11
1.23919e-07
2.95391e-11
2.61737e-11
1.29241e-07
5.6691e-09
-1.2919e-07
1.29395e-07
6.46406e-09
1.29663e-07
7.22117e-09
1.3001e-07
7.87503e-09
1.30354e-07
8.27307e-09
1.30652e-07
8.34689e-09
1.3091e-07
8.18274e-09
1.31134e-07
7.88967e-09
1.3131e-07
7.50141e-09
1.31421e-07
7.0317e-09
1.31464e-07
6.51595e-09
1.31459e-07
6.01288e-09
1.3144e-07
5.60379e-09
1.31428e-07
5.33341e-09
1.31425e-07
5.18116e-09
1.31423e-07
5.09053e-09
1.31421e-07
5.01793e-09
1.31421e-07
4.95096e-09
1.31426e-07
4.89219e-09
1.31436e-07
4.84393e-09
1.31449e-07
4.80815e-09
1.31466e-07
4.78651e-09
1.31487e-07
4.77713e-09
1.31511e-07
4.77278e-09
1.31537e-07
4.76382e-09
1.31562e-07
4.74477e-09
1.31586e-07
4.71448e-09
1.31607e-07
4.67343e-09
1.31625e-07
4.62469e-09
1.31639e-07
4.57192e-09
1.31649e-07
4.5188e-09
1.31655e-07
4.46712e-09
1.31658e-07
4.41509e-09
1.31657e-07
4.36292e-09
1.31655e-07
4.31583e-09
1.31652e-07
4.2785e-09
1.31649e-07
4.24979e-09
1.31648e-07
4.22418e-09
1.31648e-07
4.19898e-09
1.31649e-07
4.17341e-09
1.31651e-07
4.14634e-09
1.31652e-07
4.11818e-09
1.31652e-07
4.08821e-09
1.31651e-07
4.05093e-09
1.3165e-07
4.00381e-09
1.31648e-07
3.95142e-09
1.31647e-07
3.89774e-09
1.31645e-07
3.84463e-09
1.31644e-07
3.7975e-09
1.31641e-07
3.75275e-09
1.31637e-07
3.6946e-09
1.31629e-07
3.61567e-09
1.31618e-07
3.51765e-09
1.31604e-07
3.39701e-09
1.31589e-07
3.25884e-09
1.31573e-07
3.11931e-09
1.31556e-07
2.98325e-09
1.31542e-07
2.84695e-09
1.31529e-07
2.72221e-09
1.31515e-07
2.62562e-09
1.31495e-07
2.55393e-09
1.31463e-07
2.48403e-09
1.31418e-07
2.39347e-09
1.31363e-07
2.27115e-09
1.31302e-07
2.11983e-09
1.31239e-07
1.94926e-09
1.31176e-07
1.77159e-09
1.31118e-07
1.60011e-09
1.31067e-07
1.45446e-09
1.31023e-07
1.35209e-09
1.30982e-07
1.29564e-09
1.30936e-07
1.26554e-09
1.30881e-07
1.23433e-09
1.30819e-07
1.18067e-09
1.30755e-07
1.10047e-09
1.30694e-07
1.00049e-09
1.30639e-07
8.93788e-10
1.30591e-07
7.89339e-10
1.30552e-07
6.94207e-10
1.30519e-07
6.09905e-10
1.3049e-07
5.3874e-10
1.30464e-07
4.79078e-10
1.30439e-07
4.31367e-10
1.30414e-07
3.91795e-10
1.30385e-07
3.59573e-10
1.30354e-07
3.29654e-10
1.30321e-07
3.01941e-10
1.30285e-07
2.72307e-10
1.30249e-07
2.43057e-10
1.30214e-07
2.11311e-10
1.3018e-07
1.81284e-10
1.30149e-07
1.50265e-10
1.3012e-07
1.23709e-10
1.30096e-07
9.81842e-11
1.30075e-07
7.95965e-11
1.30058e-07
6.2717e-11
1.30043e-07
5.32126e-11
1.30031e-07
4.38895e-11
1.3002e-07
4.08189e-11
3.53001e-11
1.34479e-07
5.61557e-09
-1.34425e-07
1.34626e-07
6.31721e-09
1.3487e-07
6.97718e-09
1.35193e-07
7.55112e-09
1.3553e-07
7.93673e-09
1.3583e-07
8.04693e-09
1.36085e-07
7.92742e-09
1.36303e-07
7.67167e-09
1.36477e-07
7.3276e-09
1.36595e-07
6.91341e-09
1.36653e-07
6.45778e-09
1.36663e-07
6.00355e-09
1.36652e-07
5.61449e-09
1.36644e-07
5.34154e-09
1.36644e-07
5.18088e-09
1.36647e-07
5.08713e-09
1.3665e-07
5.01495e-09
1.36654e-07
4.94723e-09
1.36661e-07
4.88582e-09
1.3667e-07
4.83411e-09