/*--------------------------------*- C++ -*----------------------------------*\
| =========                 |                                                 |
| \\      /  F ield         | OpenFOAM: The Open Source CFD Toolbox           |
|  \\    /   O peration     | Version:  5.x                                   |
|   \\  /    A nd           | Web:      www.OpenFOAM.org                      |
|    \\/     M anipulation  |                                                 |
\*---------------------------------------------------------------------------*/
FoamFile
{
    version     2.0;
    format      ascii;
    class       volVectorField;
    location    "0.1";
    object      U;
}
// * * * * * * * * * * * * * * * * * * * * * * * * * * * * * * * * * * * * * //

dimensions      [0 1 -1 0 0 0 0];

internalField   nonuniform List<vector> 
10800
(
(0.909861 0.0107153 0)
(0.814881 0.0141904 0)
(0.720792 0.0138665 0)
(0.62664 0.0126604 0)
(0.533546 0.0114873 0)
(0.444669 0.00987591 0)
(0.365871 0.00768031 0)
(0.302951 0.0047555 0)
(0.259155 0.00185939 0)
(0.231341 0.000105571 0)
(0.213156 -0.000468694 0)
(0.200623 -0.000539375 0)
(0.191652 -0.000456352 0)
(0.184744 -0.000306803 0)
(0.178818 -0.000139967 0)
(0.173267 -6.4634e-07 0)
(0.167821 9.32782e-05 0)
(0.162442 0.000143685 0)
(0.157225 0.000161735 0)
(0.152285 0.00015995 0)
(0.147696 0.00014897 0)
(0.143464 0.000136546 0)
(0.139544 0.000126289 0)
(0.135882 0.000118033 0)
(0.132443 0.000110108 0)
(0.129214 0.000101728 0)
(0.126188 9.34152e-05 0)
(0.12335 8.58938e-05 0)
(0.120678 7.96672e-05 0)
(0.118146 7.46785e-05 0)
(0.115734 7.05642e-05 0)
(0.113427 6.69829e-05 0)
(0.111222 6.31381e-05 0)
(0.109121 5.86239e-05 0)
(0.107126 5.4259e-05 0)
(0.105222 5.10421e-05 0)
(0.103394 4.88463e-05 0)
(0.101631 4.66207e-05 0)
(0.0999388 4.40161e-05 0)
(0.0983198 4.14284e-05 0)
(0.0967742 3.87497e-05 0)
(0.0953012 3.59237e-05 0)
(0.093898 3.3365e-05 0)
(0.0925593 3.11446e-05 0)
(0.0912783 2.9402e-05 0)
(0.090045 2.84275e-05 0)
(0.0888555 2.72682e-05 0)
(0.0877241 2.48606e-05 0)
(0.0866627 2.2431e-05 0)
(0.085661 2.13218e-05 0)
(0.0847075 2.03217e-05 0)
(0.0838103 1.84195e-05 0)
(0.0829783 1.66183e-05 0)
(0.0822085 1.52821e-05 0)
(0.0814999 1.37131e-05 0)
(0.0808551 1.20941e-05 0)
(0.0802713 1.08566e-05 0)
(0.0797448 9.63388e-06 0)
(0.0792769 8.24569e-06 0)
(0.078866 7.03949e-06 0)
(0.0785057 6.05691e-06 0)
(0.0781916 5.07242e-06 0)
(0.0779205 4.14835e-06 0)
(0.0776868 3.45074e-06 0)
(0.077484 2.90678e-06 0)
(0.077309 2.38084e-06 0)
(0.0771603 1.88451e-06 0)
(0.0770353 1.47268e-06 0)
(0.0769307 1.15416e-06 0)
(0.076843 9.27466e-07 0)
(0.0767689 7.78261e-07 0)
(0.0767062 6.56572e-07 0)
(0.076654 5.24206e-07 0)
(0.0766119 3.83764e-07 0)
(0.0765793 2.51361e-07 0)
(0.0765552 1.32329e-07 0)
(0.0765387 3.07538e-08 0)
(0.0765284 -4.48287e-08 0)
(0.0765234 -8.9513e-08 0)
(0.0765223 -1.21042e-07 0)
(0.0765247 -1.54662e-07 0)
(0.0765292 -1.65841e-07 0)
(0.0765358 -1.71266e-07 0)
(0.0765432 -1.70233e-07 0)
(0.0765517 -1.641e-07 0)
(0.0765599 -1.5621e-07 0)
(0.0765688 -1.47405e-07 0)
(0.0765768 -1.36591e-07 0)
(0.0765851 -1.25819e-07 0)
(0.0765922 -1.14231e-07 0)
(0.0765995 -1.03431e-07 0)
(0.0766053 -9.16967e-08 0)
(0.0766114 -8.13109e-08 0)
(0.0766157 -6.88972e-08 0)
(0.0766205 -5.87619e-08 0)
(0.0766233 -4.58529e-08 0)
(0.0766266 -3.67981e-08 0)
(0.076628 -2.43519e-08 0)
(0.0766299 -1.76517e-08 0)
(0.0766303 -5.22828e-09 0)
(0.965142 0.0193109 0)
(0.95722 0.02693 0)
(0.943359 0.0281438 0)
(0.921787 0.0274754 0)
(0.891996 0.026698 0)
(0.854776 0.0253033 0)
(0.812975 0.022799 0)
(0.769939 0.018908 0)
(0.729088 0.0142201 0)
(0.692252 0.00997179 0)
(0.658897 0.00697994 0)
(0.628414 0.00505993 0)
(0.600675 0.00379708 0)
(0.57557 0.00299985 0)
(0.552751 0.00252914 0)
(0.531865 0.00225356 0)
(0.512608 0.00207212 0)
(0.494767 0.00191723 0)
(0.478241 0.00175672 0)
(0.462992 0.00158989 0)
(0.448959 0.00143212 0)
(0.436018 0.00129655 0)
(0.424017 0.00118495 0)
(0.412823 0.00109086 0)
(0.402345 0.0010062 0)
(0.392523 0.000927023 0)
(0.383306 0.000854144 0)
(0.374636 0.000789302 0)
(0.366449 0.000733265 0)
(0.358682 0.000684788 0)
(0.351285 0.000641734 0)
(0.344224 0.000602543 0)
(0.337489 0.000564916 0)
(0.331072 0.00052777 0)
(0.324956 0.000493342 0)
(0.319107 0.000464084 0)
(0.313493 0.000438973 0)
(0.308101 0.000414453 0)
(0.302931 0.000389453 0)
(0.297988 0.000365468 0)
(0.29327 0.000342561 0)
(0.288765 0.000320583 0)
(0.284457 0.000300419 0)
(0.280329 0.000281953 0)
(0.276368 0.00026537 0)
(0.272564 0.000251277 0)
(0.268924 0.000236763 0)
(0.265462 0.000218884 0)
(0.262182 0.000201392 0)
(0.259074 0.000188055 0)
(0.256133 0.000175171 0)
(0.253369 0.000159856 0)
(0.250789 0.000145085 0)
(0.248396 0.000131895 0)
(0.24619 0.000118366 0)
(0.244172 0.000105153 0)
(0.242337 9.34699e-05 0)
(0.240682 8.22535e-05 0)
(0.239205 7.11492e-05 0)
(0.237896 6.12953e-05 0)
(0.236741 5.28061e-05 0)
(0.235726 4.50147e-05 0)
(0.234837 3.81032e-05 0)
(0.234056 3.24556e-05 0)
(0.23337 2.77044e-05 0)
(0.232769 2.33584e-05 0)
(0.232247 1.94276e-05 0)
(0.231797 1.60579e-05 0)
(0.23141 1.32543e-05 0)
(0.231078 1.09761e-05 0)
(0.230795 9.1348e-06 0)
(0.230553 7.53998e-06 0)
(0.230351 6.06455e-06 0)
(0.230184 4.71013e-06 0)
(0.230049 3.51999e-06 0)
(0.229942 2.49632e-06 0)
(0.22986 1.6411e-06 0)
(0.229799 9.52764e-07 0)
(0.229756 4.25631e-07 0)
(0.229727 1.95297e-08 0)
(0.22971 -2.93622e-07 0)
(0.229703 -5.23995e-07 0)
(0.229703 -6.73938e-07 0)
(0.229709 -7.62454e-07 0)
(0.22972 -8.00141e-07 0)
(0.229733 -8.04347e-07 0)
(0.229748 -7.8164e-07 0)
(0.229763 -7.42064e-07 0)
(0.229781 -6.90565e-07 0)
(0.229795 -6.31986e-07 0)
(0.229811 -5.68422e-07 0)
(0.229823 -5.01577e-07 0)
(0.229837 -4.35764e-07 0)
(0.229845 -3.65949e-07 0)
(0.229856 -3.03764e-07 0)
(0.229861 -2.34968e-07 0)
(0.229868 -1.82966e-07 0)
(0.22987 -1.17904e-07 0)
(0.229875 -8.38912e-08 0)
(0.229875 -1.62085e-08 0)
(0.96991 0.0181878 0)
(0.97025 0.0259763 0)
(0.972408 0.0287302 0)
(0.973467 0.0291301 0)
(0.971514 0.0291549 0)
(0.96568 0.0287292 0)
(0.956073 0.0271403 0)
(0.943266 0.02405 0)
(0.928116 0.0199433 0)
(0.911676 0.0158662 0)
(0.894383 0.0127614 0)
(0.876486 0.0107113 0)
(0.858332 0.0093268 0)
(0.840239 0.00834571 0)
(0.822274 0.00761866 0)
(0.804422 0.00704329 0)
(0.786653 0.00654705 0)
(0.76896 0.00607565 0)
(0.751403 0.00559566 0)
(0.734106 0.00510581 0)
(0.717208 0.00463386 0)
(0.700813 0.00421062 0)
(0.684985 0.00384567 0)
(0.669764 0.00352879 0)
(0.655179 0.00324467 0)
(0.641241 0.00298515 0)
(0.627944 0.00275055 0)
(0.615256 0.00254286 0)
(0.603128 0.00236207 0)
(0.591509 0.00220442 0)
(0.580344 0.00206367 0)
(0.569596 0.00193395 0)
(0.559257 0.00181027 0)
(0.549323 0.00169215 0)
(0.539778 0.00158434 0)
(0.530588 0.00149017 0)
(0.521728 0.00140637 0)
(0.513185 0.00132587 0)
(0.504955 0.00124607 0)
(0.497043 0.00116919 0)
(0.489452 0.00109632 0)
(0.48217 0.00102827 0)
(0.475175 0.000966334 0)
(0.468444 0.000909363 0)
(0.461957 0.0008564 0)
(0.455711 0.000807522 0)
(0.449724 0.000758399 0)
(0.444006 0.00070526 0)
(0.438547 0.000653913 0)
(0.433345 0.000609383 0)
(0.42841 0.000565767 0)
(0.423745 0.000519003 0)
(0.41935 0.000473551 0)
(0.415239 0.000430754 0)
(0.411422 0.000388083 0)
(0.407893 0.000346923 0)
(0.404653 0.000308941 0)
(0.401706 0.000272497 0)
(0.399048 0.000237561 0)
(0.396665 0.000206227 0)
(0.394539 0.000178671 0)
(0.392649 0.000153907 0)
(0.390969 0.000132257 0)
(0.389474 0.000114066 0)
(0.388141 9.83853e-05 0)
(0.386956 8.42096e-05 0)
(0.385906 7.14698e-05 0)
(0.38498 6.0338e-05 0)
(0.384169 5.07839e-05 0)
(0.383459 4.26838e-05 0)
(0.382843 3.58121e-05 0)
(0.382309 2.97793e-05 0)
(0.381853 2.43529e-05 0)
(0.381467 1.95144e-05 0)
(0.381143 1.53132e-05 0)
(0.380875 1.17132e-05 0)
(0.380656 8.69117e-06 0)
(0.380479 6.19271e-06 0)
(0.380339 4.17025e-06 0)
(0.380229 2.5435e-06 0)
(0.380148 1.27302e-06 0)
(0.380087 2.77106e-07 0)
(0.380047 -4.48783e-07 0)
(0.38002 -9.61526e-07 0)
(0.380009 -1.35227e-06 0)
(0.380004 -1.57932e-06 0)
(0.38001 -1.67566e-06 0)
(0.380017 -1.68866e-06 0)
(0.380032 -1.62725e-06 0)
(0.380045 -1.52459e-06 0)
(0.380063 -1.38348e-06 0)
(0.380075 -1.22861e-06 0)
(0.380092 -1.06118e-06 0)
(0.380101 -8.88792e-07 0)
(0.380114 -7.26887e-07 0)
(0.380119 -5.57176e-07 0)
(0.380128 -4.2483e-07 0)
(0.380129 -2.63732e-07 0)
(0.380134 -1.83794e-07 0)
(0.380132 -1.15847e-08 0)
(0.975037 0.0171432 0)
(0.975072 0.0238833 0)
(0.978007 0.0273205 0)
(0.982208 0.0282214 0)
(0.985992 0.0283378 0)
(0.98857 0.0280805 0)
(0.989687 0.0269056 0)
(0.989215 0.024453 0)
(0.986973 0.0210546 0)
(0.983023 0.0174868 0)
(0.977574 0.0146191 0)
(0.970963 0.0127295 0)
(0.963589 0.0115471 0)
(0.955761 0.0107471 0)
(0.947583 0.0101512 0)
(0.939033 0.00967217 0)
(0.930033 0.00925565 0)
(0.920496 0.00885283 0)
(0.910374 0.00842405 0)
(0.899678 0.00795776 0)
(0.888473 0.00747648 0)
(0.876856 0.00701324 0)
(0.864937 0.0065822 0)
(0.852832 0.00617679 0)
(0.840659 0.00578582 0)
(0.828524 0.0054073 0)
(0.816518 0.00504925 0)
(0.804703 0.00472084 0)
(0.793109 0.00442693 0)
(0.781742 0.00416591 0)
(0.770588 0.00393143 0)
(0.759622 0.00371444 0)
(0.74884 0.00350515 0)
(0.738246 0.00330172 0)
(0.727842 0.00311187 0)
(0.717626 0.00294121 0)
(0.707602 0.00278545 0)
(0.697788 0.00263536 0)
(0.688198 0.00248727 0)
(0.678854 0.00234339 0)
(0.669777 0.00220556 0)
(0.660966 0.00207615 0)
(0.652411 0.00195763 0)
(0.644103 0.00184849 0)
(0.636025 0.00174629 0)
(0.628175 0.00164906 0)
(0.620582 0.0015511 0)
(0.613267 0.00144955 0)
(0.606218 0.00135207 0)
(0.599441 0.00126348 0)
(0.592965 0.00117625 0)
(0.58679 0.00108616 0)
(0.580905 0.000998177 0)
(0.575334 0.000913122 0)
(0.570092 0.000828494 0)
(0.565177 0.000746674 0)
(0.560594 0.000669365 0)
(0.556359 0.000594514 0)
(0.55248 0.000522971 0)
(0.548949 0.000458008 0)
(0.545755 0.000400017 0)
(0.54288 0.000347991 0)
(0.540295 0.00030253 0)
(0.537966 0.000263808 0)
(0.535867 0.000230111 0)
(0.533971 0.000199754 0)
(0.532261 0.0001724 0)
(0.53072 0.000148091 0)
(0.529339 0.000126721 0)
(0.528106 0.000108092 0)
(0.527012 9.18566e-05 0)
(0.526048 7.74378e-05 0)
(0.525207 6.45176e-05 0)
(0.524478 5.30461e-05 0)
(0.523852 4.30596e-05 0)
(0.523316 3.4446e-05 0)
(0.522864 2.71321e-05 0)
(0.522482 2.09758e-05 0)
(0.522165 1.58682e-05 0)
(0.5219 1.16275e-05 0)
(0.521687 8.17123e-06 0)
(0.521512 5.36707e-06 0)
(0.521377 3.16166e-06 0)
(0.52127 1.43497e-06 0)
(0.521195 9.09247e-08 0)
(0.521137 -8.82136e-07 0)
(0.521104 -1.52127e-06 0)
(0.52108 -1.99255e-06 0)
(0.521074 -2.18763e-06 0)
(0.521069 -2.2278e-06 0)
(0.521078 -2.11902e-06 0)
(0.521082 -1.94254e-06 0)
(0.521095 -1.69741e-06 0)
(0.5211 -1.43004e-06 0)
(0.521112 -1.15955e-06 0)
(0.521113 -8.7681e-07 0)
(0.521123 -6.51835e-07 0)
(0.52112 -3.76443e-07 0)
(0.521125 -2.46381e-07 0)
(0.52112 5.0563e-08 0)
(0.979677 0.0167187 0)
(0.979605 0.0224262 0)
(0.982026 0.0262195 0)
(0.986115 0.0275219 0)
(0.990464 0.027591 0)
(0.994281 0.0271661 0)
(0.997394 0.0260318 0)
(0.999757 0.0238805 0)
(1.00116 0.0209174 0)
(1.00139 0.0177299 0)
(1.00047 0.0150397 0)
(0.998634 0.0132179 0)
(0.996261 0.0121186 0)
(0.993664 0.0114253 0)
(0.99098 0.0109336 0)
(0.988193 0.0105529 0)
(0.985205 0.0102377 0)
(0.981883 0.00994508 0)
(0.978096 0.00963508 0)
(0.973755 0.00929001 0)
(0.968814 0.00892374 0)
(0.963276 0.00856166 0)
(0.957177 0.00821272 0)
(0.950575 0.00786665 0)
(0.943541 0.0075103 0)
(0.936156 0.0071427 0)
(0.92851 0.00677519 0)
(0.920693 0.00642198 0)
(0.912777 0.00609411 0)
(0.904814 0.00579579 0)
(0.896821 0.00552532 0)
(0.888796 0.00527543 0)
(0.880729 0.0050348 0)
(0.872606 0.00479959 0)
(0.864416 0.00457745 0)
(0.856153 0.00437433 0)
(0.847822 0.00418406 0)
(0.839445 0.00399531 0)
(0.831049 0.00380429 0)
(0.822669 0.00361368 0)
(0.814353 0.0034266 0)
(0.806125 0.00324821 0)
(0.797997 0.00308281 0)
(0.789977 0.00292907 0)
(0.782063 0.00278451 0)
(0.774254 0.00264518 0)
(0.766571 0.00250218 0)
(0.759043 0.00235341 0)
(0.751674 0.00220981 0)
(0.74449 0.00207566 0)
(0.737541 0.00194189 0)
(0.730841 0.00180602 0)
(0.724379 0.00167386 0)
(0.718176 0.00154439 0)
(0.71225 0.00141494 0)
(0.706596 0.00128913 0)
(0.701218 0.00116799 0)
(0.69614 0.00104847 0)
(0.691383 0.000932572 0)
(0.686957 0.000825127 0)
(0.682877 0.000727121 0)
(0.679146 0.000638176 0)
(0.675753 0.000559873 0)
(0.672671 0.000492606 0)
(0.669872 0.000434034 0)
(0.66732 0.000381714 0)
(0.664986 0.000334724 0)
(0.662842 0.000292553 0)
(0.660875 0.000254722 0)
(0.659072 0.000220839 0)
(0.657433 0.000190479 0)
(0.655955 0.000162991 0)
(0.654638 0.000138126 0)
(0.653473 0.0001159 0)
(0.652454 9.63931e-05 0)
(0.651564 7.94189e-05 0)
(0.650794 6.48456e-05 0)
(0.650127 5.24018e-05 0)
(0.649556 4.18882e-05 0)
(0.649065 3.29759e-05 0)
(0.648651 2.55137e-05 0)
(0.648298 1.92444e-05 0)
(0.648008 1.40797e-05 0)
(0.647765 9.80401e-06 0)
(0.647573 6.39048e-06 0)
(0.647416 3.65146e-06 0)
(0.647303 1.58628e-06 0)
(0.647211 -3.16346e-08 0)
(0.647155 -1.06933e-06 0)
(0.647109 -1.76081e-06 0)
(0.64709 -2.07598e-06 0)
(0.647071 -2.1518e-06 0)
(0.647072 -1.99883e-06 0)
(0.647063 -1.74347e-06 0)
(0.647071 -1.41683e-06 0)
(0.647063 -1.05092e-06 0)
(0.64707 -7.44012e-07 0)
(0.64706 -3.61423e-07 0)
(0.647064 -1.82067e-07 0)
(0.647052 2.32487e-07 0)
(0.983564 0.0165824 0)
(0.983566 0.0214341 0)
(0.985618 0.0252706 0)
(0.989314 0.0268975 0)
(0.993533 0.0269834 0)
(0.997387 0.0263841 0)
(1.00063 0.0252072 0)
(1.00327 0.0232437 0)
(1.00524 0.0205999 0)
(1.00635 0.0177142 0)
(1.00657 0.0151648 0)
(1.00607 0.0133497 0)
(1.00517 0.0122395 0)
(1.00421 0.0115642 0)
(1.00337 0.0111043 0)
(1.00268 0.0107554 0)
(1.00209 0.0104738 0)
(1.00145 0.0102253 0)
(1.00065 0.00997649 0)
(0.999566 0.00970992 0)
(0.998127 0.00943363 0)
(0.996288 0.00916459 0)
(0.994036 0.00890547 0)
(0.991373 0.00864198 0)
(0.988312 0.00835721 0)
(0.984876 0.00804734 0)
(0.981111 0.00772206 0)
(0.97708 0.00739556 0)
(0.972849 0.00708125 0)
(0.968479 0.00678751 0)
(0.964004 0.00651757 0)
(0.959437 0.00626812 0)
(0.954775 0.0060299 0)
(0.949996 0.00579978 0)
(0.945076 0.00558526 0)
(0.939994 0.00539161 0)
(0.934733 0.00521052 0)
(0.929287 0.00502761 0)
(0.923654 0.00483725 0)
(0.917857 0.00464094 0)
(0.911932 0.00444146 0)
(0.905914 0.00424584 0)
(0.899834 0.00406089 0)
(0.893716 0.00388652 0)
(0.887576 0.00372172 0)
(0.881414 0.00356309 0)
(0.875233 0.00339902 0)
(0.869033 0.00322553 0)
(0.862817 0.00305463 0)
(0.856623 0.00288984 0)
(0.850518 0.00272079 0)
(0.844535 0.00254797 0)
(0.838687 0.0023799 0)
(0.833001 0.00221446 0)
(0.827494 0.00204892 0)
(0.822153 0.00188847 0)
(0.816973 0.00173311 0)
(0.811959 0.00157753 0)
(0.807126 0.00142353 0)
(0.802491 0.00127659 0)
(0.798093 0.00113796 0)
(0.79397 0.00100831 0)
(0.790152 0.000891294 0)
(0.786648 0.000788917 0)
(0.783453 0.000699491 0)
(0.780536 0.000620687 0)
(0.777861 0.000551264 0)
(0.775379 0.000489707 0)
(0.773056 0.000434318 0)
(0.770866 0.000383679 0)
(0.768813 0.00033683 0)
(0.766904 0.000293025 0)
(0.765159 0.000252386 0)
(0.76358 0.000215368 0)
(0.762173 0.000182402 0)
(0.760922 0.000153383 0)
(0.759823 0.0001282 0)
(0.758853 0.000106453 0)
(0.758008 8.78513e-05 0)
(0.757264 7.18733e-05 0)
(0.756622 5.82704e-05 0)
(0.756058 4.66048e-05 0)
(0.755577 3.6729e-05 0)
(0.755159 2.82772e-05 0)
(0.754813 2.12106e-05 0)
(0.754516 1.52419e-05 0)
(0.754282 1.04293e-05 0)
(0.754086 6.53183e-06 0)
(0.753945 3.61567e-06 0)
(0.753827 1.39672e-06 0)
(0.753755 -4.04282e-08 0)
(0.753692 -9.3518e-07 0)
(0.753664 -1.28891e-06 0)
(0.753631 -1.37629e-06 0)
(0.753625 -1.18108e-06 0)
(0.753603 -8.56755e-07 0)
(0.753604 -5.22158e-07 0)
(0.753582 -8.36452e-08 0)
(0.753584 1.2972e-07 0)
(0.753561 6.28396e-07 0)
(0.986629 0.0165395 0)
(0.986731 0.0206973 0)
(0.988534 0.0242903 0)
(0.991845 0.0261007 0)
(0.995841 0.0262736 0)
(0.999616 0.0255862 0)
(1.00278 0.0243902 0)
(1.00535 0.022597 0)
(1.00729 0.0202505 0)
(1.00851 0.0176554 0)
(1.00895 0.0152629 0)
(1.00874 0.0134558 0)
(1.00814 0.0123039 0)
(1.00749 0.0116064 0)
(1.007 0.0111423 0)
(1.00676 0.0107889 0)
(1.00673 0.010499 0)
(1.00681 0.0102475 0)
(1.00691 0.0100101 0)
(1.00692 0.00977246 0)
(1.00679 0.00953953 0)
(1.00646 0.0093221 0)
(1.00593 0.00911812 0)
(1.00516 0.00891136 0)
(1.00415 0.00868258 0)
(1.0029 0.0084244 0)
(1.00139 0.0081431 0)
(0.999672 0.00785057 0)
(0.997782 0.00755963 0)
(0.995769 0.00728006 0)
(0.993667 0.00701841 0)
(0.991495 0.00677504 0)
(0.989263 0.00654363 0)
(0.986958 0.00632314 0)
(0.984563 0.00612193 0)
(0.982059 0.0059454 0)
(0.979425 0.00578482 0)
(0.976633 0.00562428 0)
(0.973655 0.005456 0)
(0.970482 0.00527911 0)
(0.967124 0.00509429 0)
(0.963598 0.00490783 0)
(0.95993 0.00472692 0)
(0.956154 0.00455231 0)
(0.952296 0.00438496 0)
(0.948371 0.00422457 0)
(0.944372 0.00406054 0)
(0.940267 0.00388715 0)
(0.936033 0.00371448 0)
(0.931691 0.00354325 0)
(0.927294 0.00336059 0)
(0.922883 0.00316861 0)
(0.918494 0.00297896 0)
(0.914171 0.0027903 0)
(0.909938 0.00260118 0)
(0.905785 0.0024193 0)
(0.9017 0.00224495 0)
(0.897666 0.00207109 0)
(0.893667 0.00189815 0)
(0.889691 0.00172999 0)
(0.885764 0.00156565 0)
(0.881937 0.00140506 0)
(0.878282 0.00125357 0)
(0.874856 0.00111575 0)
(0.871702 0.00099234 0)
(0.868826 0.000883269 0)
(0.866211 0.000789034 0)
(0.863804 0.000708383 0)
(0.861543 0.000638318 0)
(0.859367 0.000575049 0)
(0.857254 0.000515357 0)
(0.855209 0.000457197 0)
(0.85327 0.000400809 0)
(0.851462 0.000347516 0)
(0.849817 0.00029878 0)
(0.848329 0.000255105 0)
(0.847003 0.000216725 0)
(0.845817 0.000183241 0)
(0.844769 0.000154345 0)
(0.843833 0.000129327 0)
(0.84301 0.000107845 0)
(0.842272 8.92203e-05 0)
(0.841628 7.32028e-05 0)
(0.841049 5.92037e-05 0)
(0.840553 4.7162e-05 0)
(0.840111 3.66502e-05 0)
(0.839747 2.77782e-05 0)
(0.839428 2.02056e-05 0)
(0.839181 1.41153e-05 0)
(0.838969 9.18599e-06 0)
(0.838822 5.59324e-06 0)
(0.838693 2.95389e-06 0)
(0.83862 1.36221e-06 0)
(0.838547 3.83126e-07 0)
(0.838517 6.42731e-08 0)
(0.838471 6.29387e-08 0)
(0.838462 2.71687e-07 0)
(0.838423 6.44357e-07 0)
(0.838421 8.51441e-07 0)
(0.838382 1.36213e-06 0)
(0.988906 0.0164907 0)
(0.989074 0.0200774 0)
(0.990689 0.0232874 0)
(0.993647 0.0251518 0)
(0.997382 0.0254586 0)
(1.00105 0.0247879 0)
(1.00417 0.0236135 0)
(1.00666 0.0219752 0)
(1.00855 0.019892 0)
(1.00977 0.0175684 0)
(1.01029 0.0153471 0)
(1.01018 0.0135686 0)
(1.00968 0.012375 0)
(1.00905 0.0116428 0)
(1.00856 0.0111633 0)
(1.0083 0.0107964 0)
(1.00828 0.0104871 0)
(1.00842 0.010217 0)
(1.00863 0.00997039 0)
(1.00885 0.00973582 0)
(1.00903 0.00951702 0)
(1.00914 0.00932163 0)
(1.00917 0.00914439 0)
(1.0091 0.00896811 0)
(1.00892 0.008773 0)
(1.00859 0.00854912 0)
(1.00813 0.00829938 0)
(1.00752 0.00803321 0)
(1.00679 0.00776201 0)
(1.00598 0.00749512 0)
(1.0051 0.00724056 0)
(1.00418 0.00700128 0)
(1.00322 0.00677301 0)
(1.00224 0.0065562 0)
(1.00123 0.00636022 0)
(1.00017 0.00619143 0)
(0.999077 0.0060424 0)
(0.997911 0.00589777 0)
(0.99664 0.00574905 0)
(0.995239 0.00559355 0)
(0.993699 0.0054297 0)
(0.992012 0.00526153 0)
(0.990188 0.00509442 0)
(0.988254 0.00492826 0)
(0.98624 0.00476508 0)
(0.984171 0.00460824 0)
(0.98205 0.0044509 0)
(0.979834 0.00428785 0)
(0.977479 0.00412705 0)
(0.974984 0.00396597 0)
(0.972373 0.00378821 0)
(0.969665 0.00359451 0)
(0.966901 0.00339764 0)
(0.964138 0.00319768 0)
(0.961409 0.00299549 0)
(0.958713 0.00280172 0)
(0.956045 0.00261835 0)
(0.953385 0.00243879 0)
(0.950695 0.00226371 0)
(0.947924 0.00209512 0)
(0.945052 0.0019276 0)
(0.9421 0.00175679 0)
(0.939143 0.00158683 0)
(0.936269 0.00142366 0)
(0.933563 0.00127072 0)
(0.931077 0.00113127 0)
(0.928839 0.00100973 0)
(0.926827 0.000908238 0)
(0.924982 0.000825158 0)
(0.923207 0.000754971 0)
(0.921436 0.000690612 0)
(0.919637 0.000626148 0)
(0.917846 0.000559999 0)
(0.916105 0.000493784 0)
(0.914474 0.000430528 0)
(0.912968 0.000372177 0)
(0.91161 0.000319997 0)
(0.91038 0.000273955 0)
(0.909285 0.000233933 0)
(0.908295 0.000199114 0)
(0.907415 0.000169132 0)
(0.906612 0.000143054 0)
(0.905898 0.000120514 0)
(0.905238 0.000100604 0)
(0.904657 8.31811e-05 0)
(0.90412 6.75808e-05 0)
(0.90366 5.39811e-05 0)
(0.90324 4.19197e-05 0)
(0.9029 3.17545e-05 0)
(0.902595 2.30582e-05 0)
(0.902369 1.62259e-05 0)
(0.902166 1.07788e-05 0)
(0.902037 7.03304e-06 0)
(0.901913 4.38925e-06 0)
(0.901851 2.97399e-06 0)
(0.901772 2.18105e-06 0)
(0.901747 1.98839e-06 0)
(0.901685 2.06867e-06 0)
(0.901677 2.18567e-06 0)
(0.901619 2.57644e-06 0)
(0.990545 0.0164006 0)
(0.99073 0.0195161 0)
(0.992187 0.0223213 0)
(0.994826 0.0241451 0)
(0.99827 0.0245904 0)
(1.0018 0.024008 0)
(1.00486 0.022886 0)
(1.00731 0.02138 0)
(1.00916 0.0195167 0)
(1.01039 0.0174354 0)
(1.01099 0.01539 0)
(1.01099 0.0136677 0)
(1.01058 0.0124483 0)
(1.01 0.0116813 0)
(1.00948 0.0111845 0)
(1.00916 0.0108065 0)
(1.00907 0.0104818 0)
(1.00914 0.0101937 0)
(1.0093 0.00993325 0)
(1.00949 0.00969166 0)
(1.00968 0.00947253 0)
(1.00986 0.00928284 0)
(1.01002 0.00911558 0)
(1.01016 0.00895245 0)
(1.01025 0.00877412 0)
(1.01028 0.00856996 0)
(1.01023 0.0083402 0)
(1.0101 0.00809204 0)
(1.00988 0.00783583 0)
(1.00961 0.00757987 0)
(1.00928 0.007332 0)
(1.00892 0.00709656 0)
(1.00854 0.00687039 0)
(1.00813 0.0066542 0)
(1.00772 0.00645772 0)
(1.0073 0.0062884 0)
(1.00689 0.00614063 0)
(1.00647 0.00600082 0)
(1.00602 0.00586119 0)
(1.00552 0.00571851 0)
(1.00495 0.00556984 0)
(1.00428 0.00541706 0)
(1.00352 0.00526308 0)
(1.00269 0.00510583 0)
(1.00179 0.00494699 0)
(1.00087 0.00479238 0)
(0.999931 0.00463954 0)
(0.998944 0.0044853 0)
(0.997862 0.00433677 0)
(0.996676 0.0041894 0)
(0.99539 0.00402402 0)
(0.993991 0.00383816 0)
(0.99251 0.00364311 0)
(0.991002 0.00343968 0)
(0.989503 0.00323113 0)
(0.988016 0.00303074 0)
(0.986548 0.00284221 0)
(0.985089 0.00266069 0)
(0.98361 0.00248949 0)
(0.982043 0.00233124 0)
(0.980326 0.00217663 0)
(0.978431 0.00201476 0)
(0.976403 0.00184497 0)
(0.974325 0.00167207 0)
(0.972299 0.00150104 0)
(0.970393 0.0013377 0)
(0.968676 0.00119022 0)
(0.967167 0.00106574 0)
(0.96585 0.000967595 0)
(0.964628 0.000891989 0)
(0.963406 0.000829132 0)
(0.962101 0.000767518 0)
(0.960721 0.000700904 0)
(0.9593 0.00062909 0)
(0.957917 0.000556118 0)
(0.956607 0.000485892 0)
(0.955412 0.000421529 0)
(0.954319 0.00036394 0)
(0.953345 0.000313551 0)
(0.952456 0.000269585 0)
(0.951664 0.000231787 0)
(0.95093 0.000199007 0)
(0.95027 0.000170797 0)
(0.949643 0.000145852 0)
(0.949076 0.00012389 0)
(0.948531 0.000103874 0)
(0.948048 8.60169e-05 0)
(0.947587 6.9645e-05 0)
(0.947199 5.53332e-05 0)
(0.946834 4.25271e-05 0)
(0.946552 3.19487e-05 0)
(0.946288 2.30031e-05 0)
(0.946109 1.63698e-05 0)
(0.945933 1.1255e-05 0)
(0.945838 8.10279e-06 0)
(0.945722 5.94546e-06 0)
(0.945678 4.99314e-06 0)
(0.94559 4.45176e-06 0)
(0.945574 4.34103e-06 0)
(0.945494 4.41101e-06 0)
(0.991749 0.0162789 0)
(0.991911 0.019004 0)
(0.993221 0.0214367 0)
(0.995573 0.0231452 0)
(0.998711 0.0236936 0)
(1.00205 0.0232302 0)
(1.00503 0.0221873 0)
(1.00744 0.0208008 0)
(1.00928 0.0191222 0)
(1.01053 0.0172539 0)
(1.01119 0.0153818 0)
(1.01132 0.0137412 0)
(1.01103 0.0125185 0)
(1.01053 0.0117226 0)
(1.01003 0.0112086 0)
(1.0097 0.0108241 0)
(1.00956 0.0104907 0)
(1.00958 0.0101888 0)
(1.00968 0.00991407 0)
(1.00982 0.00966179 0)
(1.00998 0.00943543 0)
(1.01014 0.00924219 0)
(1.01031 0.00907525 0)
(1.01049 0.0089152 0)
(1.01067 0.00874309 0)
(1.01082 0.00854909 0)
(1.01094 0.00833172 0)
(1.011 0.00809583 0)
(1.01101 0.00785111 0)
(1.01097 0.00760519 0)
(1.0109 0.00736478 0)
(1.01078 0.00713438 0)
(1.01064 0.00691166 0)
(1.01047 0.00669701 0)
(1.0103 0.00649962 0)
(1.01012 0.00632741 0)
(1.00996 0.00617645 0)
(1.00982 0.00603499 0)
(1.00969 0.00589651 0)
(1.00954 0.00575824 0)
(1.00937 0.00561694 0)
(1.00917 0.00547323 0)
(1.00891 0.00532808 0)
(1.0086 0.00517737 0)
(1.00825 0.00502144 0)
(1.0079 0.00486706 0)
(1.00756 0.00471524 0)
(1.00719 0.00456521 0)
(1.00678 0.004424 0)
(1.00632 0.0042865 0)
(1.00579 0.00413236 0)
(1.00519 0.00395611 0)
(1.0045 0.00376615 0)
(1.00379 0.0035629 0)
(1.00307 0.00335153 0)
(1.00236 0.00314726 0)
(1.00167 0.00295478 0)
(1.00099 0.00277066 0)
(1.00032 0.00260174 0)
(0.999598 0.00245395 0)
(0.998761 0.00231685 0)
(0.997739 0.00217332 0)
(0.996543 0.00201585 0)
(0.995228 0.00184585 0)
(0.993886 0.00166865 0)
(0.992576 0.00149151 0)
(0.991372 0.00132455 0)
(0.990318 0.00117872 0)
(0.989443 0.00106347 0)
(0.988685 0.000980157 0)
(0.987958 0.000919592 0)
(0.98715 0.000865633 0)
(0.986237 0.000805838 0)
(0.985227 0.000735791 0)
(0.984198 0.000659004 0)
(0.983194 0.00058102 0)
(0.982271 0.000507279 0)
(0.981423 0.000440186 0)
(0.980673 0.000381115 0)
(0.979988 0.000329521 0)
(0.979383 0.000285395 0)
(0.978815 0.000247431 0)
(0.978304 0.000215179 0)
(0.9778 0.000186902 0)
(0.977335 0.000162145 0)
(0.976864 0.000139347 0)
(0.976434 0.00011869 0)
(0.975999 9.91627e-05 0)
(0.975621 8.1585e-05 0)
(0.975246 6.52052e-05 0)
(0.974946 5.11433e-05 0)
(0.97465 3.86363e-05 0)
(0.974442 2.88801e-05 0)
(0.974229 2.08618e-05 0)
(0.974106 1.55438e-05 0)
(0.973957 1.15324e-05 0)
(0.973896 9.48025e-06 0)
(0.973782 7.9573e-06 0)
(0.973758 7.46327e-06 0)
(0.973656 6.96379e-06 0)
(0.992696 0.0161434 0)
(0.992808 0.0185327 0)
(0.993976 0.0206332 0)
(0.996072 0.0221761 0)
(0.998908 0.0227808 0)
(1.00203 0.0224449 0)
(1.00491 0.0215072 0)
(1.00726 0.0202368 0)
(1.00907 0.0187163 0)
(1.01034 0.0170321 0)
(1.01106 0.0153252 0)
(1.01129 0.0137844 0)
(1.01114 0.012581 0)
(1.01074 0.0117647 0)
(1.0103 0.0112333 0)
(1.00998 0.0108431 0)
(1.00984 0.0105046 0)
(1.00983 0.0101918 0)
(1.00991 0.00990405 0)
(1.01003 0.00964106 0)
(1.01016 0.00940599 0)
(1.0103 0.0092052 0)
(1.01046 0.00903371 0)
(1.01064 0.00887213 0)
(1.01083 0.00870086 0)
(1.01102 0.0085113 0)
(1.0112 0.00830161 0)
(1.01134 0.0080743 0)
(1.01145 0.00783821 0)
(1.01152 0.00760109 0)
(1.01156 0.00736855 0)
(1.01156 0.0071442 0)
(1.01154 0.0069263 0)
(1.01148 0.00671525 0)
(1.01141 0.006519 0)
(1.01133 0.00634513 0)
(1.01127 0.00619097 0)
(1.01122 0.0060463 0)
(1.01118 0.00590567 0)
(1.01115 0.00576709 0)
(1.01113 0.00562784 0)
(1.01109 0.0054882 0)
(1.01103 0.00534795 0)
(1.01094 0.00520139 0)
(1.01083 0.00504727 0)
(1.01072 0.00489234 0)
(1.01062 0.00473992 0)
(1.01052 0.00459109 0)
(1.0104 0.00445287 0)
(1.01025 0.00432024 0)
(1.01009 0.00417315 0)
(1.00988 0.00400437 0)
(1.00961 0.0038195 0)
(1.00931 0.0036178 0)
(1.00901 0.00340553 0)
(1.00871 0.00319929 0)
(1.00841 0.00300403 0)
(1.00813 0.00281665 0)
(1.00787 0.00264685 0)
(1.0076 0.00250493 0)
(1.00727 0.00238199 0)
(1.00679 0.00225684 0)
(1.00617 0.00211522 0)
(1.00542 0.00195401 0)
(1.00462 0.00177816 0)
(1.0038 0.00159595 0)
(1.00301 0.00141807 0)
(1.0023 0.00125678 0)
(1.00172 0.00112604 0)
(1.00124 0.0010332 0)
(1.00081 0.000972519 0)
(1.00034 0.000925838 0)
(0.999774 0.000875203 0)
(0.999107 0.000810903 0)
(0.998401 0.000734439 0)
(0.997691 0.000652093 0)
(0.99704 0.000571521 0)
(0.996444 0.000496873 0)
(0.995933 0.000430781 0)
(0.995469 0.000373099 0)
(0.995074 0.000324184 0)
(0.994699 0.000282615 0)
(0.994366 0.000248019 0)
(0.994021 0.000218224 0)
(0.993697 0.000192609 0)
(0.993342 0.00016897 0)
(0.993009 0.000147383 0)
(0.992644 0.000126354 0)
(0.99232 0.000106935 0)
(0.991974 8.80894e-05 0)
(0.991692 7.14017e-05 0)
(0.991396 5.58647e-05 0)
(0.991183 4.32992e-05 0)
(0.990952 3.24005e-05 0)
(0.990815 2.48369e-05 0)
(0.990643 1.87173e-05 0)
(0.99057 1.53705e-05 0)
(0.990434 1.2575e-05 0)
(0.990403 1.15757e-05 0)
(0.99028 1.02567e-05 0)
(0.993499 0.0160014 0)
(0.993545 0.0180908 0)
(0.994574 0.0198968 0)
(0.996449 0.0212569 0)
(0.999007 0.0218759 0)
(1.0019 0.0216587 0)
(1.00464 0.0208412 0)
(1.00694 0.0196859 0)
(1.00871 0.0183047 0)
(1.00997 0.016781 0)
(1.01074 0.0152294 0)
(1.01107 0.0137975 0)
(1.01103 0.0126312 0)
(1.01074 0.0118025 0)
(1.01037 0.0112522 0)
(1.01008 0.0108535 0)
(1.00995 0.0105108 0)
(1.00995 0.0101911 0)
(1.01002 0.00989409 0)
(1.01013 0.00962307 0)
(1.01025 0.00938114 0)
(1.01038 0.00917227 0)
(1.01053 0.00899364 0)
(1.0107 0.00882824 0)
(1.01089 0.00865546 0)
(1.01109 0.00846691 0)
(1.01128 0.00826173 0)
(1.01146 0.0080408 0)
(1.0116 0.00781131 0)
(1.01172 0.00758138 0)
(1.01182 0.00735648 0)
(1.01188 0.00713872 0)
(1.01191 0.00692619 0)
(1.01192 0.00671978 0)
(1.01191 0.00652654 0)
(1.01188 0.00635295 0)
(1.01186 0.00619704 0)
(1.01184 0.00604992 0)
(1.01184 0.00590682 0)
(1.01184 0.00576635 0)
(1.01186 0.00562672 0)
(1.01187 0.00548838 0)
(1.01188 0.00535045 0)
(1.01187 0.0052062 0)
(1.01186 0.00505317 0)
(1.01184 0.00489774 0)
(1.01184 0.00474467 0)
(1.01183 0.00459608 0)
(1.01181 0.00445855 0)
(1.01179 0.0043273 0)
(1.01178 0.00418348 0)
(1.01174 0.00401943 0)
(1.01166 0.00383872 0)
(1.01156 0.00363921 0)
(1.01145 0.00342752 0)
(1.01133 0.00322107 0)
(1.0112 0.00302473 0)
(1.01108 0.00283487 0)
(1.01097 0.00266274 0)
(1.01088 0.00252239 0)
(1.01076 0.00240779 0)
(1.01057 0.00229608 0)
(1.01027 0.00216794 0)
(1.00987 0.00201594 0)
(1.00943 0.00184432 0)
(1.00894 0.00166234 0)
(1.00845 0.00148089 0)
(1.00797 0.00131176 0)
(1.00755 0.00117071 0)
(1.00719 0.00106951 0)
(1.00688 0.00100667 0)
(1.00655 0.000964331 0)
(1.00617 0.000921094 0)
(1.00572 0.000862558 0)
(1.00523 0.000787655 0)
(1.00473 0.00070254 0)
(1.00428 0.000616591 0)
(1.00388 0.000535588 0)
(1.00356 0.000463544 0)
(1.00327 0.000400806 0)
(1.00305 0.000348188 0)
(1.00283 0.000304166 0)
(1.00265 0.000268498 0)
(1.00245 0.000238579 0)
(1.00226 0.00021366 0)
(1.00202 0.000190815 0)
(1.00178 0.00016997 0)
(1.0015 0.000149005 0)
(1.00124 0.00012918 0)
(1.00094 0.000109085 0)
(1.00069 9.0819e-05 0)
(1.00042 7.30456e-05 0)
(1.00022 5.8289e-05 0)
(0.999984 4.48592e-05 0)
(0.999845 3.52695e-05 0)
(0.999661 2.70377e-05 0)
(0.999581 2.23808e-05 0)
(0.999429 1.81412e-05 0)
(0.999394 1.65782e-05 0)
(0.999255 1.42316e-05 0)
(0.994211 0.0158519 0)
(0.994183 0.0176716 0)
(0.995083 0.0192196 0)
(0.996767 0.0203998 0)
(0.999078 0.0209976 0)
(1.00174 0.0208762 0)
(1.00434 0.020181 0)
(1.00656 0.0191428 0)
(1.00829 0.0178918 0)
(1.00955 0.0165125 0)
(1.01035 0.0151043 0)
(1.01074 0.0137807 0)
(1.0108 0.0126621 0)
(1.01061 0.0118292 0)
(1.01032 0.0112602 0)
(1.01007 0.0108511 0)
(1.00995 0.0105055 0)
(1.00996 0.0101837 0)