0 	0 	0 	0
2.5125628e-05 	0.022578275 	-2.816069e-07 	0
5.0251256e-05 	0.045185173 	-5.9145646e-07 	0
7.5376884e-05 	0.067854578 	-9.706365e-07 	0
0.00010050251 	0.089981033 	-1.3471071e-06 	0
0.00012562814 	0.1117874 	-1.7219803e-06 	0
0.00015075377 	0.13329601 	-1.4698655e-06 	0
0.0001758794 	0.15466099 	-1.1456472e-06 	0
0.00020100503 	0.17530966 	-8.6715043e-07 	0
0.00022613065 	0.19560827 	2.4809181e-07 	0
0.00025125628 	0.21509492 	3.2301375e-06 	0
0.00027638191 	0.23422509 	6.115823e-06 	0
0.00030150754 	0.25296836 	8.8969227e-06 	0
0.00032663317 	0.27062589 	1.4703878e-05 	0
0.00035175879 	0.28751049 	2.2589964e-05 	0
0.00037688442 	0.3039496 	3.0164324e-05 	0
0.00040201005 	0.32018851 	3.7598599e-05 	0
0.00042713568 	0.33472828 	5.0262907e-05 	0
0.00045226131 	0.34860447 	6.4872331e-05 	0
0.00047738693 	0.36208154 	7.8889875e-05 	0
0.00050251256 	0.37542526 	9.2709645e-05 	0
0.00052763819 	0.38692788 	0.00011180554 	0
0.00055276382 	0.39764301 	0.00013302688 	0
0.00057788945 	0.40808887 	0.00015351413 	0
0.00060301508 	0.41839122 	0.00017361011 	0
0.0006281407 	0.42732436 	0.00019638126 	0
0.00065326633 	0.43500307 	0.00022141296 	0
0.00067839196 	0.4425654 	0.00024592231 	0
0.00070351759 	0.44994726 	0.00026962159 	0
0.00072864322 	0.45691391 	0.00029355745 	0
0.00075376884 	0.46195171 	0.00031809074 	0
0.00077889447 	0.46698951 	0.00034262404 	0
0.0008040201 	0.47183953 	0.00036586875 	0
0.00082914573 	0.47668218 	0.00038906282 	0
0.00085427136 	0.48030226 	0.00041056843 	0
0.00087939698 	0.48329123 	0.00043110103 	0
0.00090452261 	0.48623899 	0.00045121469 	0
0.00092964824 	0.4891122 	0.00047057065 	0
0.00095477387 	0.49196916 	0.00048988297 	0
0.0009798995 	0.49362241 	0.00050536301 	0
0.0010050251 	0.49521079 	0.00052060043 	0
0.0010301508 	0.49676443 	0.00053530354 	0
0.0010552764 	0.49829148 	0.0005495979 	0
0.001080402 	0.49975809 	0.00056363024 	0
0.0011055276 	0.50050868 	0.00057424818 	0
0.0011306533 	0.50125927 	0.00058486612 	0
0.0011557789 	0.50199297 	0.00059505632 	0
0.0011809045 	0.50271477 	0.00060494497 	0
0.0012060302 	0.5034227 	0.00061475874 	0
0.0012311558 	0.50375031 	0.00062236263 	0
0.0012562814 	0.50406372 	0.00062987774 	0
0.001281407 	0.50437227 	0.00063715786 	0
0.0013065327 	0.50467378 	0.00064409734 	0
0.0013316583 	0.50497529 	0.00065103683 	0
0.0013567839 	0.50514251 	0.00065717025 	0
0.0013819095 	0.50525706 	0.00066298037 	0
0.0014070352 	0.50537152 	0.00066877904 	0
0.0014321608 	0.50548181 	0.00067410967 	0
0.0014572864 	0.5055921 	0.00067944029 	0
0.0014824121 	0.50568543 	0.00068470012 	0
0.0015075377 	0.50572112 	0.00068971058 	0
0.0015326633 	0.50575682 	0.00069472103 	0
0.0015577889 	0.50579197 	0.00069955219 	0
0.0015829146 	0.50582639 	0.00070414102 	0
0.0016080402 	0.50586082 	0.00070872984 	0
0.0016331658 	0.50588174 	0.00071336093 	0
0.0016582915 	0.50589012 	0.0007180302 	0
0.0016834171 	0.5058985 	0.00072269947 	0
0.0017085427 	0.50590672 	0.00072713711 	0
0.0017336683 	0.50591485 	0.00073142273 	0
0.001758794 	0.50592298 	0.00073570835 	0
0.0017839196 	0.50592642 	0.00074012797 	0
0.0018090452 	0.50592649 	0.00074464411 	0
0.0018341709 	0.50592656 	0.00074916026 	0
0.0018592965 	0.50592667 	0.00075348132 	0
0.0018844221 	0.5059268 	0.00075764316 	0
0.0019095477 	0.50592694 	0.00076180501 	0
0.0019346734 	0.50592612 	0.00076607466 	0
0.001959799 	0.50592394 	0.00077050122 	0
0.0019849246 	0.50592177 	0.00077492778 	0
0.0020100503 	0.50591963 	0.00077927002 	0
0.0020351759 	0.5059176 	0.00078336793 	0
0.0020603015 	0.50591557 	0.00078746584 	0
0.0020854271 	0.50591351 	0.00079157328 	0
0.0021105528 	0.50591079 	0.00079591517 	0
0.0021356784 	0.50590805 	0.00080026968 	0
0.002160804 	0.5059053 	0.0008046242 	0
0.0021859296 	0.50590267 	0.00080876173 	0
0.0022110553 	0.50590009 	0.0008128115 	0
0.0022361809 	0.50589751 	0.00081686126 	0
0.0022613065 	0.50589481 	0.0008209847 	0
0.0022864322 	0.5058919 	0.00082526978 	0
0.0023115578 	0.50588899 	0.00082955486 	0
0.0023366834 	0.50588608 	0.00083383994 	0
0.002361809 	0.50588332 	0.00083786941 	0
0.0023869347 	0.50588058 	0.00084187267 	0
0.0024120603 	0.50587784 	0.00084587593 	0
0.0024371859 	0.50587499 	0.00084995777 	0
0.0024623116 	0.50587201 	0.000854172 	0
0.0024874372 	0.50586902 	0.00085838622 	0
0.0025125628 	0.50586603 	0.00086260044 	0
0.0025376884 	0.50586319 	0.00086659882 	0
0.0025628141 	0.50586037 	0.00087055336 	0
0.0025879397 	0.50585756 	0.00087450789 	0
0.0026130653 	0.50585469 	0.00087849147 	0
0.002638191 	0.50585164 	0.0008826328 	0
0.0026633166 	0.5058486 	0.00088677414 	0
0.0026884422 	0.50584555 	0.00089091548 	0
0.0027135678 	0.50584259 	0.00089494395 	0
0.0027386935 	0.50583971 	0.00089884702 	0
0.0027638191 	0.50583684 	0.00090275009 	0
0.0027889447 	0.50583397 	0.00090665316 	0
0.0028140704 	0.50583093 	0.00091066223 	0
0.002839196 	0.50582783 	0.00091472815 	0
0.0028643216 	0.50582473 	0.00091879407 	0
0.0028894472 	0.50582162 	0.00092285999 	0
0.0029145729 	0.50581867 	0.00092674687 	0
0.0029396985 	0.50581574 	0.00093059537 	0
0.0029648241 	0.50581282 	0.00093444387 	0
0.0029899497 	0.50580989 	0.00093829238 	0
0.0030150754 	0.50580676 	0.00094225883 	0
0.003040201 	0.5058036 	0.00094624655 	0
0.0030653266 	0.50580044 	0.00095023426 	0
0.0030904523 	0.50579729 	0.00095422198 	0
0.0031155779 	0.50579429 	0.00095803843 	0
0.0031407035 	0.50579131 	0.000961829 	0
0.0031658291 	0.50578834 	0.00096561957 	0
0.0031909548 	0.50578536 	0.00096941014 	0
0.0032160804 	0.5057822 	0.00097328586 	0
0.003241206 	0.50577899 	0.00097719272 	0
0.0032663317 	0.50577578 	0.00098109957 	0
0.0032914573 	0.50577257 	0.00098500643 	0
0.0033165829 	0.50576947 	0.00098880729 	0
0.0033417085 	0.50576645 	0.00099253671 	0
0.0033668342 	0.50576342 	0.00099626614 	0
0.0033919598 	0.5057604 	0.00099999557 	0
0.0034170854 	0.50575728 	0.0010037525 	0
0.0034422111 	0.50575402 	0.0010075756 	0
0.0034673367 	0.50575076 	0.0010113988 	0
0.0034924623 	0.5057475 	0.0010152219 	0
0.0035175879 	0.50574424 	0.001019045 	0
0.0035427136 	0.50574117 	0.0010227105 	0
0.0035678392 	0.50573809 	0.0010263755 	0
0.0035929648 	0.50573502 	0.0010300404 	0
0.0036180905 	0.50573194 	0.0010337054 	0
0.0036432161 	0.50572872 	0.0010374072 	0
0.0036683417 	0.50572541 	0.0010411436 	0
0.0036934673 	0.5057221 	0.00104488 	0
0.003718593 	0.50571879 	0.0010486165 	0
0.0037437186 	0.50571549 	0.0010523453 	0
0.0037688442 	0.50571236 	0.0010559423 	0
0.0037939698 	0.50570924 	0.0010595394 	0
0.0038190955 	0.50570612 	0.0010631364 	0
0.0038442211 	0.50570299 	0.0010667334 	0
0.0038693467 	0.50569975 	0.0010703495 	0
0.0038944724 	0.50569639 	0.0010739962 	0
0.003919598 	0.50569303 	0.0010776429 	0
0.0039447236 	0.50568967 	0.0010812896 	0
0.0039698492 	0.5056863 	0.0010849363 	0
0.0039949749 	0.50568309 	0.0010884915 	0
0.0040201005 	0.50567991 	0.0010920171 	0
0.0040452261 	0.50567674 	0.0010955428 	0
0.0040703518 	0.50567357 	0.0010990684 	0
0.0040954774 	0.50567039 	0.0011025944 	0
0.004120603 	0.50566699 	0.0011061443 	0
0.0041457286 	0.50566358 	0.0011096982 	0
0.0041708543 	0.50566016 	0.0011132521 	0
0.0041959799 	0.50565675 	0.0011168061 	0
0.0042211055 	0.50565336 	0.0011203511 	0
0.0042462312 	0.50565014 	0.0011238018 	0
0.0042713568 	0.50564692 	0.0011272525 	0
0.0042964824 	0.5056437 	0.0011307032 	0
0.004321608 	0.50564048 	0.0011341539 	0
0.0043467337 	0.50563723 	0.001137604 	0
0.0043718593 	0.50563377 	0.0011410613 	0
0.0043969849 	0.50563031 	0.0011445193 	0
0.0044221106 	0.50562685 	0.0011479773 	0
0.0044472362 	0.50562339 	0.0011514353 	0
0.0044723618 	0.50561994 	0.0011548905 	0
0.0044974874 	0.50561667 	0.0011582627 	0
0.0045226131 	0.50561341 	0.001161635 	0
0.0045477387 	0.50561014 	0.0011650072 	0
0.0045728643 	0.50560688 	0.0011683794 	0
0.0045979899 	0.50560361 	0.0011717517 	0
0.0046231156 	0.50560013 	0.0011751109 	0
0.0046482412 	0.50559662 	0.0011784699 	0
0.0046733668 	0.50559312 	0.0011818288 	0
0.0046984925 	0.50558961 	0.0011851878 	0
0.0047236181 	0.5055861 	0.0011885468 	0
0.0047487437 	0.50558271 	0.0011918659 	0
0.0047738693 	0.5055794 	0.001195156 	0
0.004798995 	0.50557609 	0.0011984462 	0
0.0048241206 	0.50557278 	0.0012017364 	0
0.0048492462 	0.50556947 	0.0012050265 	0
0.0048743719 	0.5055661 	0.0012083091 	0
0.0048994975 	0.50556255 	0.0012115658 	0
0.0049246231 	0.50555899 	0.0012148226 	0
0.0049497487 	0.50555544 	0.0012180793 	0
0.0049748744 	0.50555189 	0.0012213361 	0
0.005 	0.50554833 	0.0012245928 	0
