/*--------------------------------*- C++ -*----------------------------------*\
| =========                 |                                                 |
| \\      /  F ield         | OpenFOAM: The Open Source CFD Toolbox           |
|  \\    /   O peration     | Version:  5.x                                   |
|   \\  /    A nd           | Web:      www.OpenFOAM.org                      |
|    \\/     M anipulation  |                                                 |
\*---------------------------------------------------------------------------*/
FoamFile
{
    version     2.0;
    format      ascii;
    class       volScalarField;
    location    "0.1";
    object      p;
}
// * * * * * * * * * * * * * * * * * * * * * * * * * * * * * * * * * * * * * //

dimensions      [0 2 -2 0 0 0 0];

internalField   nonuniform List<scalar> 
2475
(
0.0331883
0.0291188
0.0228932
0.0168742
0.0109955
0.0050723
-0.000378322
-0.004151
-0.00544479
-0.00476834
-0.00331428
-0.00193784
-0.000999083
-0.000544674
-0.000434851
-0.000481767
-0.000534914
-0.000560231
-0.000605872
-0.000651624
-0.000662266
-0.000667461
-0.000675002
-0.000689771
-0.000667723
-0.000677281
-0.000756685
-0.00076182
-0.000708147
-0.000752178
-0.000763515
-0.000696311
-0.000610559
-0.000454391
-0.000246525
0.0298358
0.0277168
0.0224616
0.0166374
0.0108795
0.00517304
-6.33117e-05
-0.00376915
-0.00516055
-0.0045934
-0.00320077
-0.00185833
-0.000942437
-0.000503264
-0.000403363
-0.000456745
-0.000514094
-0.000542096
-0.000590203
-0.000638033
-0.000650124
-0.000656626
-0.000665412
-0.000681363
-0.000660218
-0.000670321
-0.000750858
-0.000756732
-0.000703338
-0.000747893
-0.000760064
-0.000693107
-0.000607998
-0.000451991
-0.000244784
0.0272194
0.0263701
0.0221201
0.016556
0.0108988
0.00544491
0.000540316
-0.00304066
-0.00461255
-0.00430216
-0.00306078
-0.00178818
-0.00089725
-0.000465033
-0.00036723
-0.000423033
-0.000484277
-0.000516831
-0.000569506
-0.000621113
-0.000635832
-0.000644309
-0.000654662
-0.000672123
-0.000652117
-0.00066311
-0.000744971
-0.000751551
-0.000698468
-0.000743752
-0.000756649
-0.000689938
-0.000605523
-0.000449922
-0.000243362
0.0251883
0.0250048
0.0216668
0.0165036
0.010998
0.00578635
0.00120566
-0.00221108
-0.00392193
-0.00390137
-0.00286982
-0.00168672
-0.00082247
-0.000398436
-0.000306626
-0.000369279
-0.000438707
-0.000479577
-0.000539205
-0.000596297
-0.000615415
-0.000626975
-0.000639098
-0.000658378
-0.000640299
-0.000652756
-0.000736091
-0.000743763
-0.000691603
-0.000737808
-0.000751418
-0.000685168
-0.000601707
-0.000447016
-0.000241211
0.0234801
0.0236177
0.0210353
0.0163983
0.0111336
0.00615114
0.00185197
-0.00139571
-0.0031962
-0.003447
-0.00264666
-0.00156896
-0.00073262
-0.000313668
-0.000226898
-0.000297196
-0.000376721
-0.00042827
-0.000496515
-0.000560503
-0.00058593
-0.000602071
-0.000616475
-0.000638063
-0.00062329
-0.000637908
-0.000722497
-0.000731805
-0.000681693
-0.000728692
-0.000742889
-0.000677444
-0.000595328
-0.000442038
-0.000237084
0.0219694
0.0222622
0.0202643
0.0162248
0.0112972
0.00654266
0.00247598
-0.000615463
-0.00246594
-0.00295367
-0.00239217
-0.00143863
-0.000636876
-0.000220211
-0.000135267
-0.000212819
-0.000303865
-0.000367475
-0.000444885
-0.000516003
-0.00054847
-0.000569975
-0.000586931
-0.000610996
-0.000600913
-0.000618216
-0.000703527
-0.000714955
-0.000668353
-0.000715741
-0.000730236
-0.000665906
-0.000585747
-0.00043425
-0.000229996
0.0206016
0.0209963
0.0194437
0.0159921
0.0114737
0.00695956
0.00308305
0.000122569
-0.00174695
-0.00242845
-0.00210208
-0.00129199
-0.000535845
-0.000120395
-3.33575e-05
-0.000117388
-0.000221702
-0.000299275
-0.000387042
-0.000465799
-0.000505629
-0.000532638
-0.000552183
-0.000578743
-0.000574337
-0.000594561
-0.000680079
-0.000693782
-0.000651938
-0.000699155
-0.00071362
-0.000650418
-0.000572921
-0.000423557
-0.000219885
0.0193621
0.0198616
0.0186455
0.015712
0.0116325
0.00738069
0.00367091
0.000817535
-0.00105037
-0.00187967
-0.00177335
-0.00112328
-0.00042739
-1.52888e-05
7.7307e-05
-1.13734e-05
-0.000130072
-0.000223834
-0.000323793
-0.000411164
-0.000458775
-0.000491334
-0.000513462
-0.000542498
-0.0005444
-0.000567881
-0.000653445
-0.000669335
-0.000633072
-0.000679786
-0.000693993
-0.000631718
-0.000557394
-0.000410652
-0.000207821
0.0182468
0.0188679
0.0179059
0.0153978
0.0117501
0.00778316
0.00423667
0.00147479
-0.000381165
-0.00131759
-0.0014073
-0.000927679
-0.000308747
9.3873e-05
0.000194123
0.000104039
-2.87139e-05
-0.0001407
-0.00025499
-0.000352254
-0.000408284
-0.000446598
-0.000471273
-0.000502665
-0.000511353
-0.000538669
-0.000624316
-0.000642243
-0.000612104
-0.000658334
-0.00067211
-0.000610728
-0.000539798
-0.000396406
-0.000195065
0.017238
0.0179947
0.0172393
0.0150703
0.0118193
0.00815106
0.00477505
0.00209827
0.00025831
-0.000753469
-0.00100991
-0.000702328
-0.00017701
0.000206712
0.000315216
0.000227609
8.26211e-05
-4.8954e-05
-0.000179933
-0.000288787
-0.00035413
-0.000398541
-0.000425647
-0.000459212
-0.00047522
-0.000507092
-0.000592801
-0.000612681
-0.000589158
-0.00063516
-0.000648237
-0.000588025
-0.000520584
-0.00038137
-0.000182345
0.0163092
0.0172159
0.0166482
0.0147505
0.0118443
0.00847203
0.00527704
0.0026883
0.000867371
-0.000197096
-0.000589434
-0.000446203
-2.82495e-05
0.0003253
0.000440329
0.000358062
0.000203498
5.21501e-05
-9.77271e-05
-0.00022034
-0.000296111
-0.000346966
-0.000376422
-0.000412065
-0.000435932
-0.000473084
-0.000558736
-0.000580609
-0.000564253
-0.000610389
-0.000622379
-0.000563836
-0.000500017
-0.000365772
-0.000169928
0.0154389
0.0165114
0.0161259
0.0144514
0.0118351
0.00874105
0.00573472
0.00324227
0.00144499
0.000343291
-0.000154703
-0.000159556
0.000142296
0.000452996
0.000569542
0.000493751
0.000332522
0.000162783
-7.34284e-06
-0.00014621
-0.000233906
-0.000291578
-0.000323442
-0.000361181
-0.000393311
-0.000436498
-0.000521963
-0.000545913
-0.000537341
-0.000584036
-0.000594468
-0.000538201
-0.000478247
-0.000349662
-0.000157885
0.0146156
0.015867
0.0156621
0.01418
0.0118041
0.00896134
0.00614288
0.00375439
0.00198838
0.000862316
0.000286188
0.000155257
0.000338262
0.000592574
0.000703178
0.000633764
0.00046821
0.000282305
9.18599e-05
-6.54773e-05
-0.000167066
-0.000232147
-0.000266447
-0.000306372
-0.000347175
-0.000397278
-0.000482378
-0.000508395
-0.000508294
-0.000556063
-0.000564427
-0.000511077
-0.000455373
-0.000333014
-0.000146245
0.0138348
0.0152717
0.0152465
0.0139386
0.0117618
0.00913844
0.00649875
0.00421845
0.00249441
0.00135726
0.000725398
0.000492003
0.000560516
0.000747001
0.000843126
0.000778417
0.000609288
0.000408947
0.000199467
2.27612e-05
-9.47603e-05
-0.000168403
-0.000205067
-0.000247335
-0.000297503
-0.000355476
-0.000439848
-0.000467789
-0.000476922
-0.000526399
-0.000532216
-0.000482393
-0.000431451
-0.000315784
-0.000135025
0.0130953
0.0147176
0.0148693
0.0137239
0.0117137
0.00927726
0.00680244
0.00463108
0.00295993
0.00182494
0.00115473
0.000842006
0.000808116
0.000920106
0.000991966
0.000928138
0.000754945
0.00054092
0.000314291
0.000118893
-1.58312e-05
-9.97925e-05
-0.000139111
-0.000183869
-0.000244244
-0.000311004
-0.000394143
-0.0004239
-0.000443103
-0.000494928
-0.000497818
-0.000452102
-0.00040653
-0.000297941
-0.000124235
0.0123961
0.0141975
0.0145204
0.0135299
0.0116635
0.00938283
0.00705672
0.00499199
0.00338094
0.00226045
0.00156745
0.00119747
0.00107797
0.00111421
0.00115164
0.00108329
0.000905163
0.000677398
0.000434658
0.000221989
7.05865e-05
-2.51041e-05
-6.83936e-05
-0.000115894
-0.000187169
-0.000263718
-0.000345091
-0.000376649
-0.000406789
-0.000461422
-0.000461146
-0.000420176
-0.000380668
-0.000279466
-0.000113858
0.0117352
0.0137057
0.0141915
0.0133493
0.0116123
0.00946089
0.00726581
0.00530208
0.0037536
0.00265939
0.00195924
0.00155164
0.00136379
0.00132867
0.00132453
0.00124492
0.00106014
0.000817949
0.000558819
0.000330106
0.000164483
5.7507e-05
7.8704e-06
-4.35931e-05
-0.000126242
-0.00021361
-0.000292567
-0.000325875
-0.000367955
-0.000425636
-0.000422107
-0.000386651
-0.000353925
-0.000260318
-0.000103842
0.0111124
0.0132393
0.0138767
0.0131741
0.0115582
0.00951707
0.00743365
0.0055625
0.00407614
0.00301873
0.00232587
0.00189768
0.00165851
0.00156089
0.00151302
0.00141451
0.00121968
0.0009622
0.000686004
0.000441803
0.000264666
0.000149199
9.123e-05
3.26969e-05
-6.18549e-05
-0.000160437
-0.000236151
-0.000271362
-0.000326804
-0.000387475
-0.000380533
-0.000351547
-0.00032642
-0.000240513
-9.41124e-05
0.0105281
0.0127971
0.0135719
0.0129979
0.0114968
0.00955411
0.00756354
0.00577549
0.00434924
0.00333527
0.00266262
0.00222944
0.00195659
0.00180644
0.00171638
0.00159321
0.00138346
0.00110954
0.000816017
0.000557035
0.000369296
0.000248989
0.000183387
0.000113512
5.37693e-06
-0.000103991
-0.000175455
-0.000213027
-0.000283656
-0.000346969
-0.000336136
-0.000314719
-0.000298252
-0.000220138
-8.45937e-05
0.00998163
0.0123785
0.0132752
0.0128168
0.0114219
0.00957079
0.00765966
0.00594531
0.00457581
0.00360627
0.00296561
0.00254197
0.002253
0.00206071
0.00193088
0.00178158
0.00155161
0.00125878
0.000948103
0.000676358
0.000477818
0.000354341
0.000284777
0.000200797
7.50863e-05
-4.46629e-05
-0.000110196
-0.000150613
-0.000238515
-0.000304272
-0.000288885
-0.000276033
-0.000269428
-0.000199273
-7.52367e-05
0.00947043
0.0119823
0.0129854
0.0126276
0.0113279
0.0095638
0.00772661
0.00607727
0.00476019
0.00383164
0.0032311
0.00283068
0.00254162
0.00232056
0.00215215
0.00197791
0.00172507
0.0014087
0.00108044
0.000799247
0.000592446
0.000464096
0.000392984
0.000295915
0.000147715
1.66946e-05
-3.9988e-05
-8.35823e-05
-0.000191255
-0.000259723
-0.000239047
-0.000235312
-0.000239896
-0.000178066
-6.59856e-05
0.00899112
0.0116053
0.0127006
0.0124281
0.011212
0.00952884
0.00776462
0.00617461
0.00490615
0.00401493
0.00345568
0.00309128
0.00281612
0.00258241
0.00237747
0.00217775
0.00190409
0.00155808
0.00121007
0.000923398
0.000715549
0.000580915
0.000503367
0.00039705
0.000225681
8.01298e-05
3.46773e-05
-1.19238e-05
-0.000141724
-0.000213492
-0.000187112
-0.000192283
-0.00020924
-0.000156661
-5.69056e-05
0.00854053
0.0112441
0.0124189
0.0122176
0.0110728
0.00946215
0.00776898
0.00623808
0.00501665
0.00416217
0.00363899
0.00331915
0.0030705
0.0028392
0.00260616
0.0023763
0.00208616
0.00170778
0.00133587
0.0010463
0.00084544
0.000709466
0.00061418
0.00049868
0.000311447
0.000147799
0.000112177
6.38044e-05
-8.91297e-05
-0.000165269
-0.000134066
-0.000147478
-0.000176906
-0.000134865
-4.80739e-05
0.0081144
0.0108959
0.0121377
0.011995
0.0109086
0.00936124
0.00773486
0.00626742
0.00509485
0.00427907
0.00378634
0.00351066
0.00329964
0.00308198
0.00283571
0.00257039
0.00226491
0.00186065
0.00145917
0.00116562
0.000975792
0.000851317
0.000731934
0.000594512
0.000401668
0.000223463
0.000191834
0.000142278
-3.24341e-05
-0.000114317
-8.06409e-05
-0.000101739
-0.000142715
-0.000112531
-3.95014e-05
0.00770914
0.0105577
0.0118543
0.0117584
0.0107175
0.00922507
0.00766057
0.00625995
0.00514169
0.00436777
0.00390596
0.00366592
0.00349862
0.00330238
0.00305725
0.0027589
0.0024333
0.00201795
0.00158338
0.00127928
0.00110113
0.00100033
0.000865708
0.000685933
0.000487027
0.000309639
0.000276364
0.000220769
2.81629e-05
-5.98509e-05
-2.70465e-05
-5.58969e-05
-0.000106559
-8.91609e-05
-3.12524e-05
0.0073206
0.0102237
0.0115643
0.0115051
0.0104999
0.00905437
0.00754788
0.00621365
0.00515737
0.00443005
0.00400421
0.00379065
0.00366297
0.00349304
0.00325644
0.00293871
0.00258701
0.00217443
0.00171503
0.00138872
0.00122063
0.00114441
0.00101394
0.000785652
0.000560804
0.000400654
0.000370685
0.000298708
9.12033e-05
-1.39894e-06
2.69818e-05
-1.07076e-05
-6.9333e-05
-6.44012e-05
-2.30791e-05
0.00693949
0.00988003
0.0112554
0.0112263
0.0102522
0.00884786
0.0073977
0.00612992
0.00514314
0.0044705
0.00408502
0.00389529
0.00379374
0.00364925
0.00342227
0.00310097
0.0027258
0.00231924
0.00185857
0.00150125
0.00133336
0.00127318
0.00115955
0.000907591
0.00063256
0.000481431
0.000472711
0.000381917
0.000156094
5.93083e-05
8.19521e-05
3.48376e-05
-3.20391e-05
-3.8882e-05
-1.45357e-05
0.00655325
0.00950577
0.0109045
0.0109034
0.00996172
0.00859935
0.00720683
0.00600974
0.00509931
0.00449221
0.00415164
0.00398756
0.00389822
0.00376892
0.00355004
0.00323315
0.00285025
0.00244723
0.00200976
0.00162975
0.00143961
0.00138475
0.00128634
0.00104617
0.0007245
0.000544794
0.000564791
0.000476551
0.000227632
0.00011718
0.000135371
8.21824e-05
5.00884e-06
-1.3986e-05
-5.84755e-06
0.00615533
0.0090826
0.0104849
0.0105088
0.00960599
0.00829412
0.00696599
0.00584689
0.00502172
0.00449095
0.00420306
0.0040652
0.00398073
0.00385194
0.00363575
0.00332546
0.00295325
0.00256117
0.00215632
0.00177883
0.00154835
0.0014807
0.00139298
0.00118028
0.000852583
0.000614507
0.000627775
0.000575574
0.000319352
0.000172905
0.000182221
0.000133155
4.35376e-05
8.79422e-06
3.15967e-06
0.00576921
0.0086211
0.00999394
0.0100307
0.00917173
0.00792145
0.00666942
0.00563785
0.00490744
0.00446089
0.00423085
0.00411774
0.0040321
0.00389373
0.00367224
0.00337239
0.00302312
0.00265889
0.00228598
0.00192803
0.00166673
0.00156139
0.00147903
0.00129377
0.0009944
0.000713804
0.000667114
0.000655664
0.000433045
0.000236812
0.000218666
0.000184317
8.61863e-05
2.99833e-05
1.18397e-05
0.00506619
0.00756917
0.00876685
0.00879241
0.0080405
0.00695991
0.00591011
0.00509794
0.00459091
0.00433955
0.00423965
0.00417967
0.00408213
0.00391097
0.00366684
0.00339115
0.00310941
0.00283643
0.00254811
0.00223761
0.00194024
0.00173009
0.0016347
0.00151688
0.00129305
0.000978721
0.000765321
0.000782425
0.000692241
0.000417067
0.000295961
0.000288923
0.00018954
8.00381e-05
2.70547e-05
0.00403271
0.00607878
0.0070456
0.00706897
0.00649136
0.00568327
0.00492975
0.00438733
0.00409325
0.00398816
0.00396875
0.00393964
0.00384318
0.00367104
0.00344469
0.00320958
0.00299687
0.00281153
0.00262426
0.0023989
0.00214204
0.0019016
0.00174909
0.00164451
0.00149018
0.00124539
0.000989429
0.000896031
0.000851749
0.000647061
0.000448315
0.00037514
0.00028378
0.000148993
4.49309e-05
0.00395043
0.00434159
0.00447376
0.00440192
0.0042174
0.00400451
0.00381826
0.00368096
0.00358986
0.00352782
0.00347158
0.00340099
0.00330237
0.00317402
0.00302439
0.00287044
0.00272793
0.00259882
0.0024699
0.00231709
0.00213526
0.00194293
0.0017795
0.00165715
0.00153018
0.00135875
0.00115176
0.000995152
0.000906809
0.000766005
0.000575919
0.00044231
0.00033418
0.000197754
6.30513e-05
0.00365159
0.00315158
0.00289241
0.002842
0.00292079
0.00304343
0.00314555
0.00319393
0.00318306
0.00312575
0.00304104
0.00294599
0.0028508
0.00275869
0.00266847
0.00257736
0.00248441
0.00238753
0.00228387
0.00216765
0.00203646
0.00189512
0.00175476
0.00162744
0.00150404
0.00136857
0.00121437
0.00105747
0.000927628
0.000800426
0.00064447
0.000492659
0.000359953
0.000220422
7.32731e-05
0.00334125
0.00278936
0.00251035
0.00246335
0.00255671
0.00269499
0.00280828
0.00286183
0.00285172
0.00279385
0.00271132
0.00262424
0.00254436
0.00247413
0.00240945
0.00234346
0.00227105
0.00219034
0.00210249
0.00200849
0.00190731
0.00179752
0.00167976
0.00156047
0.00144431
0.00132787
0.00120146
0.00106111
0.000924544
0.000798151
0.000661252
0.000513369
0.00037028
0.000227247
7.68847e-05
0.00305925
0.00252352
0.00225591
0.00221237
0.00230076
0.00242776
0.00252743
0.00256963
0.00255422
0.00249864
0.00242487
0.00235008
0.00228287
0.00222389
0.002169
0.00211283
0.00205159
0.00198402
0.0019105
0.00183137
0.00174601
0.00165396
0.00155621
0.00145548
0.0013536
0.00124828
0.00113577
0.00101555
0.000892434
0.0007694
0.000640982
0.000504626
0.000365311
0.000223361
7.5648e-05
0.00272429
0.00225436
0.00202203
0.00198614
0.00206422
0.0021741
0.00225861
0.0022924
0.00227628
0.00222598
0.00216073
0.00209528
0.00203686
0.00198596
0.00193915
0.0018919
0.00184062
0.00178342
0.00172003
0.00165117
0.00157783
0.00150059
0.00141946
0.00133395
0.0012438
0.00114908
0.00105004
0.000946005
0.000836038
0.000721335
0.000602547
0.00047812
0.000347898
0.000212693
7.2026e-05
0.00239623
0.00198943
0.00178919
0.00175928
0.00182761
0.00192266
0.00199492
0.00202277
0.0020074
0.00196291
0.00190618
0.00184998
0.00180038
0.00175743
0.0017178
0.0016774
0.00163317
0.00158377
0.00152931
0.00147058
0.00140825
0.00134241
0.00127272
0.00119878
0.00112056
0.00103817
0.000951363
0.000859405
0.000761958
0.000659524
0.000552313
0.000439576
0.000320965
0.000196699
6.66072e-05
0.00207138
0.00172787
0.00155968
0.00153564
0.00159433
0.00167504
0.00173598
0.00175915
0.00174588
0.00170828
0.00166059
0.00161348
0.00157188
0.00153574
0.00150221
0.00146793
0.00143047
0.00138872
0.00134269
0.00129284
0.00123965
0.00118327
0.0011236
0.00106038
0.000993267
0.000921942
0.000846171
0.000765805
0.000680707
0.000590674
0.000495551
0.00039514
0.000289224
0.000177626
6.0175e-05
0.00176457
0.00148481
0.00134831
0.00132933
0.00137756
0.00144339
0.00149282
0.00151127
0.0015
0.00146897
0.00142978
0.00139106
0.00135678
0.00132686
0.00129898
0.00127036
0.00123899
0.00120392
0.00116513
0.00112302
0.00107798
0.00103016
0.00097943
0.000925487
0.000868005
0.000806726
0.000741472
0.000672059
0.000598286
0.000519943
0.000436853
0.000348829
0.000255687
0.000157239
5.32962e-05
0.00149327
0.00126667
0.00115632
0.00114117
0.00118032
0.00123353
0.00127328
0.00128788
0.00127844
0.00125308
0.00122117
0.00118961
0.00116158
0.00113695
0.00111383
0.00108997
0.00106375
0.00103441
0.00100193
0.00096661
0.000928751
0.000888429
0.000845523
0.000799774
0.000750902
0.000698668
0.000642865
0.000583296
0.000519814
0.000452252
0.000380409
0.000304086
0.000223123
0.000137352
4.65781e-05
0.00126405
0.00107969
0.000990025
0.000977774
0.00100957
0.00105266
0.00108471
0.00109628
0.00108837
0.00106757
0.00104146
0.00101563
0.000992592
0.000972217
0.000952964
0.000933021
0.000911068
0.000886496
0.000859283
0.000829656
0.000797836
0.000763861
0.000727617
0.000688875
0.00064737
0.000602876
0.000555213
0.000504206
0.000449719
0.000391604
0.000329674
0.000263737
0.000193659
0.000119295
4.0468e-05
0.00107679
0.000931732
0.000861141
0.000851328
0.000875976
0.000909324
0.000933828
0.000942139
0.000935098
0.00091792
0.000896567
0.000875391
0.000856333
0.000839268
0.000822963
0.000805987
0.000787296
0.000766394
0.000743258
0.000718059
0.000690952
0.000661947
0.000630938
0.000597722
0.000562072
0.000523784
0.000482706
0.000438668
0.000391539
0.000341185
0.000287429
0.000230099
0.000169074
0.000104218
3.53728e-05
0.000943083
0.000826513
0.000769677
0.000761495
0.000780796
0.000806912
0.000825803
0.000831632
0.000825124
0.000810489
0.000792498
0.000774607
0.000758337
0.000743566
0.000729286
0.00071434
0.000697892
0.000679538
0.000659248
0.000637149
0.000613357
0.000587864
0.00056057
0.000531292
0.000499826
0.000465997
0.000429657
0.000390648
0.000348854
0.00030415
0.000256367
0.000205342
0.00015096
9.31003e-05
3.16117e-05
0.000870972
0.000769075
0.000719342
0.000712009
0.000728581
0.000751011
0.000767043
0.000771618
0.000765414
0.000752117
0.000735879
0.000719701
0.000704898
0.00069135
0.000678161
0.00066431
0.000649068
0.000632083
0.000613323
0.000592895
0.000570895
0.000547301
0.000522015
0.000494873
0.000465681
0.000434273
0.000400511
0.000364245
0.000325368
0.000283756
0.000239247
0.000191688
0.000140967
8.69664e-05
2.95418e-05
0.0113486
0.00956676
0.00979621
0.00945691
0.00981827
0.00958588
0.00984785
0.00975401
0.00987098
0.0100409
0.0104855
0.0110394
0.0115463
0.0125406
0.0135489
0.0152293
0.0174185
0.0203101
0.0238909
0.0280158
0.0113544
0.00955437
0.00979993
0.00943976
0.00982455
0.00957024
0.00986438
0.00972577
0.00989462
0.0099905
0.0105126
0.0109562
0.0115585
0.0124247
0.0135628
0.0151371
0.0173724
0.0199929
0.023169
0.0263877
0.0113553
0.0095384
0.00980272
0.00942143
0.00983026
0.00955599
0.00987802
0.00969972
0.00991328
0.00994564
0.0105339
0.0108912
0.0115525
0.0123404
0.013537
0.0150259
0.0171818
0.0194817
0.0221302
0.0246673
0.01135
0.00952094
0.0098048
0.00940372
0.00983379
0.00954517
0.00988792
0.00968001
0.00992163
0.00991734
0.0105317
0.0108637
0.0115051
0.0122772
0.0134313
0.0148565
0.0168063
0.0188181
0.0209719
0.0230872
0.0113405
0.00950267
0.00980686
0.00938769
0.00983484
0.00954101
0.00989281
0.00967101
0.00991526
0.00991146
0.0104961
0.0108492
0.0114192
0.0121913
0.0132547
0.0145873
0.0162946
0.018024
0.0197971
0.0216406
0.0113282
0.00948489
0.00980823
0.00937586
0.0098315
0.00954629
0.00988736
0.00967711
0.00988976
0.0099251
0.0104333
0.0108238
0.0113204
0.0120612
0.0130135
0.014199
0.0156577
0.0171306
0.0186304
0.0202828
0.0113135
0.00946932
0.00980698
0.00937008
0.00981994
0.00956275
0.00986843
0.00969846
0.00984376
0.00993685
0.010375
0.010778
0.0112061
0.0118766
0.0126995
0.0136937
0.0148982
0.0161522
0.0174653
0.0189902
0.0112958
0.00945795
0.00980053
0.00937174
0.00979715
0.00959122
0.00983574
0.00972772
0.00979319
0.00993417
0.0103296
0.0107085
0.0110647
0.0116279
0.012297
0.0130748
0.0140323
0.0151026
0.016293
0.017757
0.0112735
0.00945325
0.00978676
0.00938211
0.00976148
0.00963027
0.00979311
0.00975185
0.00975983
0.00991535
0.0102861
0.0106147
0.0108789
0.0112975
0.0117862
0.0123532
0.0130959
0.0140089
0.0151195
0.0165876
0.0112446
0.00945816
0.00976408
0.00940136
0.00971408
0.00967428
0.00975418
0.00976085
0.00974833
0.00988415
0.0102235
0.0104898
0.0106279
0.0108649
0.0111807
0.0115715
0.0121292
0.0129016
0.0139624
0.0154817
0.0112068
0.00947545
0.00973186
0.00942786
0.00965908
0.00970906
0.00973209
0.00975267
0.00974332
0.00984248
0.0101242
0.010302
0.0102953
0.0103573
0.0105197
0.0107608
0.0111562
0.0118011
0.0128305
0.0144277
0.0111579
0.00950764
0.00969114
0.00945922
0.00960531
0.00972879
0.0097325
0.00973622
0.0097277
0.00978471
0.00997362
0.0100369
0.0099028
0.00981033
0.00982763
0.00993204
0.0101853
0.0107225
0.0117282
0.0134124
0.011096
0.00955616
0.00964548
0.00947996
0.00956344
0.00973032
0.00973915
0.0097141
0.00969051
0.00969065
0.00976487
0.00971592
0.00947264
0.00924202
0.00911735
0.0090907
0.00922152
0.00966793
0.0106562
0.0124306
0.0110196
0.00961902
0.0096037
0.00948632
0.00953682
0.00972242
0.00973834
0.00968107
0.00962119
0.00955175
0.00951045
0.00935644
0.00901517
0.00865833
0.00839568
0.00824027
0.0082639
0.0086381
0.00961928
0.0114856
0.0109285
0.00968844
0.00957856
0.00948058
0.00951433
0.00970842
0.00972665
0.00962592
0.00951238
0.00937158
0.00922532
0.00896945
0.00853474
0.00805874
0.00766319
0.00738644
0.00731745
0.00763925
0.00862685
0.0105848
0.0108223
0.00975481
0.00957975
0.0094738
0.00948389
0.00968209
0.00970099
0.00954369
0.00936097
0.00915536
0.00891812
0.00856203
0.00803226
0.00744186
0.00691982
0.00653751
0.00639404
0.00668114
0.0076862
0.00973315
0.010702
0.00981249
0.00961125
0.00947613
0.00944257
0.00962793
0.00965164
0.00943851
0.00917805
0.00890872
0.00859081
0.0081366
0.00750874
0.00681116
0.00617571
0.00570342
0.00550225
0.00576831
0.00679825
0.00893066
0.0105726
0.00985431
0.00966091
0.00949514
0.00939879
0.00953965
0.00955867
0.00930626
0.00897654
0.00864119
0.00824521
0.00769642
0.00697011
0.00617279
0.00544079
0.00489109
0.00464438
0.00490009
0.00596095
0.00817627
0.0104408
0.0098751
0.00970967
0.00953442
0.00936703
0.00942093
0.00941494
0.00913783
0.00875311
0.00835804
0.00788777
0.00724961
0.00642806
0.00553608
0.00472066
0.00410466
0.00382171
0.00407595
0.0051732
0.00746958
0.0103111
0.00987218
0.00974356
0.0095825
0.00935402
0.00929414
0.00922105
0.00892497
0.00850007
0.00805317
0.00751998
0.0068036
0.00589514
0.00491296
0.00402163
0.00334941
0.00303805
0.00329744
0.00443459
0.00680941
0.0101848
0.00985115
0.00975508
0.00961729
0.00935685
0.00918074
0.00900409
0.0086648
0.00820931
0.00771954
0.00713639
0.00635719
0.00537682
0.00431583
0.0033531
0.00263184
0.00229823
0.00256677
0.0037445
0.00619354
0.0100608
0.00981746
0.00973968
0.00962173
0.00935453
0.00908504
0.00879248
0.00837529
0.00788199
0.00735316
0.00673187
0.00590958
0.00487744
0.0037541
0.00272519
0.00195799
0.00160559
0.00188489
0.003102
0.00561948
0.00993873
0.00976967
0.00970444
0.00958764
0.00932645
0.0090007
0.00860246
0.00808581
0.00752597
0.00695938
0.00630529
0.00545913
0.00439718
0.00323083
0.00214544
0.00133259
0.000961073
0.00125018
0.00250455
0.00508418
0.00981888
0.00970688
0.00964928
0.00951295
0.00925617
0.00890643
0.00843526
0.00782318
0.00716838
0.00654436
0.00586267
0.00500426
0.00393262
0.00274414
0.00161828
0.0007615
0.000366884
0.000660726
0.00194763
0.00458278
0.00969877
0.0096276
0.00957134
0.0094087
0.00913875
0.00878328
0.00827727
0.00759311
0.00683991
0.00613103
0.00541416
0.0045461
0.00347935
0.0022892
0.00114383
0.000252225
-0.000168727
0.000121783
0.00143204
0.00411335
0.00957572
0.00952858
0.00946849
0.00927803
0.0089789
0.00862297
0.00811157
0.00739126
0.00655543
0.00575002
0.00497652
0.00409508
0.00303755
0.00186014
0.000715275
-0.000194451
-0.000638753
-0.000358414
0.000962899
0.00367627
0.00944641
0.00940804
0.00933749
0.00912302
0.00878942
0.00842249
0.00792669
0.00720186
0.0063109
0.00542126
0.00458047
0.00367621
0.00262356
0.00146209
0.000329064
-0.00058329
-0.00104274
-0.000776562
0.000542301
0.00326854
0.00930355
0.00926362
0.00917496
0.00894608
0.00858336
0.00818654
0.00770615
0.0070135
0.00610052
0.00514716
0.0042451
0.00331149
0.00226387
0.00111795
2.84553e-07
-0.000908326
-0.00137703
-0.001128
0.000174127
0.00288774
0.00914196
0.0090941
0.00897986
0.00874028
0.00836555
0.00793914
0.00745297
0.00680223
0.00591504
0.004931
0.0039821
0.00301643
0.0019752
0.000856968
-0.00023571
-0.00113535
-0.00161688
-0.00139201
-0.000123362
0.00254177
0.00895518
0.00889806
0.00875699
0.00850519
0.00812767
0.00768875
0.00718712
0.00656035
0.00572503
0.00475807
0.00378986
0.00280766
0.0017729
0.000687592
-0.000370375
-0.00124357
-0.00172107
-0.00152621
-0.000319785
0.00225889
0.00844497
0.00836569
0.00817195
0.00789816
0.00752837
0.00708252
0.00657102
0.00597674
0.00526947
0.0044061
0.00343955
0.00243962
0.00142621
0.000422982
-0.000512349
-0.00126061
-0.00164297
-0.00142081
-0.000309709
0.00197755
0.00737947
0.00728736
0.00710403
0.00687061
0.00659728
0.00628829
0.00593657
0.00551273
0.00499329
0.00434593
0.00355779
0.00266179
0.00169626
0.00071594
-0.000206519
-0.000959891
-0.00138498
-0.00127574
-0.000393661
0.0014881
0.00626996
0.00618257
0.00602304
0.00580746
0.00554413
0.00523648
0.00489996
0.00454594
0.00418877
0.00384434
0.00352118
0.00323094
0.00298512
0.00278494
0.00263532
0.00255055
0.00255483
0.00267882
0.00295395
0.0034023
0.00521748
0.00513198
0.00498074
0.00478292
0.00455511
0.00431276
0.00407292
0.00385418
0.00367228
0.00354557
0.00349138
0.00352302
0.00364729
0.00385813
0.00413158
0.00441964
0.00465395
0.00475336
0.00463641
0.00423929
0.00428171
0.00421337
0.0041032
0.00396866
0.00382388
0.00368078
0.00355081
0.00344594
0.00337819
0.00335952
0.00340133
0.00351154
0.00369064
0.00392744
0.00419537
0.00445019
0.00463076
0.00466394
0.00447483
0.004004
0.00352086
0.00347589
0.00340437
0.00331819
0.00322761
0.00314206
0.00307079
0.00302329
0.00300959
0.00304065
0.00312617
0.0032716
0.00347471
0.00372223
0.00398698
0.00422642
0.00438361
0.00439185
0.00418462
0.00371099
0.00290718
0.0028775
0.00283117
0.00277659
0.00272158
0.00267364
0.00264025
0.00262908
0.00264799
0.00270449
0.00280462
0.00295106
0.00314068
0.00336181
0.00359148
0.00379391
0.00392103
0.00391645
0.00372381
0.00330053
0.00241016
0.00239079
0.0023611
0.00232683
0.00229363
0.00226704
0.00225273
0.00225665
0.00228508
0.00234425
0.00243935
0.00257299
0.00274287
0.00293921
0.00314224
0.00332088
0.00343325
0.00343031
0.00326335
0.00289598
0.00200478
0.00199171
0.00197185
0.00194922
0.00192788
0.00191206
0.00190624
0.00191532
0.00194464
0.00199957
0.00208468
0.00220224
0.00235032
0.00252052
0.00269598
0.00285018
0.00294749
0.00294627
0.00280536
0.00249433
0.00167255
0.00166343
0.00164967
0.00163418
0.00162002
0.00161041
0.00160887
0.00161928
0.00164593
0.00169317
0.0017647
0.00186246
0.00198492
0.00212535
0.00227001
0.00239725
0.00247784
0.00247766
0.00236307
0.00210945
0.00140104
0.0013943
0.00138414
0.00137275
0.00136249
0.00135586
0.00135565
0.001365
0.00138736
0.00142633
0.00148497
0.00156493
0.00166507
0.00178
0.00189856
0.0020031
0.00206974
0.00207058
0.00197823
0.0017728
0.00118323
0.0011779
0.00116982
0.00116072
0.00115248
0.00114713
0.00114693
0.00115445
0.00117255
0.0012042
0.00125197
0.00131726
0.0013992
0.00149341
0.00159079
0.00167686
0.00173203
0.00173343
0.00165866
0.00149156
0.00101737
0.00101311
0.00100664
0.000999351
0.000992743
0.000988428
0.000988161
0.000993965
0.00100808
0.00103282
0.00107018
0.00112127
0.00118542
0.0012592
0.00133547
0.00140285
0.00144591
0.00144665
0.0013875
0.00125586
0.000902348
0.000898741
0.000893234
0.000886999
0.000881272
0.000877381
0.000876757
0.000881033
0.000892007
0.000911534
0.00094121
0.000981911
0.00103308
0.00109197
0.00115283
0.00120652
0.00124065
0.00124079
0.00119291
0.00108698
0.000840788
0.000837479
0.000832407
0.000826633
0.000821277
0.000817527
0.000816652
0.000820088
0.00082941
0.000846236
0.000871948
0.000907295
0.00095178
0.00100298
0.00105587
0.00110245
0.00113192
0.0011317
0.00108956
0.000996806
)
;

boundaryField
{
    top
    {
        type            zeroGradient;
    }
    inlet
    {
        type            zeroGradient;
    }
    outlet
    {
        type            fixedValue;
        value           uniform 0;
    }
    plate
    {
        type            zeroGradient;
    }
    symmBound
    {
        type            zeroGradient;
    }
    frontAndBack
    {
        type            empty;
    }
}


// ************************************************************************* //
