/*--------------------------------*- C++ -*----------------------------------*\
| =========                 |                                                 |
| \\      /  F ield         | OpenFOAM: The Open Source CFD Toolbox           |
|  \\    /   O peration     | Version:  5.x                                   |
|   \\  /    A nd           | Web:      www.OpenFOAM.org                      |
|    \\/     M anipulation  |                                                 |
\*---------------------------------------------------------------------------*/
FoamFile
{
    version     2.0;
    format      ascii;
    class       surfaceScalarField;
    location    "0.1";
    object      phi;
}
// * * * * * * * * * * * * * * * * * * * * * * * * * * * * * * * * * * * * * //

dimensions      [0 3 -1 0 0 0 0];

internalField   nonuniform List<scalar> 
4850
(
7.31173e-08
6.95754e-09
-8.00748e-08
6.42695e-08
8.84776e-09
5.53671e-08
8.90242e-09
4.65776e-08
8.78944e-09
3.80714e-08
8.50624e-09
3.04387e-08
7.63268e-09
2.44664e-08
5.97229e-09
2.05355e-08
3.9309e-09
1.82357e-08
2.29984e-09
1.68186e-08
1.41705e-09
1.58275e-08
9.9114e-10
1.50385e-08
7.89008e-10
1.43297e-08
7.08767e-10
1.36501e-08
6.79625e-10
1.29976e-08
6.52474e-10
1.2386e-08
6.11617e-10
1.18304e-08
5.5558e-10
1.13244e-08
5.06063e-10
1.0856e-08
4.68341e-10
1.04238e-08
4.32245e-10
1.00252e-08
3.98596e-10
9.6512e-09
3.73987e-10
9.30224e-09
3.48964e-10
8.97429e-09
3.27946e-10
8.67672e-09
2.97574e-10
8.39021e-09
2.86503e-10
8.11585e-09
2.74367e-10
7.86719e-09
2.48661e-10
7.64106e-09
2.26128e-10
7.41123e-09
2.29826e-10
7.20915e-09
2.02078e-10
7.01891e-09
1.90242e-10
6.85359e-09
1.65325e-10
6.68902e-09
1.64565e-10
1.41853e-10
8.79273e-08
6.52149e-09
-8.74913e-08
8.68363e-08
9.93878e-09
8.46681e-08
1.10706e-08
8.18513e-08
1.16063e-08
7.83338e-08
1.20237e-08
7.41501e-08
1.18165e-08
6.95604e-08
1.05619e-08
6.50649e-08
8.42638e-09
6.10679e-08
6.29688e-09
5.75166e-08
4.96837e-09
5.42402e-08
4.26746e-09
5.11911e-08
3.83814e-09
4.83697e-08
3.53019e-09
4.57874e-08
3.26189e-09
4.34514e-08
2.98848e-09
4.13521e-08
2.71091e-09
3.94702e-08
2.43748e-09
3.77644e-08
2.21187e-09
3.62041e-08
2.02868e-09
3.47667e-08
1.86967e-09
3.34343e-08
1.731e-09
3.21833e-08
1.62494e-09
3.10167e-08
1.51558e-09
2.99246e-08
1.42005e-09
2.89115e-08
1.31063e-09
2.79447e-08
1.25329e-09
2.70459e-08
1.17322e-09
2.62096e-08
1.08492e-09
2.5434e-08
1.0018e-09
2.46764e-08
9.87368e-10
2.40069e-08
8.71595e-10
2.33655e-08
8.31596e-10
2.28183e-08
7.12566e-10
2.2273e-08
7.09851e-10
5.79453e-10
9.57517e-08
6.1633e-09
-9.53935e-08
9.61497e-08
9.54078e-09
9.60339e-08
1.11864e-08
9.57488e-08
1.18914e-08
9.53087e-08
1.24637e-08
9.44635e-08
1.26617e-08
9.30479e-08
1.19776e-08
9.1154e-08
1.03202e-08
8.90959e-08
8.35495e-09
8.70234e-08
7.04086e-09
8.48565e-08
6.43441e-09
8.254e-08
6.15461e-09
8.00959e-08
5.97435e-09
7.75601e-08
5.79767e-09
7.49745e-08
5.57408e-09
7.23849e-08
5.30045e-09
6.98446e-08
4.97779e-09
6.73805e-08
4.67597e-09
6.50219e-08
4.38734e-09
6.2775e-08
4.11653e-09
6.06405e-08
3.86553e-09
5.85932e-08
3.6722e-09
5.66472e-08
3.46158e-09
5.47986e-08
3.26871e-09
5.30532e-08
3.05596e-09
5.13703e-08
2.93624e-09
4.9801e-08
2.74247e-09
4.83158e-08
2.57017e-09
4.69258e-08
2.39175e-09
4.55714e-08
2.34176e-09
4.43626e-08
2.08042e-09
4.31874e-08
2.00685e-09
4.21796e-08
1.72032e-09
4.11694e-08
1.72008e-09
1.37741e-09
1.04084e-07
6.08625e-09
-1.04007e-07
1.04632e-07
8.99292e-09
1.04911e-07
1.09074e-08
1.05112e-07
1.16906e-08
1.05436e-07
1.21393e-08
1.05718e-07
1.23797e-08
1.05714e-07
1.1981e-08
1.05313e-07
1.07212e-08
1.04656e-07
9.01201e-09
1.03942e-07
7.75569e-09
1.03151e-07
7.2249e-09
1.02208e-07
7.09811e-09
1.01094e-07
7.08812e-09
9.98086e-08
7.08292e-09
9.83505e-08
7.03212e-09
9.67147e-08
6.93627e-09
9.4926e-08
6.76652e-09
9.3003e-08
6.59894e-09
9.10023e-08
6.38807e-09
8.89578e-08
6.16099e-09
8.69108e-08
5.91256e-09
8.48495e-08
5.73354e-09
8.2791e-08
5.52003e-09
8.07338e-08
5.3259e-09
7.87098e-08
5.08002e-09
7.6673e-08
4.97304e-09
7.47165e-08
4.69889e-09
7.2803e-08
4.48368e-09
7.09709e-08
4.22387e-09
6.91448e-08
4.16789e-09
6.7486e-08
3.73924e-09
6.58369e-08
3.65587e-09
6.43932e-08
3.16403e-09
6.29151e-08
3.1982e-09
2.56616e-09
1.1324e-07
6.13515e-09
-1.13288e-07
1.13744e-07
8.4884e-09
1.14171e-07
1.048e-08
1.1446e-07
1.14025e-08
1.14849e-07
1.17497e-08
1.15313e-07
1.19161e-08
1.15658e-07
1.16354e-08
1.15728e-07
1.06516e-08
1.15566e-07
9.17411e-09
1.15375e-07
7.94653e-09
1.15202e-07
7.39757e-09
1.14981e-07
7.31912e-09
1.1468e-07
7.38979e-09
1.14284e-07
7.47879e-09
1.13785e-07
7.53099e-09
1.13144e-07
7.57763e-09
1.1235e-07
7.56007e-09
1.11379e-07
7.57019e-09
1.10263e-07
7.50388e-09
1.0902e-07
7.40444e-09
1.07702e-07
7.23051e-09
1.06308e-07
7.12678e-09
1.04863e-07
6.96492e-09
1.03332e-07
6.85709e-09
1.01749e-07
6.66315e-09
1.00043e-07
6.67912e-09
9.83246e-08
6.41735e-09
9.65564e-08
6.25186e-09
9.47963e-08
5.98397e-09
9.29454e-08
6.01879e-09
9.12041e-08
5.48055e-09
8.94145e-08
5.44553e-09
8.78021e-08
4.77641e-09
8.60825e-08
4.91779e-09
4.02665e-09
1.23164e-07
6.20638e-09
-1.23235e-07
1.23582e-07
8.07098e-09
1.24095e-07
9.96644e-09
1.24465e-07
1.10329e-08
1.24839e-07
1.13755e-08
1.25286e-07
1.14694e-08
1.25682e-07
1.12395e-08
1.25866e-07
1.04671e-08
1.25821e-07
9.21949e-09
1.2573e-07
8.03686e-09
1.25699e-07
7.42873e-09
1.25685e-07
7.33298e-09
1.25654e-07
7.42137e-09
1.2559e-07
7.54303e-09
1.25503e-07
7.61749e-09
1.25356e-07
7.72424e-09
1.25138e-07
7.77851e-09
1.24801e-07
7.90675e-09
1.24357e-07
7.94828e-09
1.23795e-07
7.96689e-09
1.2316e-07
7.86497e-09
1.22448e-07
7.83893e-09
1.21705e-07
7.70749e-09
1.20884e-07
7.67819e-09
1.20012e-07
7.5353e-09
1.18989e-07
7.70235e-09
1.17899e-07
7.5075e-09
1.16713e-07
7.43773e-09
1.15494e-07
7.20288e-09
1.14116e-07
7.39683e-09
1.12741e-07
6.85583e-09
1.11259e-07
6.92711e-09
1.09899e-07
6.13688e-09
1.08385e-07
6.43102e-09
5.44863e-09
1.33824e-07
6.24532e-09
-1.33863e-07
1.34153e-07
7.74262e-09
1.347e-07
9.41909e-09
1.35156e-07
1.05768e-08
1.35542e-07
1.09892e-08
1.3596e-07
1.10515e-08
1.36356e-07
1.08441e-08
1.36585e-07
1.02381e-08
1.36586e-07
9.21812e-09
1.36497e-07
8.12588e-09
1.36462e-07
7.46357e-09
1.36471e-07
7.32418e-09
1.36486e-07
7.40646e-09
1.36485e-07
7.54384e-09
1.36495e-07
7.60785e-09
1.36493e-07
7.72639e-09
1.3648e-07
7.79068e-09
1.36415e-07
7.9722e-09
1.36298e-07
8.06513e-09
1.36102e-07
8.1632e-09
1.35861e-07
8.10615e-09
1.35555e-07
8.14495e-09
1.35241e-07
8.02094e-09
1.34892e-07
8.0276e-09
1.34535e-07
7.89172e-09
1.34077e-07
8.1602e-09
1.33553e-07
8.03192e-09
1.32949e-07
8.04222e-09
1.32322e-07
7.82944e-09
1.31566e-07
8.15251e-09
1.30743e-07
7.67921e-09
1.29783e-07
7.88728e-09
1.28901e-07
7.01889e-09
1.27927e-07
7.40519e-09
6.52025e-09
1.45241e-07
6.23476e-09
-1.45231e-07
1.45504e-07
7.47936e-09
1.46037e-07
8.88613e-09
1.46558e-07
1.00557e-08
1.46982e-07
1.05656e-08
1.47388e-07
1.06457e-08
1.47774e-07
1.04578e-08
1.48033e-07
9.97889e-09
1.48086e-07
9.16558e-09
1.48006e-07
8.20603e-09
1.47952e-07
7.51716e-09
1.47951e-07
7.32475e-09
1.47968e-07
7.39044e-09
1.47967e-07
7.54466e-09
1.47977e-07
7.5977e-09
1.47991e-07
7.71265e-09
1.48023e-07
7.75869e-09
1.48042e-07
7.95322e-09
1.48048e-07
8.05843e-09
1.48009e-07
8.20244e-09
1.47945e-07
8.17004e-09
1.4783e-07
8.26032e-09
1.47705e-07
8.14587e-09
1.47567e-07
8.16528e-09
1.47448e-07
8.01097e-09
1.47289e-07
8.31932e-09
1.47085e-07
8.2355e-09
1.46838e-07
8.28941e-09
1.46585e-07
8.08213e-09
1.46277e-07
8.46057e-09
1.45901e-07
8.05531e-09
1.45389e-07
8.3997e-09
1.44916e-07
7.49147e-09
1.44468e-07
7.85287e-09
7.15232e-09
1.57496e-07
6.17616e-09
-1.57438e-07
1.5773e-07
7.24529e-09
1.58212e-07
8.40408e-09
1.58764e-07
9.50439e-09
1.59231e-07
1.00979e-08
1.5964e-07
1.02374e-08
1.60015e-07
1.00824e-08
1.60293e-07
9.70125e-09
1.60399e-07
9.05971e-09
1.60349e-07
8.25595e-09
1.60289e-07
7.57631e-09
1.60282e-07
7.33183e-09
1.60302e-07
7.3706e-09
1.60305e-07
7.54159e-09
1.60309e-07
7.59422e-09
1.60315e-07
7.70654e-09
1.60346e-07
7.72723e-09
1.60385e-07
7.91449e-09
1.60432e-07
8.01175e-09
1.60456e-07
8.1787e-09
1.60465e-07
8.16089e-09
1.60436e-07
8.28915e-09
1.60389e-07
8.1925e-09
1.6033e-07
8.2243e-09
1.60289e-07
8.05239e-09
1.60242e-07
8.36561e-09
1.60171e-07
8.30659e-09
1.60085e-07
8.37596e-09
1.59995e-07
8.17163e-09
1.59899e-07
8.55653e-09
1.5977e-07
8.18508e-09
1.59533e-07
8.63638e-09
1.59293e-07
7.73128e-09
1.59154e-07
7.99241e-09
7.46237e-09
1.70703e-07
6.07462e-09
-1.70602e-07
1.70934e-07
7.01496e-09
1.71356e-07
7.98128e-09
1.71902e-07
8.9585e-09
1.72402e-07
9.59825e-09
1.72824e-07
9.81511e-09
1.73191e-07
9.71532e-09
1.73477e-07
9.41599e-09
1.73626e-07
8.91052e-09
1.73619e-07
8.26306e-09
1.73567e-07
7.62782e-09
1.73557e-07
7.3419e-09
1.73585e-07
7.34238e-09
1.73603e-07
7.52418e-09
1.73611e-07
7.58586e-09
1.73615e-07
7.70264e-09
1.73641e-07
7.70139e-09
1.73681e-07
7.87383e-09
1.73739e-07
7.95425e-09
1.73787e-07
8.13085e-09
1.73826e-07
8.12213e-09
1.73837e-07
8.278e-09
1.73831e-07
8.19867e-09
1.73804e-07
8.25057e-09
1.73787e-07
8.07013e-09
1.73774e-07
8.37859e-09
1.73747e-07
8.33316e-09
1.73719e-07
8.40347e-09
1.73685e-07
8.20584e-09
1.7366e-07
8.58195e-09
1.73625e-07
8.21982e-09
1.73533e-07
8.72862e-09
1.73399e-07
7.86471e-09
1.73368e-07
8.02349e-09
7.6149e-09
1.84973e-07
5.93679e-09
-1.84835e-07
1.85211e-07
6.77691e-09
1.85589e-07
7.60347e-09
1.86104e-07
8.44339e-09
1.86615e-07
9.08694e-09
1.87055e-07
9.37523e-09
1.87422e-07
9.34864e-09
1.87709e-07
9.12895e-09
1.87887e-07
8.73232e-09
1.87925e-07
8.22498e-09
1.87891e-07
7.66196e-09
1.8788e-07
7.35329e-09
1.87915e-07
7.30738e-09
1.8795e-07
7.48939e-09
1.87972e-07
7.56351e-09
1.87982e-07
7.69238e-09
1.88007e-07
7.67667e-09
1.88046e-07
7.83474e-09
1.88105e-07
7.89482e-09
1.88161e-07
8.07534e-09
1.88212e-07
8.07145e-09
1.8824e-07
8.24964e-09
1.88258e-07
8.18106e-09
1.88249e-07
8.25913e-09
1.88242e-07
8.07689e-09
1.88239e-07
8.3822e-09
1.88226e-07
8.34595e-09
1.88219e-07
8.41082e-09
1.88201e-07
8.22374e-09
1.88194e-07
8.58818e-09
1.88181e-07
8.23294e-09
1.88162e-07
8.74772e-09
1.88078e-07
7.94885e-09
1.88058e-07
8.04384e-09
7.71655e-09
2.00408e-07
5.76948e-09
-2.00241e-07
2.00658e-07
6.52694e-09
2.0101e-07
7.25153e-09
2.01483e-07
7.97025e-09
2.01989e-07
8.58174e-09
2.0244e-07
8.92397e-09
2.02814e-07
8.97422e-09
2.03104e-07
8.83876e-09
2.03302e-07
8.53521e-09
2.0338e-07
8.14647e-09
2.03371e-07
7.67128e-09
2.03361e-07
7.3629e-09
2.03398e-07
7.27044e-09
2.03448e-07
7.43945e-09
2.03488e-07
7.52357e-09
2.03511e-07
7.66948e-09
2.0354e-07
7.64763e-09
2.03578e-07
7.79628e-09
2.03638e-07
7.8356e-09
2.03695e-07
8.01802e-09
2.03751e-07
8.01555e-09
2.03787e-07
8.21383e-09
2.03817e-07
8.15025e-09
2.0382e-07
8.25677e-09
2.0382e-07
8.07642e-09
2.0382e-07
8.38201e-09
2.03812e-07
8.35466e-09
2.03812e-07
8.41033e-09
2.03798e-07
8.23768e-09
2.03799e-07
8.58721e-09
2.03784e-07
8.24788e-09
2.03802e-07
8.73042e-09
2.03743e-07
8.00765e-09
2.03708e-07
8.07859e-09
7.80941e-09
2.1711e-07
5.57879e-09
-2.16919e-07
2.17372e-07
6.26483e-09
2.17711e-07
6.91255e-09
2.18144e-07
7.53694e-09
2.18631e-07
8.09526e-09
2.19083e-07
8.47159e-09
2.19468e-07
8.58927e-09
2.19767e-07
8.53954e-09
2.19979e-07
8.32314e-09
2.20091e-07
8.03471e-09
2.20112e-07
7.65104e-09
2.20109e-07
7.36522e-09
2.20145e-07
7.23447e-09
2.20206e-07
7.37853e-09
2.20263e-07
7.46626e-09
2.20303e-07
7.63008e-09
2.2034e-07
7.61007e-09
2.20381e-07
7.75551e-09
2.2044e-07
7.77676e-09
2.20498e-07
7.96029e-09
2.20556e-07
7.95679e-09
2.20597e-07
8.17325e-09
2.20635e-07
8.11214e-09
2.20645e-07
8.24688e-09
2.2065e-07
8.07097e-09
2.20653e-07
8.37911e-09
2.20646e-07
8.36234e-09
2.20651e-07
8.40537e-09
2.20637e-07
8.25136e-09
2.20643e-07
8.58151e-09
2.20623e-07
8.26737e-09
2.20657e-07
8.69678e-09
2.2061e-07
8.05431e-09
2.20563e-07
8.12586e-09
7.90248e-09
2.35185e-07
5.36989e-09
-2.34976e-07
2.35456e-07
5.99356e-09
2.35789e-07
6.58013e-09
2.3619e-07
7.13505e-09
2.36651e-07
7.63443e-09
2.37096e-07
8.0267e-09
2.37488e-07
8.19747e-09
2.37801e-07
8.22646e-09
2.38029e-07
8.09522e-09
2.38168e-07
7.89542e-09
2.3822e-07
7.5993e-09
2.38232e-07
7.35332e-09
2.38268e-07
7.19847e-09
2.38335e-07
7.31097e-09
2.38408e-07
7.39385e-09
2.38465e-07
7.57255e-09
2.38515e-07
7.56065e-09
2.38562e-07
7.70869e-09
2.38621e-07
7.71758e-09
2.38679e-07
7.90238e-09
2.38739e-07
7.89641e-09
2.38784e-07
8.128e-09
2.38828e-07
8.06875e-09
2.38844e-07
8.23072e-09
2.38853e-07
8.06173e-09
2.38859e-07
8.37346e-09
2.38852e-07
8.36951e-09
2.3886e-07
8.39676e-09
2.38846e-07
8.26525e-09
2.38856e-07
8.57223e-09
2.38834e-07
8.28881e-09
2.38874e-07
8.6574e-09
2.38831e-07
8.09651e-09
2.38777e-07
8.17996e-09
7.99493e-09
2.54746e-07
5.14759e-09
-2.54524e-07
2.55023e-07
5.71648e-09
2.55352e-07
6.25149e-09
2.55732e-07
6.75541e-09
2.56164e-07
7.20195e-09
2.56597e-07
7.59427e-09
2.56989e-07
7.8055e-09
2.57316e-07
7.8995e-09
2.57562e-07
7.84918e-09
2.57726e-07
7.73131e-09
2.57809e-07
7.51599e-09
2.57841e-07
7.32128e-09
2.57881e-07
7.15833e-09
2.57952e-07
7.24041e-09
2.58037e-07
7.30871e-09
2.58112e-07
7.49726e-09
2.58176e-07
7.49661e-09
2.58233e-07
7.65243e-09
2.58294e-07
7.65629e-09
2.58352e-07
7.84392e-09
2.58413e-07
7.83546e-09
2.58463e-07
8.0781e-09
2.58512e-07
8.01994e-09
2.58534e-07
8.20826e-09
2.58547e-07
8.04904e-09
2.58556e-07
8.36473e-09
2.5855e-07
8.37561e-09
2.58562e-07
8.38454e-09
2.58549e-07
8.27854e-09
2.58561e-07
8.5602e-09
2.5854e-07
8.30967e-09
2.5858e-07
8.61725e-09
2.58539e-07
8.13767e-09
2.58481e-07
8.2373e-09
8.08498e-09
2.75918e-07
4.91638e-09
-2.75687e-07
2.76198e-07
5.43619e-09
2.76523e-07
5.92643e-09
2.76887e-07
6.3911e-09
2.77292e-07
6.79701e-09
2.7771e-07
7.17695e-09
2.78096e-07
7.41867e-09
2.78433e-07
7.56282e-09
2.78698e-07
7.58417e-09
2.78886e-07
7.54325e-09
2.79001e-07
7.40137e-09
2.79057e-07
7.26556e-09
2.79107e-07
7.1083e-09
2.7918e-07
7.16753e-09
2.79274e-07
7.21389e-09
2.79366e-07
7.40571e-09
2.79446e-07
7.41679e-09
2.79514e-07
7.58374e-09
2.7958e-07
7.59041e-09
2.79641e-07
7.78355e-09
2.79702e-07
7.77429e-09
2.79756e-07
8.02431e-09
2.79811e-07
7.96501e-09
2.7984e-07
8.17881e-09
2.79856e-07
8.03273e-09
2.79868e-07
8.35251e-09
2.79865e-07
8.37958e-09
2.79881e-07
8.36855e-09
2.79869e-07
8.28998e-09
2.79883e-07
8.54605e-09
2.79865e-07
8.32832e-09
2.79903e-07
8.5785e-09
2.79862e-07
8.17853e-09
2.79804e-07
8.29611e-09
8.17157e-09
2.98833e-07
4.68025e-09
-2.98597e-07
2.99115e-07
5.15491e-09
2.99435e-07
5.60621e-09
2.99788e-07
6.03808e-09
3.00169e-07
6.41581e-09
3.00569e-07
6.77692e-09
3.00949e-07
7.03931e-09
3.01289e-07
7.22253e-09
3.01571e-07
7.30165e-09
3.01782e-07
7.33256e-09
3.01928e-07
7.25578e-09
3.02009e-07
7.18409e-09
3.02075e-07
7.04286e-09
3.02153e-07
7.08935e-09
3.02253e-07
7.11343e-09
3.02359e-07
7.29948e-09
3.02454e-07
7.32207e-09
3.02538e-07
7.49979e-09
3.02611e-07
7.51767e-09
3.02675e-07
7.71929e-09
3.02738e-07
7.71169e-09
3.02794e-07
7.96764e-09
3.02855e-07
7.90402e-09
3.02893e-07
8.14105e-09
3.02914e-07
8.01216e-09
3.0293e-07
8.33651e-09
3.02929e-07
8.3803e-09
3.02949e-07
8.3489e-09
3.0294e-07
8.29811e-09
3.02957e-07
8.52993e-09
3.02941e-07
8.34374e-09
3.02977e-07
8.54216e-09
3.02937e-07
8.21873e-09
3.02878e-07
8.35539e-09
8.25425e-09
3.23639e-07
4.4423e-09
-3.23401e-07
3.23919e-07
4.87527e-09
3.24233e-07
5.29195e-09
3.24576e-07
5.69506e-09
3.24939e-07
6.05316e-09
3.2532e-07
6.39605e-09
3.25691e-07
6.66782e-09
3.2603e-07
6.88389e-09
3.26326e-07
7.00514e-09
3.26558e-07
7.10099e-09
3.26732e-07
7.08133e-09
3.26843e-07
7.07381e-09
3.26926e-07
6.95931e-09
3.27015e-07
7.00062e-09
3.27119e-07
7.00935e-09
3.27237e-07
7.18148e-09
3.27345e-07
7.21364e-09
3.27446e-07
7.3997e-09
3.27528e-07
7.4353e-09
3.27598e-07
7.64945e-09
3.27664e-07
7.6452e-09
3.27724e-07
7.90781e-09
3.2779e-07
7.83836e-09
3.27837e-07
8.09414e-09
3.27863e-07
7.98608e-09
3.27883e-07
8.31644e-09
3.27887e-07
8.37636e-09
3.2791e-07
8.32598e-09
3.27906e-07
8.30158e-09
3.27925e-07
8.51144e-09
3.27913e-07
8.35528e-09
3.27946e-07
8.50881e-09
3.27908e-07
8.25752e-09
3.27849e-07
8.41432e-09
8.33295e-09
3.50494e-07
4.20466e-09
-3.50256e-07
3.50769e-07
4.59977e-09
3.51077e-07
4.98415e-09
3.51409e-07
5.36257e-09
3.51759e-07
5.70396e-09
3.52121e-07
6.03418e-09
3.52483e-07
6.30552e-09
3.52818e-07
6.549e-09
3.53123e-07
6.70037e-09
3.53374e-07
6.8496e-09
3.53572e-07
6.88314e-09
3.53715e-07
6.93094e-09
3.53818e-07
6.85672e-09
3.53921e-07
6.89689e-09
3.54032e-07
6.89875e-09
3.54156e-07
7.0571e-09
3.54278e-07
7.09242e-09
3.54392e-07
7.28534e-09
3.54487e-07
7.34008e-09
3.54564e-07
7.57236e-09
3.54636e-07
7.57292e-09
3.54703e-07
7.84167e-09
3.54772e-07
7.76931e-09
3.54827e-07
8.03911e-09
3.5486e-07
7.9527e-09
3.54885e-07
8.29178e-09
3.54895e-07
8.36639e-09
3.5492e-07
8.30038e-09
3.54922e-07
8.29948e-09
3.54944e-07
8.48953e-09
3.54937e-07
8.3625e-09
3.54967e-07
8.47902e-09
3.5493e-07
8.29415e-09
3.54872e-07
8.47219e-09
8.40788e-09
3.79568e-07
3.96896e-09
-3.79332e-07
3.79838e-07
4.33014e-09
3.80138e-07
4.68379e-09
3.8046e-07
5.04051e-09
3.80798e-07
5.3657e-09
3.81145e-07
5.68794e-09
3.81494e-07
5.95577e-09
3.81826e-07
6.2171e-09
3.82133e-07
6.39407e-09
3.82402e-07
6.58018e-09
3.8262e-07
6.66519e-09
3.82794e-07
6.75665e-09
3.82921e-07
6.73021e-09
3.8304e-07
6.77781e-09
3.83163e-07
6.77514e-09
3.83291e-07
6.92962e-09
3.83422e-07
6.96101e-09
3.83549e-07
7.15852e-09
3.83658e-07
7.2311e-09
3.83746e-07
7.48421e-09
3.83824e-07
7.49523e-09
3.839e-07
7.76536e-09
3.83974e-07
7.69569e-09
3.84033e-07
7.97952e-09
3.84075e-07
7.91109e-09
3.84106e-07
8.26059e-09
3.84124e-07
8.34888e-09
3.84151e-07
8.27277e-09
3.84159e-07
8.29172e-09
3.84186e-07
8.46274e-09
3.84184e-07
8.36479e-09
3.84209e-07
8.4534e-09
3.84175e-07
8.32802e-09
3.84119e-07
8.52835e-09
8.47959e-09
4.11047e-07
3.73675e-09
-4.10815e-07
4.11311e-07
4.06671e-09
4.11602e-07
4.39262e-09
4.11915e-07
4.72735e-09
4.12242e-07
5.03897e-09
4.12577e-07
5.35273e-09
4.12912e-07
5.62086e-09
4.13241e-07
5.88836e-09
4.13545e-07
6.08942e-09
4.13827e-07
6.29798e-09
4.14066e-07
6.42677e-09
4.14264e-07
6.55854e-09
4.14422e-07
6.57206e-09
4.14555e-07
6.64516e-09
4.14695e-07
6.63448e-09
4.14829e-07
6.79594e-09
4.14964e-07
6.82595e-09
4.15103e-07
7.02007e-09
4.15224e-07
7.11022e-09
4.15328e-07
7.37974e-09
4.15412e-07
7.41162e-09
4.15498e-07
7.67865e-09
4.15582e-07
7.61199e-09
4.15644e-07
7.91762e-09
4.15692e-07
7.8634e-09
4.15732e-07
8.21987e-09
4.15759e-07
8.32225e-09
4.15788e-07
8.24377e-09
4.15801e-07
8.27831e-09
4.15835e-07
8.42942e-09
4.15839e-07
8.36096e-09
4.15859e-07
8.43266e-09
4.15828e-07
8.35918e-09
4.15774e-07
8.58225e-09
8.54875e-09
4.45131e-07
3.50903e-09
-4.44903e-07
4.45389e-07
3.80856e-09
4.4567e-07
4.11174e-09
4.45975e-07
4.42269e-09
4.46289e-07
4.72411e-09
4.46615e-07
5.02735e-09
4.46937e-07
5.29853e-09
4.47258e-07
5.56719e-09
4.47563e-07
5.78454e-09
4.47849e-07
6.01178e-09
4.4811e-07
6.16619e-09
4.48326e-07
6.34282e-09
4.48516e-07
6.38129e-09
4.48668e-07
6.4934e-09
4.48822e-07
6.48035e-09
4.48972e-07
6.64611e-09
4.49106e-07
6.69234e-09
4.49254e-07
6.87228e-09
4.49386e-07
6.97812e-09
4.49507e-07
7.25832e-09
4.49602e-07
7.31628e-09
4.49694e-07
7.58696e-09
4.49793e-07
7.51345e-09
4.49861e-07
7.8491e-09
4.49909e-07
7.81534e-09
4.49961e-07
8.16767e-09
4.5e-07
8.28327e-09
4.5003e-07
8.21389e-09
4.5005e-07
8.25903e-09
4.5009e-07
8.38877e-09
4.50101e-07
8.34978e-09
4.50118e-07
8.4164e-09
4.50089e-07
8.38762e-09
4.50038e-07
8.63324e-09
8.61616e-09
4.82034e-07
3.28522e-09
-4.8181e-07
4.82286e-07
3.55587e-09
4.82559e-07
3.83919e-09
4.82853e-07
4.12838e-09
4.83159e-07
4.41817e-09
4.83473e-07
4.71376e-09
4.83788e-07
4.98297e-09
4.84097e-07
5.25829e-09
4.84404e-07
5.47767e-09
4.84689e-07
5.7272e-09
4.84967e-07
5.88821e-09
4.85202e-07
6.10763e-09
4.85415e-07
6.16761e-09
4.85597e-07
6.31225e-09
4.85757e-07
6.31948e-09
4.85929e-07
6.47417e-09
4.86065e-07
6.55652e-09
4.86214e-07
6.72315e-09
4.86361e-07
6.83116e-09
4.86495e-07
7.12451e-09
4.86611e-07
7.20012e-09
4.86706e-07
7.49217e-09
4.86814e-07
7.40587e-09
4.869e-07
7.76241e-09
4.86946e-07
7.76967e-09
4.87007e-07
8.10646e-09
4.87063e-07
8.22702e-09
4.87094e-07
8.18315e-09
4.8712e-07
8.23302e-09
4.87169e-07
8.33999e-09
4.87188e-07
8.33039e-09
4.87202e-07
8.4031e-09
4.87175e-07
8.414e-09
4.87128e-07
8.68063e-09
8.68216e-09
5.21991e-07
3.06361e-09
-5.21769e-07
5.22236e-07
3.31062e-09
5.22503e-07
3.57223e-09
5.22785e-07
3.84645e-09
5.23084e-07
4.11928e-09
5.23384e-07
4.41335e-09
5.23694e-07
4.67294e-09
5.23992e-07
4.96047e-09
5.24296e-07
5.17355e-09
5.24582e-07
5.44113e-09
5.24866e-07
5.60455e-09
5.25127e-07
5.84649e-09
5.25354e-07
5.94077e-09
5.25568e-07
6.09822e-09
5.25738e-07
6.14897e-09
5.25925e-07
6.28715e-09
5.26078e-07
6.40371e-09
5.26219e-07
6.58269e-09
5.26383e-07
6.66701e-09
5.26526e-07
6.98116e-09
5.26666e-07
7.06067e-09
5.26774e-07
7.38372e-09
5.26875e-07
7.30524e-09
5.26987e-07
7.64974e-09
5.2704e-07
7.71734e-09
5.27102e-07
8.04355e-09
5.27178e-07
8.15188e-09
5.27211e-07
8.14962e-09
5.27245e-07
8.19879e-09
5.27304e-07
8.2817e-09
5.27331e-07
8.30315e-09
5.27345e-07
8.38906e-09
5.27321e-07
8.43783e-09
5.27277e-07
8.72452e-09
8.74691e-09
5.65252e-07
2.84288e-09
-5.65031e-07
5.65491e-07
3.07153e-09
5.65753e-07
3.31002e-09
5.66026e-07
3.57434e-09
5.66315e-07
3.82953e-09
5.66606e-07
4.12225e-09
5.66906e-07
4.37332e-09
5.672e-07
4.66669e-09
5.67493e-07
4.88026e-09
5.67785e-07
5.14881e-09
5.68066e-07
5.32441e-09
5.6835e-07
5.56224e-09
5.6859e-07
5.70009e-09
5.68827e-07
5.86181e-09
5.6902e-07
5.95614e-09
5.69207e-07
6.09987e-09
5.6939e-07
6.22105e-09
5.69524e-07
6.44855e-09
5.69697e-07
6.49369e-09
5.69857e-07
6.82108e-09
5.7001e-07
6.90782e-09
5.70148e-07
7.24607e-09
5.70233e-07
7.21972e-09
5.7036e-07
7.52259e-09
5.7044e-07
7.63748e-09
5.70504e-07
7.97934e-09
5.70591e-07
8.0655e-09
5.70631e-07
8.1097e-09
5.70676e-07
8.15361e-09
5.70746e-07
8.21181e-09
5.70779e-07
8.27005e-09
5.70797e-07
8.37068e-09
5.70779e-07
8.45611e-09
5.70739e-07
8.76495e-09
8.81043e-09
6.12087e-07
2.62346e-09
-6.11868e-07
6.12324e-07
2.83476e-09
6.12579e-07
3.05526e-09
6.12844e-07
3.30847e-09
6.13122e-07
3.55237e-09
6.13407e-07
3.8364e-09
6.13694e-07
4.08692e-09
6.13987e-07
4.37337e-09
6.1427e-07
4.59763e-09
6.14565e-07
4.85313e-09
6.14846e-07
5.04424e-09
6.15139e-07
5.269e-09
6.15403e-07
5.43596e-09
6.15647e-07
5.61732e-09
6.15871e-07
5.73287e-09
6.16054e-07
5.91641e-09
6.16259e-07
6.01629e-09
6.16408e-07
6.29969e-09
6.16573e-07
6.32854e-09
6.16758e-07
6.63561e-09
6.16919e-07
6.74765e-09
6.17086e-07
7.07834e-09
6.17174e-07
7.13181e-09
6.1729e-07
7.40664e-09
6.17406e-07
7.52166e-09
6.1749e-07
7.89542e-09
6.17574e-07
7.98135e-09
6.1762e-07
8.06378e-09
6.17682e-07
8.09205e-09
6.17766e-07
8.1278e-09
6.17803e-07
8.23221e-09
6.17828e-07
8.34616e-09
6.1782e-07
8.46371e-09
6.17783e-07
8.80188e-09
8.87299e-09
6.62797e-07
2.40226e-09
-6.62576e-07
6.63032e-07
2.59936e-09
6.63278e-07
2.80926e-09
6.63537e-07
3.04963e-09
6.63803e-07
3.28669e-09
6.64081e-07
3.55854e-09
6.64357e-07
3.81057e-09
6.64644e-07
4.08648e-09
6.64923e-07
4.31843e-09
6.65214e-07
4.56228e-09
6.65501e-07
4.75744e-09
6.65792e-07
4.9778e-09
6.66078e-07
5.14967e-09
6.66331e-07
5.36518e-09
6.66574e-07
5.48896e-09
6.66769e-07
5.72151e-09
6.66975e-07
5.81035e-09
6.67159e-07
6.1164e-09
6.67315e-07
6.17255e-09
6.67515e-07
6.43528e-09
6.67694e-07
6.56811e-09
6.67872e-07
6.90113e-09
6.67988e-07
7.01537e-09
6.68086e-07
7.30908e-09
6.68213e-07
7.39386e-09
6.68347e-07
7.76165e-09
6.68428e-07
7.90049e-09
6.68468e-07
8.02357e-09
6.68552e-07
8.00875e-09
6.68653e-07
8.02658e-09
6.68696e-07
8.18858e-09
6.68726e-07
8.31612e-09
6.68736e-07
8.45385e-09
6.68705e-07
8.83297e-09
8.93452e-09
7.17707e-07
2.17749e-09
-7.17482e-07
7.17934e-07
2.37207e-09
7.18174e-07
2.56978e-09
7.18423e-07
2.80014e-09
7.18679e-07
3.03053e-09
7.18944e-07
3.29408e-09
7.19211e-07
3.54312e-09
7.19488e-07
3.81001e-09
7.19766e-07
4.03994e-09
7.20054e-07
4.27486e-09
7.20344e-07
4.46683e-09
7.20637e-07
4.68534e-09
7.20929e-07
4.85707e-09
7.21198e-07
5.09668e-09
7.21447e-07
5.2395e-09
7.21665e-07
5.50361e-09
7.21867e-07
5.60821e-09
7.22076e-07
5.90827e-09
7.22249e-07
5.99873e-09
7.22441e-07
6.24391e-09
7.22651e-07
6.35735e-09
7.2283e-07
6.72269e-09
7.22973e-07
6.87254e-09
7.23082e-07
7.19968e-09
7.23188e-07
7.28798e-09
7.23372e-07
7.57762e-09
7.23475e-07
7.79787e-09
7.23498e-07
7.99993e-09
7.236e-07
7.90747e-09
7.23721e-07
7.90533e-09
7.23776e-07
8.13375e-09
7.23808e-07
8.28364e-09
7.23836e-07
8.42555e-09
7.23817e-07
8.85215e-09
8.99273e-09
7.77162e-07
1.95866e-09
-7.76943e-07
7.7739e-07
2.14408e-09
7.77627e-07
2.33249e-09
7.77867e-07
2.56062e-09
7.78107e-07
2.79063e-09
7.78354e-07
3.04638e-09
7.78606e-07
3.29125e-09
7.78873e-07
3.54341e-09
7.79146e-07
3.76706e-09
7.79432e-07
3.98815e-09
7.7972e-07
4.17931e-09
7.80015e-07
4.39038e-09
7.80304e-07
4.56746e-09
7.80585e-07
4.81578e-09
7.80841e-07
4.98336e-09
7.81074e-07
5.27083e-09
7.81288e-07
5.39488e-09
7.815e-07
5.69615e-09
7.81707e-07
5.79119e-09
7.81892e-07
6.05913e-09
7.82115e-07
6.13412e-09
7.82312e-07
6.52604e-09
7.8246e-07
6.72456e-09
7.82606e-07
7.05316e-09
7.82698e-07
7.19674e-09
7.82892e-07
7.38361e-09
7.83041e-07
7.64833e-09
7.83065e-07
7.9761e-09
7.83169e-07
7.8039e-09
7.83307e-07
7.76739e-09
7.83382e-07
8.0584e-09
7.8342e-07
8.24557e-09
7.83463e-07
8.38278e-09
7.8346e-07
8.85492e-09
9.04023e-09
8.41543e-07
1.71816e-09
-8.41303e-07
8.41791e-07
1.89595e-09
8.42004e-07
2.12009e-09
8.42219e-07
2.34575e-09
8.42439e-07
2.57053e-09
8.42676e-07
2.80905e-09
8.42924e-07
3.0436e-09
8.43189e-07
3.27753e-09
8.43461e-07
3.49554e-09
8.43741e-07
3.70805e-09
8.44022e-07
3.89836e-09
8.44307e-07
4.10494e-09
8.44591e-07
4.28401e-09
8.4487e-07
4.53686e-09
8.45135e-07
4.71798e-09
8.4538e-07
5.02592e-09
8.45609e-07
5.16616e-09
8.4583e-07
5.47521e-09
8.46054e-07
5.56729e-09
8.46253e-07
5.85938e-09
8.46468e-07
5.91991e-09
8.46685e-07
6.30915e-09
8.46842e-07
6.56731e-09
8.47012e-07
6.88325e-09
8.47124e-07
7.08406e-09
8.47297e-07
7.21143e-09
8.47475e-07
7.47001e-09
8.47538e-07
7.91251e-09
8.47636e-07
7.7063e-09
8.47775e-07
7.62864e-09
8.47877e-07
7.95642e-09
8.47929e-07
8.19315e-09
8.4798e-07
8.33228e-09
8.47995e-07
8.83988e-09
9.0643e-09
3.2758e-06
1.26801e-09
-3.27535e-06
3.27637e-06
1.32122e-09
3.27704e-06
1.45352e-09
3.27776e-06
1.62926e-09
3.2785e-06
1.82866e-09
3.27927e-06
2.03891e-09
3.28006e-06
2.24826e-09
3.28087e-06
2.47249e-09
3.28168e-06
2.68543e-09
3.2825e-06
2.88787e-09
3.28334e-06
3.05423e-09
3.28419e-06
3.25715e-09
3.28506e-06
3.41656e-09
3.28593e-06
3.66283e-09
3.28681e-06
3.84188e-09
3.28769e-06
4.14178e-09
3.28853e-06
4.32529e-09
3.28937e-06
4.63665e-09
3.29014e-06
4.79576e-09
3.29093e-06
5.07464e-09
3.29163e-06
5.21688e-09
3.2924e-06
5.53768e-09
3.29312e-06
5.8447e-09
3.29376e-06
6.24344e-09
3.29436e-06
6.48361e-09
3.29485e-06
6.7292e-09
3.29545e-06
6.86979e-09
3.29609e-06
7.27214e-09
3.29645e-06
7.3428e-09
3.29681e-06
7.27182e-09
3.29733e-06
7.4308e-09
3.29768e-06
7.84342e-09
3.29789e-06
8.12149e-09
3.2981e-06
8.6344e-09
8.96636e-09
3.54446e-06
7.55648e-10
-3.54395e-06
3.54486e-06
9.22216e-10
3.54522e-06
1.09453e-09
3.54557e-06
1.27414e-09
3.54595e-06
1.4511e-09
3.54637e-06
1.61556e-09
3.54687e-06
1.75297e-09
3.54745e-06
1.88576e-09
3.54811e-06
2.02866e-09
3.54879e-06
2.20781e-09
3.54948e-06
2.3681e-09
3.55016e-06
2.57536e-09
3.55083e-06
2.74251e-09
3.55152e-06
2.97353e-09
3.55222e-06
3.14257e-09
3.55297e-06
3.39627e-09
3.55371e-06
3.5776e-09
3.55449e-06
3.85872e-09
3.55523e-06
4.05579e-09
3.55596e-06
4.34679e-09
3.55663e-06
4.54398e-09
3.55732e-06
4.85404e-09
3.55804e-06
5.11794e-09
3.55875e-06
5.53779e-09
3.5594e-06
5.8305e-09
3.55995e-06
6.18314e-09
3.56049e-06
6.33123e-09
3.56119e-06
6.5702e-09
3.56177e-06
6.76e-09
3.56217e-06
6.87222e-09
3.56269e-06
6.91223e-09
3.5632e-06
7.32927e-09
3.56359e-06
7.73898e-09
3.56395e-06
8.26728e-09
8.6877e-09
3.83526e-06
7.21982e-10
-3.83523e-06
3.8354e-06
7.8218e-10
3.83562e-06
8.80795e-10
3.83589e-06
1.00419e-09
3.8362e-06
1.13898e-09
3.83654e-06
1.27623e-09
3.83688e-06
1.40747e-09
3.83723e-06
1.54309e-09
3.83758e-06
1.67343e-09
3.83797e-06
1.82296e-09
3.83838e-06
1.95776e-09
3.83882e-06
2.13008e-09
3.83929e-06
2.27742e-09
3.83979e-06
2.47483e-09
3.8403e-06
2.62892e-09
3.84085e-06
2.84966e-09
3.84141e-06
3.0123e-09
3.84201e-06
3.26244e-09
3.84262e-06
3.44793e-09
3.84323e-06
3.73395e-09
3.84383e-06
3.94294e-09
3.84443e-06
4.25186e-09
3.84505e-06
4.49939e-09
3.84571e-06
4.87705e-09
3.84635e-06
5.19496e-09
3.84697e-06
5.55913e-09
3.84754e-06
5.76513e-09
3.84815e-06
5.96207e-09
3.8488e-06
6.1036e-09
3.84935e-06
6.32017e-09
3.84987e-06
6.39605e-09
3.85043e-06
6.77165e-09
3.85095e-06
7.22202e-09
3.85142e-06
7.78776e-09
8.23217e-09
4.14938e-06
7.91176e-10
-4.14945e-06
4.14934e-06
8.2052e-10
4.14934e-06
8.88482e-10
4.14937e-06
9.69832e-10
4.14944e-06
1.06447e-09
4.14956e-06
1.16517e-09
4.14969e-06
1.27076e-09
4.14985e-06
1.38257e-09
4.15004e-06
1.49028e-09
4.15025e-06
1.60789e-09
4.15049e-06
1.71625e-09
4.15077e-06
1.85248e-09
4.15107e-06
1.97276e-09
4.15141e-06
2.13598e-09
4.15178e-06
2.26612e-09
4.15217e-06
2.45367e-09
4.15259e-06
2.59143e-09
4.15305e-06
2.80648e-09
4.15353e-06
2.96556e-09
4.15405e-06
3.21833e-09
4.15457e-06
3.4173e-09
4.15512e-06
3.7072e-09
4.15566e-06
3.95503e-09
4.15625e-06
4.2844e-09
4.15686e-06
4.58818e-09
4.1575e-06
4.92435e-09
4.1581e-06
5.15759e-09
4.1587e-06
5.37021e-09
4.15933e-06
5.46545e-09
4.15997e-06
5.68332e-09
4.16055e-06
5.82101e-09
4.16113e-06
6.18363e-09
4.16174e-06
6.61693e-09
4.16234e-06
7.18427e-09
7.63697e-09
4.48637e-06
7.57088e-10
-4.48634e-06
4.48639e-06
8.02335e-10
4.48642e-06
8.59579e-10
4.48647e-06
9.1807e-10
4.48655e-06
9.85931e-10
4.48666e-06
1.05711e-09
4.48679e-06
1.13598e-09
4.48695e-06
1.22087e-09
4.48713e-06
1.30832e-09
4.48733e-06
1.4069e-09
4.48755e-06
1.50137e-09
4.48778e-06
1.61725e-09
4.48804e-06
1.71956e-09
4.48832e-06
1.85639e-09
4.48862e-06
1.96503e-09
4.48895e-06
2.12173e-09
4.48931e-06
2.23618e-09
4.4897e-06
2.41677e-09
4.49011e-06
2.5528e-09
4.49056e-06
2.76985e-09
4.49102e-06
2.95035e-09
4.49152e-06
3.20768e-09
4.49204e-06
3.44289e-09
4.49258e-06
3.73546e-09
4.49316e-06
4.01472e-09
4.49377e-06
4.31641e-09
4.49438e-06
4.54121e-09
4.49499e-06
4.76137e-09
4.4956e-06
4.85156e-09
4.49624e-06
5.04387e-09
4.49686e-06
5.20365e-09
4.49748e-06
5.56214e-09