/*--------------------------------*- C++ -*----------------------------------*\
| =========                 |                                                 |
| \\      /  F ield         | OpenFOAM: The Open Source CFD Toolbox           |
|  \\    /   O peration     | Version:  5.x                                   |
|   \\  /    A nd           | Web:      www.OpenFOAM.org                      |
|    \\/     M anipulation  |                                                 |
\*---------------------------------------------------------------------------*/
FoamFile
{
    version     2.0;
    format      ascii;
    class       volVectorField;
    location    "0.1";
    object      U;
}
// * * * * * * * * * * * * * * * * * * * * * * * * * * * * * * * * * * * * * //

dimensions      [0 1 -1 0 0 0 0];

internalField   nonuniform List<vector> 
2475
(
(0.90868 0.0109715 0)
(0.810211 0.0144836 0)
(0.709288 0.0139932 0)
(0.605302 0.0126002 0)
(0.500627 0.0110199 0)
(0.40135 0.00878506 0)
(0.317976 0.00551572 0)
(0.261074 0.00193046 0)
(0.228113 -4.70028e-05 0)
(0.207699 -0.000470976 0)
(0.193625 -0.000390359 0)
(0.183082 -0.000235104 0)
(0.174199 -6.85141e-05 0)
(0.165977 6.21079e-05 0)
(0.158108 0.000131156 0)
(0.150627 0.000150425 0)
(0.143741 0.000140233 0)
(0.137446 0.000125854 0)
(0.131689 0.000113952 0)
(0.126357 9.99225e-05 0)
(0.121438 8.68104e-05 0)
(0.116855 7.7922e-05 0)
(0.112553 6.94395e-05 0)
(0.108559 6.21284e-05 0)
(0.104831 5.1445e-05 0)
(0.101386 4.86858e-05 0)
(0.0979987 4.64972e-05 0)
(0.0950051 3.76773e-05 0)
(0.0920483 3.15894e-05 0)
(0.0895127 3.32273e-05 0)
(0.0866876 2.73902e-05 0)
(0.0847325 2.39027e-05 0)
(0.0820875 2.05916e-05 0)
(0.0808914 1.94529e-05 0)
(0.0779958 1.77907e-05 0)
(0.964618 0.0197643 0)
(0.956121 0.0275747 0)
(0.940869 0.0286503 0)
(0.916444 0.0278143 0)
(0.881529 0.0266267 0)
(0.837143 0.0243851 0)
(0.787132 0.0203311 0)
(0.737484 0.0146112 0)
(0.692772 0.00938733 0)
(0.651787 0.00611589 0)
(0.613477 0.00424961 0)
(0.578002 0.00318493 0)
(0.545411 0.00255195 0)
(0.51571 0.00214527 0)
(0.48888 0.00183544 0)
(0.464705 0.0015729 0)
(0.443058 0.00133817 0)
(0.423444 0.0011545 0)
(0.405622 0.00101229 0)
(0.389251 0.000888956 0)
(0.374094 0.000781487 0)
(0.359967 0.00069608 0)
(0.346646 0.000616091 0)
(0.334365 0.000549089 0)
(0.322749 0.000476287 0)
(0.311985 0.000434286 0)
(0.301543 0.000390599 0)
(0.292424 0.000338646 0)
(0.283087 0.000294741 0)
(0.275291 0.000280342 0)
(0.266582 0.000233514 0)
(0.260635 0.000209633 0)
(0.252356 0.000171722 0)
(0.248828 0.000162713 0)
(0.240035 0.000130208 0)
(0.969856 0.0187073 0)
(0.969625 0.0265949 0)
(0.971467 0.0292368 0)
(0.972381 0.0294484 0)
(0.970026 0.029151 0)
(0.962902 0.0280099 0)
(0.950884 0.0250267 0)
(0.934588 0.0202054 0)
(0.91592 0.0152083 0)
(0.895373 0.0118384 0)
(0.872973 0.00990874 0)
(0.849307 0.00874662 0)
(0.824628 0.00784976 0)
(0.799215 0.00702084 0)
(0.773262 0.00619313 0)
(0.746994 0.00538319 0)
(0.720967 0.00462064 0)
(0.695494 0.00398194 0)
(0.670989 0.00345369 0)
(0.647715 0.00301208 0)
(0.625443 0.00264334 0)
(0.604392 0.00234959 0)
(0.583933 0.00207269 0)
(0.564943 0.00183805 0)
(0.546515 0.00161387 0)
(0.529405 0.001459 0)
(0.512406 0.00128845 0)
(0.497776 0.00113607 0)
(0.482154 0.000997946 0)
(0.469518 0.000926314 0)
(0.454789 0.000776064 0)
(0.445095 0.000704395 0)
(0.430738 0.000570183 0)
(0.424976 0.000539458 0)
(0.409775 0.000413512 0)
(0.975831 0.0177935 0)
(0.975203 0.0244116 0)
(0.977734 0.0277477 0)
(0.981983 0.0284127 0)
(0.986188 0.0281677 0)
(0.989165 0.0272543 0)
(0.990294 0.024911 0)
(0.989092 0.0210448 0)
(0.985391 0.0166947 0)
(0.979553 0.0135402 0)
(0.97175 0.0118677 0)
(0.962736 0.0110054 0)
(0.952491 0.0103667 0)
(0.941197 0.00973468 0)
(0.92843 0.00905411 0)
(0.914092 0.00833755 0)
(0.897985 0.0075787 0)
(0.880571 0.00687172 0)
(0.861916 0.00619561 0)
(0.843116 0.00557 0)
(0.823598 0.00500073 0)
(0.804722 0.00454235 0)
(0.784958 0.00409372 0)
(0.766162 0.00368834 0)
(0.746458 0.00329079 0)
(0.728096 0.00300836 0)
(0.708296 0.00266716 0)
(0.691659 0.00238211 0)
(0.672263 0.00210772 0)
(0.657306 0.00195319 0)
(0.638107 0.0016496 0)
(0.626378 0.00151452 0)
(0.606911 0.00123177 0)
(0.599762 0.00116821 0)
(0.578615 0.000884441 0)
(0.981351 0.0175652 0)
(0.980654 0.0229038 0)
(0.98256 0.02655 0)
(0.986679 0.0276218 0)
(0.991371 0.0272898 0)
(0.995776 0.0262374 0)
(0.999175 0.0240943 0)
(1.00156 0.0207825 0)
(1.00221 0.0169249 0)
(1.00151 0.0138904 0)
(0.99932 0.0122425 0)
(0.996819 0.0114864 0)
(0.993737 0.011013 0)
(0.99075 0.0105624 0)
(0.986855 0.010063 0)
(0.982373 0.00955028 0)
(0.975988 0.00897696 0)
(0.96866 0.00844571 0)
(0.959128 0.00787032 0)
(0.949383 0.00729453 0)
(0.937567 0.00670561 0)
(0.926542 0.00622496 0)
(0.913412 0.00574127 0)
(0.901551 0.00531254 0)
(0.886911 0.00485447 0)
(0.874017 0.00455513 0)
(0.857337 0.00411257 0)
(0.844512 0.00375487 0)
(0.826488 0.00337821 0)
(0.814059 0.00317989 0)
(0.794444 0.00272007 0)
(0.784119 0.00253748 0)
(0.763089 0.00209541 0)
(0.756722 0.00201741 0)
(0.732626 0.00154013 0)
(0.985878 0.0176236 0)
(0.985337 0.0219028 0)
(0.986789 0.0254491 0)
(0.99054 0.0268477 0)
(0.994971 0.0265297 0)
(0.999468 0.025348 0)
(1.00288 0.0233043 0)
(1.00572 0.0203957 0)
(1.00698 0.0169694 0)
(1.0075 0.0140456 0)
(1.00649 0.0123123 0)
(1.00572 0.01152 0)
(1.00441 0.0110832 0)
(1.00416 0.0107075 0)
(1.00324 0.0102703 0)
(1.00306 0.00986068 0)
(1.00117 0.00940058 0)
(0.999648 0.00902507 0)
(0.995747 0.00857199 0)
(0.992606 0.00810571 0)
(0.986699 0.00756332 0)
(0.982459 0.00712004 0)
(0.975255 0.00663551 0)
(0.970634 0.00624895 0)
(0.962102 0.00580358 0)
(0.956592 0.00558492 0)
(0.945664 0.00513317 0)
(0.939419 0.00478766 0)
(0.926417 0.0043796 0)
(0.919979 0.00422655 0)
(0.904326 0.00368111 0)
(0.898194 0.00349599 0)
(0.880227 0.00292916 0)
(0.87697 0.00288752 0)
(0.855322 0.00226851 0)
(0.989175 0.0177395 0)
(0.988803 0.0211809 0)
(0.98993 0.0242745 0)
(0.99334 0.0258182 0)
(0.997414 0.0256119 0)
(1.00192 0.0244241 0)
(1.00515 0.0225006 0)
(1.00807 0.0199567 0)
(1.00927 0.0169627 0)
(1.01015 0.0142142 0)
(1.00924 0.0123943 0)
(1.00884 0.0115205 0)
(1.00753 0.011061 0)
(1.0078 0.0107103 0)
(1.00722 0.0102701 0)
(1.00821 0.00988836 0)
(1.00748 0.0094562 0)
(1.00817 0.00916109 0)
(1.0065 0.00877896 0)
(1.00653 0.00840276 0)
(1.00353 0.00790281 0)
(1.00299 0.00750872 0)
(0.998943 0.00701259 0)
(0.998427 0.00665259 0)
(0.993747 0.00620944 0)
(0.993096 0.00607294 0)
(0.986909 0.00565075 0)
(0.985609 0.00534796 0)
(0.977695 0.00493398 0)
(0.976419 0.00485624 0)
(0.966485 0.00430981 0)
(0.964422 0.00416634 0)
(0.951924 0.0035144 0)
(0.951879 0.00351999 0)
(0.936926 0.00287788 0)
(0.991347 0.0177875 0)
(0.991047 0.0205519 0)
(0.991926 0.0230694 0)
(0.995008 0.0245966 0)
(0.998699 0.0245638 0)
(1.00314 0.0234939 0)
(1.00626 0.0217294 0)
(1.00924 0.0194944 0)
(1.01042 0.0168911 0)
(1.01151 0.0143682 0)
(1.01071 0.0125011 0)
(1.01046 0.0115377 0)
(1.00904 0.0110322 0)
(1.00926 0.0106929 0)
(1.00852 0.0102415 0)
(1.00959 0.00986508 0)
(1.00902 0.00941877 0)
(1.01022 0.00915152 0)
(1.0093 0.00879534 0)
(1.01041 0.0084788 0)
(1.0087 0.00800583 0)
(1.00957 0.0076604 0)
(1.00706 0.00715949 0)
(1.00792 0.00680574 0)
(1.00515 0.00634271 0)
(1.00623 0.00624558 0)
(1.00293 0.00585397 0)
(1.00368 0.00558372 0)
(0.999308 0.00516368 0)
(1.00028 0.00512742 0)
(0.995107 0.00461532 0)
(0.995256 0.00453671 0)
(0.987801 0.00383408 0)
(0.989214 0.00383832 0)
(0.981239 0.0032625 0)
(0.992767 0.0176799 0)
(0.992409 0.0199225 0)
(0.993113 0.0219139 0)
(0.995852 0.0233134 0)
(0.999179 0.0234456 0)
(1.00343 0.0225527 0)
(1.00648 0.0209704 0)
(1.00945 0.0189938 0)
(1.0107 0.0167238 0)
(1.01191 0.0144546 0)
(1.01138 0.0126026 0)
(1.01124 0.0115598 0)
(1.00992 0.0110011 0)
(1.00999 0.0106726 0)
(1.00926 0.0102214 0)
(1.0101 0.00985221 0)
(1.00964 0.00937905 0)
(1.01072 0.00910982 0)
(1.01019 0.00875099 0)
(1.01142 0.00846752 0)
(1.01044 0.00801175 0)
(1.01155 0.0077076 0)
(1.01002 0.00721908 0)
(1.01098 0.00686925 0)
(1.00927 0.00638454 0)
(1.01038 0.00629412 0)
(1.00867 0.00592319 0)
(1.00969 0.00566652 0)
(1.00737 0.0052428 0)
(1.00858 0.00521207 0)
(1.00621 0.00472539 0)
(1.00701 0.00471037 0)
(1.00297 0.00399033 0)
(1.00431 0.00394266 0)
(1.00089 0.00345486 0)
(0.993813 0.01741 0)
(0.993298 0.0192769 0)
(0.99388 0.0208482 0)
(0.996266 0.0220462 0)
(0.999275 0.0222843 0)
(1.0032 0.0215824 0)
(1.00622 0.0202058 0)
(1.00907 0.0184646 0)
(1.01047 0.0164772 0)
(1.01168 0.0144641 0)
(1.01148 0.0126868 0)
(1.01141 0.0115854 0)
(1.01036 0.0109713 0)
(1.01027 0.0106504 0)
(1.00968 0.0102044 0)
(1.01027 0.00984746 0)
(1.00999 0.00935029 0)
(1.01082 0.00906584 0)
(1.01058 0.00869012 0)
(1.0116 0.00842229 0)
(1.01112 0.00797915 0)
(1.01206 0.00770635 0)
(1.0112 0.00723674 0)
(1.01198 0.00689895 0)
(1.0109 0.00640231 0)
(1.01168 0.00630762 0)
(1.01076 0.00594786 0)
(1.01155 0.00569221 0)
(1.01025 0.00527042 0)
(1.01116 0.00523266 0)
(1.01001 0.0047538 0)
(1.0108 0.00478178 0)
(1.00873 0.00407285 0)
(1.00952 0.00396082 0)
(1.00813 0.00354299 0)
(0.994703 0.0170204 0)
(0.993982 0.0186098 0)
(0.994453 0.0198587 0)
(0.996515 0.0208363 0)
(0.999255 0.021119 0)
(1.00282 0.020602 0)
(1.00578 0.0194411 0)
(1.00848 0.0179245 0)
(1.00999 0.0161764 0)
(1.01117 0.0144054 0)
(1.01126 0.0127484 0)
(1.01126 0.0116162 0)
(1.01048 0.0109429 0)
(1.01029 0.0106164 0)
(1.00986 0.0101727 0)
(1.01025 0.00983248 0)
(1.01015 0.00932446 0)
(1.01077 0.00902649 0)
(1.01075 0.00862882 0)
(1.01155 0.00836698 0)
(1.01134 0.00793259 0)
(1.01209 0.00768356 0)
(1.0116 0.00722785 0)
(1.01225 0.00691145 0)
(1.01151 0.00641155 0)
(1.01209 0.00631266 0)
(1.01149 0.00595896 0)
(1.01211 0.00569915 0)
(1.01122 0.00528314 0)
(1.01195 0.00523777 0)
(1.01121 0.0047608 0)
(1.01184 0.00480293 0)
(1.01082 0.00412342 0)
(1.01118 0.00396545 0)
(1.01041 0.003594 0)
(0.995511 0.0165512 0)
(0.994575 0.0179154 0)
(0.994915 0.018926 0)
(0.996713 0.0197041 0)
(0.999215 0.0199844 0)
(1.00244 0.0196208 0)
(1.00529 0.0186613 0)
(1.00785 0.0173637 0)
(1.00942 0.0158306 0)
(1.01058 0.0142842 0)
(1.01086 0.0127747 0)
(1.01097 0.0116419 0)
(1.0104 0.0109057 0)
(1.01019 0.0105597 0)
(1.00985 0.0101192 0)
(1.01014 0.00979925 0)
(1.01015 0.00929276 0)
(1.01065 0.00898937 0)
(1.01075 0.00856892 0)
(1.01143 0.00830786 0)
(1.01134 0.0078782 0)
(1.01198 0.00765054 0)
(1.01164 0.00720229 0)
(1.01224 0.00691259 0)
(1.01165 0.00641375 0)
(1.01217 0.00631308 0)
(1.01167 0.00596499 0)
(1.01224 0.00569914 0)
(1.01148 0.00529143 0)
(1.01215 0.00523808 0)
(1.01153 0.00476748 0)
(1.01204 0.00479855 0)
(1.01153 0.00415745 0)
(1.01167 0.00397832 0)
(1.01102 0.00363751 0)
(0.996252 0.0160285 0)
(0.995109 0.0172018 0)
(0.995294 0.0180404 0)
(0.996881 0.018652 0)
(0.999169 0.0188975 0)
(1.00211 0.0186512 0)
(1.00482 0.0178685 0)
(1.00725 0.016785 0)
(1.00884 0.0154565 0)
(1.01 0.0141115 0)
(1.01039 0.0127538 0)
(1.01061 0.0116536 0)
(1.01021 0.0108624 0)
(1.01003 0.0104899 0)
(1.00974 0.0100524 0)
(1.00999 0.00974862 0)
(1.01004 0.00924733 0)
(1.01051 0.00894859 0)
(1.01065 0.00851215 0)
(1.01128 0.00825174 0)
(1.01123 0.00782188 0)
(1.01183 0.00761514 0)
(1.01154 0.00717072 0)
(1.01211 0.00690669 0)
(1.0116 0.00641114 0)
(1.01211 0.00631188 0)
(1.01164 0.00597156 0)
(1.01219 0.00569751 0)
(1.01149 0.00529981 0)
(1.01214 0.00523555 0)
(1.01156 0.00477799 0)
(1.01199 0.00478209 0)
(1.01172 0.00418288 0)
(1.01177 0.00399964 0)
(1.01114 0.00368103 0)
(0.99693 0.0154548 0)
(0.99559 0.0164665 0)
(0.9956 0.0171748 0)
(0.997008 0.0176586 0)
(0.999111 0.0178537 0)
(1.00181 0.0176978 0)
(1.00436 0.0170673 0)
(1.00669 0.0161833 0)
(1.00825 0.01505 0)
(1.00943 0.0138829 0)
(1.00989 0.0126721 0)
(1.0102 0.0116418 0)
(1.00995 0.0108176 0)
(1.00983 0.0104127 0)
(1.00958 0.00996909 0)
(1.0098 0.00967558 0)
(1.00988 0.00918016 0)
(1.01033 0.00889548 0)
(1.0105 0.00845421 0)
(1.01111 0.00819778 0)
(1.01108 0.00776254 0)
(1.01166 0.00757419 0)
(1.01138 0.00713394 0)
(1.01193 0.00689324 0)
(1.01147 0.00640368 0)
(1.01198 0.00630855 0)
(1.01153 0.005978 0)
(1.01206 0.00569377 0)
(1.01141 0.00530831 0)
(1.01204 0.00523001 0)
(1.01149 0.00479056 0)
(1.01188 0.00476146 0)
(1.01169 0.004205 0)
(1.01171 0.00402553 0)
(1.01111 0.00372477 0)
(0.997549 0.014838 0)
(0.996019 0.015714 0)
(0.99585 0.0163185 0)
(0.997095 0.016716 0)
(0.99904 0.0168585 0)
(1.00154 0.0167693 0)
(1.00394 0.0162719 0)
(1.00616 0.0155611 0)
(1.00769 0.0146102 0)
(1.00886 0.0136076 0)
(1.00937 0.0125395 0)
(1.00977 0.0116036 0)
(1.00963 0.0107714 0)
(1.0096 0.0103295 0)
(1.00937 0.00987141 0)
(1.00959 0.00958826 0)
(1.00968 0.00909929 0)
(1.01013 0.00882964 0)
(1.01031 0.00839149 0)
(1.01091 0.00814542 0)
(1.0109 0.00770531 0)
(1.01145 0.00752869 0)
(1.01119 0.00709416 0)
(1.01172 0.00687675 0)
(1.01131 0.00639445 0)
(1.01181 0.00630322 0)
(1.01138 0.00598275 0)
(1.01189 0.00568696 0)
(1.01129 0.00531699 0)
(1.0119 0.00522229 0)
(1.01137 0.00480256 0)
(1.01175 0.00473928 0)
(1.01158 0.00422586 0)
(1.01159 0.0040532 0)
(1.01104 0.00376759 0)
(0.998112 0.0141886 0)
(0.996401 0.014953 0)
(0.996056 0.0154736 0)
(0.997143 0.0158163 0)
(0.998952 0.0159154 0)
(1.0013 0.015867 0)
(1.00354 0.0154861 0)
(1.00567 0.0149165 0)
(1.00715 0.0141339 0)
(1.00832 0.0132894 0)
(1.00885 0.0123563 0)
(1.00931 0.0115204 0)
(1.00927 0.0107047 0)
(1.00932 0.0102362 0)
(1.00913 0.00976029 0)
(1.00935 0.00948598 0)
(1.00944 0.00900459 0)
(1.0099 0.0087458 0)
(1.01008 0.00831733 0)
(1.01067 0.00808942 0)
(1.01068 0.00765323 0)
(1.01122 0.00748039 0)
(1.01098 0.00704867 0)
(1.01147 0.00685628 0)
(1.01112 0.00638181 0)
(1.0116 0.00629425 0)
(1.01121 0.00598639 0)
(1.01168 0.00567876 0)
(1.01115 0.00532696 0)
(1.01173 0.00521444 0)
(1.01123 0.00481369 0)
(1.01159 0.00471791 0)
(1.01143 0.00424711 0)
(1.01144 0.00408217 0)
(1.01093 0.00380913 0)
(0.998624 0.0135215 0)
(0.996741 0.0141907 0)
(0.99623 0.0146443 0)
(0.997163 0.0149497 0)
(0.998848 0.0150278 0)
(1.00106 0.0149971 0)
(1.00318 0.0147149 0)
(1.00522 0.0142625 0)
(1.00664 0.0136308 0)
(1.00778 0.0129374 0)
(1.00833 0.0121254 0)
(1.00883 0.0113918 0)
(1.00887 0.0106126 0)
(1.00899 0.0101381 0)
(1.00885 0.00964074 0)
(1.00908 0.00936624 0)
(1.00917 0.00889655 0)
(1.00964 0.0086456 0)
(1.00983 0.00823179 0)
(1.01041 0.00802524 0)
(1.01043 0.00760355 0)
(1.01096 0.00743314 0)
(1.01074 0.00699481 0)
(1.0112 0.00682853 0)
(1.0109 0.00636643 0)
(1.01138 0.00628241 0)
(1.01101 0.00598842 0)
(1.01145 0.00566753 0)
(1.01099 0.00533472 0)
(1.01153 0.00520505 0)
(1.01106 0.00482216 0)
(1.0114 0.00469736 0)
(1.01125 0.00426867 0)
(1.01126 0.00411143 0)
(1.0108 0.00384869 0)
(0.999088 0.012849 0)
(0.997047 0.0134306 0)
(0.996381 0.013831 0)
(0.99717 0.0141073 0)
(0.998734 0.0141858 0)
(1.00085 0.0141613 0)
(1.00284 0.0139544 0)
(1.0048 0.013609 0)
(1.00617 0.0131007 0)
(1.00728 0.0125516 0)
(1.00783 0.0118481 0)
(1.00834 0.0112221 0)
(1.00844 0.0104914 0)
(1.00864 0.0100263 0)
(1.00854 0.00951546 0)
(1.00878 0.00923256 0)
(1.00888 0.00877919 0)
(1.00935 0.0085344 0)
(1.00956 0.00813679 0)
(1.01012 0.00794872 0)
(1.01016 0.00754526 0)
(1.01066 0.00738808 0)
(1.01047 0.00693663 0)
(1.01091 0.00679156 0)
(1.01066 0.00634968 0)
(1.01112 0.0062683 0)
(1.01079 0.00598607 0)
(1.01118 0.00565128 0)
(1.0108 0.00533878 0)
(1.01131 0.0051958 0)
(1.01087 0.00482881 0)
(1.0112 0.00467714 0)
(1.01106 0.00428923 0)
(1.01107 0.0041412 0)
(1.01065 0.00388671 0)
(0.99951 0.0121737 0)
(0.997325 0.0126759 0)
(0.996519 0.0130307 0)
(0.997175 0.0132845 0)
(0.998621 0.0133711 0)
(1.00064 0.0133624 0)
(1.00255 0.0132049 0)
(1.00441 0.012961 0)
(1.00574 0.0125456 0)
(1.00681 0.01213 0)
(1.00734 0.0115302 0)
(1.00785 0.0110046 0)
(1.008 0.010334 0)
(1.00825 0.00988123 0)
(1.0082 0.00937746 0)
(1.00845 0.00908435 0)
(1.00856 0.00864638 0)
(1.00905 0.00841127 0)
(1.00926 0.00803235 0)
(1.00982 0.00786098 0)
(1.00987 0.00747068 0)
(1.01035 0.00734002 0)
(1.01018 0.0068823 0)
(1.0106 0.00674504 0)
(1.0104 0.00632701 0)
(1.01085 0.00625121 0)
(1.01055 0.00597967 0)
(1.0109 0.0056341 0)
(1.0106 0.00534029 0)
(1.01107 0.00518686 0)
(1.01066 0.00483497 0)
(1.01098 0.00465879 0)
(1.01084 0.0043083 0)
(1.01085 0.00417026 0)
(1.01047 0.00392271 0)
(0.999896 0.0115077 0)
(0.997581 0.0119443 0)
(0.996652 0.0122539 0)
(0.997189 0.0124936 0)
(0.998526 0.0125863 0)
(1.00045 0.0126102 0)
(1.00228 0.012484 0)
(1.00408 0.0123241 0)
(1.00535 0.0119847 0)
(1.00638 0.0116768 0)
(1.00689 0.0111868 0)
(1.00739 0.0107433 0)
(1.00755 0.0101496 0)
(1.00785 0.00970991 0)
(1.00784 0.00922381 0)
(1.00811 0.00893245 0)
(1.00824 0.00850053 0)
(1.00873 0.00827963 0)
(1.00897 0.00791953 0)
(1.00951 0.00776826 0)
(1.00958 0.00738464 0)
(1.01002 0.00727797 0)
(1.00987 0.00683378 0)
(1.01028 0.00669506 0)
(1.01013 0.00629451 0)
(1.01057 0.00623205 0)
(1.0103 0.00596931 0)
(1.01061 0.00561482 0)
(1.01039 0.00533517 0)
(1.01082 0.00517277 0)
(1.01044 0.00483818 0)
(1.01074 0.00464232 0)
(1.01062 0.00432619 0)
(1.01063 0.00419858 0)
(1.01029 0.003957 0)
(1.00025 0.010848 0)
(0.997818 0.0112319 0)
(0.996784 0.0115004 0)
(0.997217 0.0117298 0)
(0.998458 0.0118301 0)
(1.00029 0.0118879 0)
(1.00206 0.0117963 0)
(1.00378 0.0116896 0)
(1.00501 0.0114273 0)
(1.00601 0.0111905 0)
(1.00647 0.0108121 0)
(1.00695 0.0104417 0)
(1.00712 0.00992656 0)
(1.00745 0.00951666 0)
(1.00748 0.00903683 0)
(1.00777 0.00877259 0)
(1.00791 0.00834062 0)
(1.00842 0.00813309 0)
(1.00867 0.00779672 0)
(1.00919 0.00766992 0)
(1.00928 0.00729636 0)
(1.00969 0.00718922 0)
(1.00956 0.00677392 0)
(1.00995 0.00664835 0)
(1.00986 0.00625303 0)
(1.01029 0.00620863 0)
(1.01004 0.0059561 0)
(1.01031 0.00559383 0)
(1.01017 0.00532584 0)
(1.01056 0.00515478 0)
(1.01021 0.00484042 0)
(1.0105 0.0046289 0)
(1.0104 0.00434134 0)
(1.0104 0.00422614 0)
(1.01009 0.00399031 0)
(1.00058 0.0101951 0)
(0.998043 0.0105283 0)
(0.996916 0.0107693 0)
(0.997262 0.0109808 0)
(0.998419 0.0110974 0)
(1.00017 0.0111753 0)
(1.00186 0.0111341 0)
(1.00353 0.0110607 0)
(1.00471 0.0108735 0)
(1.00568 0.010689 0)
(1.00611 0.0103973 0)
(1.00654 0.0101152 0)
(1.0067 0.0096558 0)
(1.00704 0.00930687 0)
(1.00712 0.0088196 0)
(1.00742 0.00859035 0)
(1.00758 0.00817337 0)
(1.00811 0.0079659 0)
(1.00838 0.00766503 0)
(1.00888 0.00755848 0)
(1.00897 0.00721221 0)
(1.00936 0.0070868 0)
(1.00926 0.00668984 0)
(1.00962 0.00661096 0)
(1.00959 0.00621294 0)
(1.01002 0.00617065 0)
(1.00978 0.00593468 0)
(1.01001 0.00557269 0)
(1.00996 0.00531442 0)
(1.01031 0.00513225 0)
(1.00998 0.00483968 0)
(1.01026 0.00462137 0)
(1.01017 0.00435521 0)
(1.01018 0.00425037 0)
(1.00989 0.00402206 0)
(1.00088 0.00955977 0)
(0.998253 0.0098408 0)
(0.997046 0.0100679 0)
(0.997322 0.0102555 0)
(0.998408 0.0103908 0)
(1.00008 0.0104829 0)
(1.0017 0.01049 0)
(1.00331 0.0104571 0)
(1.00446 0.0103175 0)
(1.00539 0.0101942 0)
(1.00579 0.00994321 0)
(1.00617 0.00976641 0)
(1.00631 0.00934717 0)
(1.00664 0.00907365 0)
(1.00675 0.00859787 0)
(1.00709 0.00837687 0)
(1.00724 0.00801437 0)
(1.0078 0.00779019 0)
(1.0081 0.00752161 0)
(1.00857 0.00742882 0)
(1.00867 0.00711736 0)
(1.00902 0.00699159 0)
(1.00896 0.00657522 0)
(1.0093 0.00655942 0)
(1.00932 0.00618458 0)
(1.00974 0.00611902 0)
(1.00952 0.00590196 0)
(1.00971 0.00555369 0)
(1.00975 0.00529765 0)
(1.01006 0.00510082 0)
(1.00975 0.00482936 0)
(1.01002 0.0046166 0)
(1.00995 0.00437085 0)
(1.00997 0.00427412 0)
(1.00969 0.0040531 0)
(1.00116 0.00893194 0)
(0.998451 0.00917139 0)
(0.997178 0.00938288 0)
(0.997392 0.00955963 0)
(0.998425 0.00969935 0)
(1.00003 0.00982166 0)
(1.00159 0.00985239 0)
(1.00312 0.00988266 0)
(1.00423 0.00975915 0)
(1.00512 0.00970764 0)
(1.00551 0.00947067 0)
(1.00584 0.00937684 0)
(1.00593 0.00901633 0)
(1.00625 0.0087907 0)
(1.00638 0.00837481 0)
(1.00676 0.00812742 0)
(1.00692 0.00784344 0)
(1.00748 0.00761558 0)
(1.00783 0.00734801 0)
(1.00827 0.00728864 0)
(1.00837 0.0069986 0)
(1.00867 0.00691544 0)
(1.00866 0.00645881 0)
(1.00899 0.00646368 0)
(1.00904 0.00616674 0)
(1.00946 0.00607031 0)
(1.00926 0.00585186 0)
(1.00941 0.00553683 0)
(1.00953 0.00527931 0)
(1.00981 0.00506615 0)
(1.00953 0.00481296 0)
(1.00979 0.00461098 0)
(1.00973 0.00438369 0)
(1.00976 0.00429533 0)
(1.0095 0.00408428 0)
(1.00142 0.00831187 0)
(0.998632 0.00853108 0)
(0.997314 0.00871306 0)
(0.997472 0.00889751 0)
(0.998475 0.00902303 0)
(1.00001 0.00918528 0)
(1.00152 0.00922187 0)
(1.00298 0.00931411 0)
(1.00404 0.00920994 0)
(1.00488 0.00920835 0)
(1.00525 0.00900489 0)
(1.00555 0.00893666 0)
(1.00559 0.00867166 0)
(1.0059 0.00846183 0)
(1.006 0.00814103 0)
(1.00643 0.00788014 0)
(1.00661 0.00764111 0)
(1.00715 0.00746491 0)
(1.00756 0.00714923 0)
(1.00799 0.00713989 0)
(1.00809 0.00685608 0)
(1.00831 0.00682347 0)
(1.00834 0.00637775 0)
(1.0087 0.00632544 0)
(1.00877 0.00612707 0)
(1.00917 0.00603845 0)
(1.009 0.0057797 0)
(1.00912 0.00551011 0)
(1.00931 0.0052573 0)
(1.00956 0.00502731 0)
(1.00931 0.00479201 0)
(1.00955 0.00460407 0)
(1.00951 0.00440029 0)
(1.00955 0.00431489 0)
(1.00932 0.00411296 0)
(1.00165 0.00769613 0)
(0.998798 0.00790959 0)
(0.997446 0.00806824 0)
(0.997559 0.00826258 0)
(0.998541 0.00838262 0)
(1.00002 0.00856621 0)
(1.00149 0.00862445 0)
(1.00286 0.00874253 0)
(1.00387 0.0086876 0)
(1.00467 0.00869186 0)
(1.005 0.00854759 0)
(1.00529 0.00846557 0)
(1.00527 0.00828714 0)
(1.00556 0.00810599 0)
(1.00565 0.00785487 0)
(1.0061 0.0076485 0)
(1.00633 0.00739096 0)
(1.00682 0.00731864 0)
(1.00728 0.00695331 0)
(1.0077 0.0069568 0)
(1.00781 0.00670394 0)
(1.00796 0.00668005 0)
(1.008 0.00633537 0)
(1.0084 0.00620223 0)
(1.00852 0.00602873 0)
(1.00887 0.00601363 0)
(1.00873 0.00571766 0)
(1.00884 0.00546956 0)
(1.00909 0.00522765 0)
(1.00931 0.00498219 0)
(1.00908 0.00476643 0)
(1.00932 0.00458612 0)
(1.0093 0.00440901 0)
(1.00935 0.00433612 0)
(1.00913 0.00414289 0)
(1.00187 0.00708024 0)
(0.998965 0.007285 0)
(0.997586 0.00744771 0)
(0.997664 0.00764302 0)
(0.998626 0.00778288 0)
(1.00007 0.00796669 0)
(1.00148 0.00806542 0)
(1.00279 0.0081856 0)
(1.00372 0.00818694 0)
(1.00447 0.00818831 0)
(1.00475 0.00808818 0)
(1.00503 0.00800958 0)
(1.00499 0.00785876 0)
(1.00524 0.00774777 0)
(1.00534 0.00751723 0)
(1.00576 0.00741269 0)
(1.00605 0.00712735 0)
(1.0065 0.00712741 0)
(1.00696 0.00678772 0)
(1.00742 0.00672771 0)
(1.00752 0.00653279 0)
(1.00764 0.00649961 0)
(1.00766 0.00626883 0)
(1.00806 0.00613722 0)
(1.00828 0.00588417 0)
(1.00859 0.00593728 0)
(1.00843 0.00569134 0)
(1.00854 0.0054328 0)
(1.00884 0.00518041 0)
(1.00905 0.00493632 0)
(1.00885 0.00474915 0)
(1.00908 0.00456966 0)
(1.00907 0.00441122 0)
(1.00913 0.00435722 0)
(1.00895 0.00417332 0)
(1.00207 0.00643767 0)
(0.999145 0.0066394 0)
(0.997746 0.00682014 0)
(0.997795 0.00703111 0)
(0.998732 0.00719789 0)
(1.00014 0.00739523 0)
(1.00149 0.00752394 0)
(1.00273 0.00766145 0)
(1.00358 0.00769415 0)
(1.00427 0.00771605 0)
(1.00451 0.00762961 0)
(1.00476 0.00757627 0)
(1.00472 0.00742509 0)
(1.00494 0.00737695 0)
(1.00505 0.00717434 0)
(1.00545 0.00714328 0)
(1.00576 0.00689347 0)
(1.0062 0.00688998 0)
(1.00662 0.00663315 0)
(1.00711 0.00650658 0)
(1.00724 0.00631077 0)
(1.00733 0.00631929 0)
(1.00734 0.00612503 0)
(1.00769 0.00608103 0)
(1.00799 0.00576505 0)
(1.00833 0.00575085 0)
(1.00814 0.00563511 0)
(1.00822 0.00541 0)
(1.00858 0.00508785 0)
(1.00879 0.00485283 0)
(1.0086 0.00471792 0)
(1.00882 0.00454181 0)
(1.00884 0.00439133 0)
(1.00891 0.0043689 0)
(1.00875 0.00419905 0)
(1.00226 0.00575755 0)
(0.999356 0.00596399 0)
(0.99796 0.00615492 0)
(0.997981 0.00639914 0)
(0.998888 0.00659321 0)
(1.00025 0.00681966 0)
(1.00154 0.00697634 0)
(1.00271 0.0071377 0)
(1.00347 0.00720281 0)
(1.00407 0.00724446 0)
(1.00427 0.00718674 0)
(1.00449 0.00714655 0)
(1.00445 0.00702864 0)
(1.00467 0.00700621 0)
(1.00479 0.00686602 0)
(1.00517 0.006879 0)
(1.00548 0.00669451 0)
(1.00591 0.00669747 0)
(1.00627 0.00647587 0)
(1.00674 0.00639167 0)
(1.00695 0.00612408 0)
(1.00702 0.00619236 0)
(1.00704 0.00602764 0)
(1.00733 0.00602746 0)
(1.00763 0.0057849 0)
(1.00804 0.00560242 0)
(1.00789 0.00554955 0)
(1.00788 0.00546591 0)
(1.00827 0.00504923 0)
(1.00852 0.00477602 0)
(1.00836 0.0047013 0)
(1.00854 0.00454402 0)
(1.0086 0.00437506 0)
(1.00867 0.0043836 0)
(1.00855 0.00423128 0)
(1.0024 0.00511064 0)
(0.999578 0.00528971 0)
(0.998214 0.00548263 0)
(0.998232 0.00573016 0)
(0.999096 0.00595116 0)
(1.00041 0.00617789 0)
(1.00163 0.0063617 0)
(1.00271 0.00651687 0)
(1.00338 0.00661228 0)
(1.00389 0.00665426 0)
(1.00403 0.00662897 0)
(1.00422 0.00659907 0)
(1.00421 0.00651347 0)
(1.00442 0.00651887 0)
(1.00457 0.00641698 0)
(1.00492 0.00648251 0)
(1.00522 0.00632966 0)
(1.00561 0.00638167 0)
(1.00595 0.00615147 0)
(1.00637 0.0061423 0)
(1.00663 0.0058604 0)
(1.00674 0.00591114 0)
(1.00674 0.00584134 0)
(1.00699 0.0058222 0)
(1.00725 0.00570243 0)
(1.00769 0.0054673 0)
(1.00767 0.00534507 0)
(1.00756 0.00541469 0)
(1.0079 0.0050101 0)
(1.00823 0.00466976 0)
(1.00811 0.00462536 0)
(1.00823 0.00452125 0)
(1.00833 0.00434923 0)
(1.00841 0.00437054 0)
(1.00833 0.00424663 0)
(1.00242 0.00424323 0)
(0.999959 0.00438659 0)
(0.998771 0.00457996 0)
(0.998832 0.00480233 0)
(0.999597 0.00502498 0)
(1.00077 0.00522836 0)
(1.0018 0.00540016 0)
(1.00267 0.00553799 0)
(1.00312 0.00562366 0)
(1.00341 0.00568722 0)
(1.00346 0.00568104 0)
(1.00355 0.00570979 0)
(1.00362 0.00565604 0)
(1.00381 0.00571605 0)
(1.00406 0.00564765 0)
(1.00434 0.00574338 0)
(1.00462 0.00564332 0)
(1.00489 0.00571759 0)
(1.00515 0.00556681 0)
(1.00551 0.00558158 0)
(1.00578 0.00541345 0)
(1.00607 0.00542281 0)
(1.00606 0.0054039 0)
(1.00621 0.00543083 0)
(1.00642 0.00536276 0)
(1.00678 0.00526524 0)
(1.00713 0.00506034 0)
(1.00691 0.00508729 0)
(1.00701 0.00485431 0)
(1.00748 0.00454088 0)
(1.00755 0.00441057 0)
(1.0075 0.00438421 0)
(1.00767 0.00427825 0)
(1.00777 0.00430507 0)
(1.00777 0.00423328 0)
(1.00243 0.0026316 0)
(1.00043 0.00276878 0)
(0.999491 0.0030049 0)
(0.999548 0.00327756 0)
(1.00016 0.00354333 0)
(1.00104 0.00377533 0)
(1.0018 0.00394326 0)
(1.00238 0.00408284 0)
(1.00266 0.00415536 0)
(1.00277 0.00425211 0)
(1.00277 0.00428581 0)
(1.00281 0.00439219 0)
(1.00291 0.00441533 0)
(1.00309 0.004537 0)
(1.00334 0.00454353 0)
(1.00358 0.00465617 0)
(1.0038 0.00463921 0)
(1.00399 0.00472976 0)
(1.00415 0.00469913 0)
(1.0044 0.00476251 0)
(1.00466 0.00472087 0)
(1.00494 0.0047692 0)
(1.00508 0.00475272 0)
(1.00514 0.00485973 0)
(1.00534 0.00483753 0)
(1.00554 0.00487763 0)
(1.00595 0.00471045 0)
(1.00595 0.00462248 0)
(1.00595 0.00451578 0)
(1.00623 0.00433586 0)
(1.00652 0.00412831 0)
(1.00648 0.00414441 0)
(1.00664 0.00413378 0)
(1.00675 0.00417945 0)
(1.00687 0.00415804 0)
(1.0018 0.00180159 0)
(1.00143 0.00192771 0)
(1.00132 0.00216011 0)
(1.00143 0.00242768 0)
(1.00163 0.00268083 0)
(1.00187 0.00289415 0)
(1.00207 0.00304341 0)
(1.00221 0.00316502 0)
(1.00231 0.00323505 0)
(1.00237 0.00333091 0)
(1.00244 0.00338913 0)
(1.0025 0.00350832 0)
(1.00262 0.0035699 0)
(1.00274 0.00369918 0)
(1.00291 0.00373846 0)
(1.00307 0.0038495 0)
(1.00322 0.00385768 0)
(1.00334 0.00395582 0)
(1.00348 0.0039588 0)
(1.00361 0.00406097 0)
(1.00383 0.00406583 0)
(1.004 0.00416148 0)
(1.00422 0.0041672 0)
(1.00427 0.00428128 0)
(1.00446 0.00430813 0)
(1.00457 0.00437526 0)
(1.00489 0.00429872 0)
(1.005 0.00420417 0)
(1.0051 0.00408434 0)
(1.0052 0.00400467 0)
(1.00552 0.003837 0)
(1.00554 0.00384966 0)
(1.00573 0.00388685 0)
(1.00579 0.00396885 0)
(1.00601 0.00397874 0)
(1.00158 0.00220011 0)
(1.00206 0.00227543 0)
(1.00231 0.00239384 0)
(1.00233 0.00251643 0)
(1.00225 0.00263595 0)
(1.0021 0.00273778 0)
(1.002 0.00281877 0)
(1.00194 0.00289392 0)
(1.00196 0.00294825 0)
(1.002 0.00302147 0)
(1.0021 0.00306876 0)
(1.00218 0.00315451 0)
(1.00229 0.00319494 0)
(1.00236 0.00328585 0)
(1.00247 0.00330581 0)
(1.00254 0.00338939 0)
(1.00266 0.00338706 0)
(1.00272 0.00346905 0)
(1.00286 0.00346749 0)
(1.00294 0.00356223 0)
(1.00311 0.00357816 0)
(1.00321 0.00367685 0)
(1.00341 0.00370898 0)
(1.00348 0.00380576 0)
(1.00367 0.00385358 0)
(1.00374 0.00391613 0)
(1.00398 0.00388321 0)
(1.00408 0.00382589 0)
(1.00429 0.00369105 0)
(1.00432 0.00363772 0)
(1.00461 0.00352343 0)
(1.00465 0.00354326 0)
(1.00489 0.0035917 0)
(1.00491 0.00369427 0)
(1.00519 0.00372523 0)
(1.00118 0.00225766 0)
(1.00172 0.00228759 0)
(1.00199 0.00233137 0)
(1.002 0.00236698 0)
(1.0019 0.0024116 0)
(1.00173 0.00245186 0)
(1.00163 0.00249554 0)
(1.00155 0.00254253 0)
(1.00158 0.00258382 0)
(1.00162 0.00263851 0)
(1.00173 0.00267323 0)
(1.00179 0.00273378 0)
(1.00189 0.00275619 0)
(1.00193 0.00281981 0)
(1.00202 0.00282696 0)
(1.00205 0.0028928 0)
(1.00216 0.0028894 0)
(1.0022 0.00296094 0)
(1.00233 0.00296269 0)
(1.00237 0.00304608 0)
(1.00253 0.00307139 0)
(1.00258 0.00316565 0)
(1.00277 0.00321968 0)
(1.00282 0.00331333 0)
(1.00302 0.00337299 0)
(1.00306 0.00343504 0)
(1.00328 0.003424 0)
(1.00334 0.00340405 0)
(1.00359 0.00328791 0)
(1.0036 0.00323968 0)
(1.00385 0.00316513 0)
(1.00389 0.00320595 0)
(1.00415 0.00326186 0)
(1.00416 0.00337068 0)
(1.00446 0.00341865 0)
(1.00083 0.00200689 0)
(1.00135 0.00202856 0)
(1.00161 0.00206161 0)
(1.00162 0.00208373 0)
(1.00153 0.00211712 0)
(1.00137 0.00214528 0)
(1.00128 0.0021808 0)
(1.00122 0.00221731 0)
(1.00126 0.00225197 0)
(1.00129 0.00229519 0)
(1.00139 0.00232291 0)
(1.00144 0.0023701 0)
(1.00153 0.0023862 0)
(1.00155 0.00243656 0)
(1.00164 0.00244095 0)
(1.00165 0.00249556 0)
(1.00175 0.00249356 0)
(1.00178 0.00255433 0)
(1.0019 0.00255831 0)
(1.00192 0.00262962 0)
(1.00206 0.00265795 0)
(1.00209 0.00274314 0)
(1.00226 0.00280209 0)
(1.00229 0.00288934 0)
(1.00247 0.00294952 0)
(1.0025 0.0030087 0)
(1.0027 0.00300771 0)
(1.00274 0.00300142 0)
(1.00297 0.00290705 0)
(1.00298 0.00286576 0)
(1.00322 0.00281087 0)
(1.00324 0.00286144 0)
(1.0035 0.0029203 0)
(1.0035 0.00302426 0)
(1.0038 0.00307785 0)
(1.0006 0.00173327 0)
(1.00105 0.00175113 0)
(1.00128 0.00177919 0)
(1.00128 0.00179562 0)
(1.0012 0.00182387 0)
(1.00106 0.00184604 0)
(1.00099 0.00187671 0)
(1.00094 0.00190611 0)
(1.00098 0.00193559 0)
(1.001 0.00197012 0)
(1.0011 0.00199311 0)
(1.00113 0.00203097 0)
(1.00122 0.00204416 0)
(1.00123 0.00208511 0)