/*--------------------------------*- C++ -*----------------------------------*\
| =========                 |                                                 |
| \\      /  F ield         | OpenFOAM: The Open Source CFD Toolbox           |
|  \\    /   O peration     | Version:  5.x                                   |
|   \\  /    A nd           | Web:      www.OpenFOAM.org                      |
|    \\/     M anipulation  |                                                 |
\*---------------------------------------------------------------------------*/
FoamFile
{
    version     2.0;
    format      ascii;
    class       volScalarField;
    location    "0.7";
    object      p;
}
// * * * * * * * * * * * * * * * * * * * * * * * * * * * * * * * * * * * * * //

dimensions      [0 2 -2 0 0 0 0];

internalField   nonuniform List<scalar> 
2475
(
0.034299
0.0301683
0.0239499
0.0180648
0.01235
0.00644004
0.000778124
-0.00321315
-0.00455758
-0.00382444
-0.00233648
-0.000992594
-0.000110014
0.000344463
0.000520463
0.000556073
0.000543417
0.000522638
0.000505279
0.000484605
0.000462481
0.000430652
0.000382579
0.000325643
0.000273862
0.000217335
0.000164009
0.000111942
6.05191e-05
7.57257e-06
-4.09871e-05
-7.08314e-05
-0.000100311
-7.95659e-05
-9.30802e-05
0.0309294
0.0287588
0.0235105
0.0178136
0.0122136
0.00653254
0.00109992
-0.00282511
-0.00427058
-0.00364715
-0.00222238
-0.000915246
-5.69275e-05
0.000382964
0.000550486
0.000580842
0.000564444
0.000540805
0.000521034
0.000498403
0.000474594
0.000441509
0.000392193
0.000334285
0.000281564
0.000224349
0.000170222
0.00011768
6.55941e-05
1.23209e-05
-3.68534e-05
-6.68487e-05
-9.69113e-05
-7.61461e-05
-9.01754e-05
0.0283068
0.027404
0.0231532
0.0177078
0.012198
0.00678346
0.00171756
-0.00207673
-0.00371773
-0.00335584
-0.00208084
-0.000841753
-8.17238e-06
0.000422947
0.000585997
0.000612717
0.000592575
0.000565032
0.000541608
0.000515719
0.000489159
0.000453851
0.000402687
0.000343342
0.000289468
0.000231334
0.000176342
0.000123185
7.04242e-05
1.67156e-05
-3.30445e-05
-6.3284e-05
-9.38591e-05
-7.3328e-05
-8.78024e-05
0.0262567
0.0260142
0.0226784
0.0176313
0.0122639
0.00710441
0.00240158
-0.00121848
-0.00301815
-0.00295396
-0.00188321
-0.000729606
7.57204e-05
0.000493901
0.000646335
0.000663749
0.000635477
0.000600576
0.000571014
0.000540123
0.000509633
0.000471142
0.000417518
0.000356096
0.000300514
0.000240914
0.000184708
0.00013053
7.67975e-05
2.23085e-05
-2.82458e-05
-5.90114e-05
-9.01687e-05
-7.0453e-05
-8.50149e-05
0.0244917
0.0245794
0.0220232
0.0175058
0.0123734
0.007452
0.00306588
-0.00037216
-0.00228123
-0.00249838
-0.00165139
-0.000597465
0.000178231
0.000585882
0.000727714
0.000733766
0.000694631
0.000649663
0.000611758
0.000574327
0.000538548
0.000495614
0.000438616
0.000374336
0.00031624
0.000254451
0.000196446
0.000140786
8.56798e-05
3.00514e-05
-2.16599e-05
-5.33202e-05
-8.521e-05
-6.71652e-05
-8.10961e-05
0.0228894
0.0231539
0.0212227
0.0173128
0.0125133
0.00782539
0.00370148
0.000436795
-0.00153847
-0.00200466
-0.00138894
-0.000451487
0.00028876
0.000688576
0.000822637
0.000817354
0.000765667
0.000708799
0.000661151
0.000616429
0.000574558
0.000526543
0.00046565
0.000398184
0.000336942
0.000272465
0.000211995
0.00015444
9.74523e-05
4.04504e-05
-1.28815e-05
-4.58044e-05
-7.86515e-05
-6.32225e-05
-7.56086e-05
0.021433
0.0218211
0.0203704
0.0170575
0.0126625
0.00821813
0.00430886
0.0011984
-0.000804995
-0.00147989
-0.00109303
-0.000288852
0.000406227
0.000798635
0.000928247
0.000912494
0.00084674
0.000775883
0.000716844
0.000664009
0.000615417
0.000562002
0.00049687
0.000426205
0.000361491
0.00029424
0.000230795
0.000171158
0.000111802
5.34459e-05
-1.91998e-06
-3.63423e-05
-7.04383e-05
-5.84133e-05
-6.85764e-05
0.0201646
0.0206649
0.0195647
0.0167605
0.0127941
0.00861188
0.00488966
0.00191521
-8.81721e-05
-0.000929964
-0.000760866
-0.000104274
0.000532316
0.000914325
0.00104233
0.00101813
0.000937559
0.000850577
0.000778146
0.000716074
0.000660149
0.000601017
0.000531296
0.000457358
0.000388905
0.00031885
0.000252081
0.000190246
0.000128119
6.84755e-05
1.08313e-05
-2.52308e-05
-6.08362e-05
-5.27322e-05
-6.05819e-05
0.0191156
0.0197344
0.0188591
0.0164464
0.0128893
0.00898984
0.00544826
0.00259709
0.000610243
-0.000361946
-0.000393077
0.00010662
0.000670156
0.00103512
0.00116319
0.00113375
0.00103879
0.000933804
0.000845653
0.000772817
0.000708749
0.000643448
0.000568782
0.000491382
0.000418913
0.000345883
0.000275522
0.000211294
0.000146116
8.50638e-05
2.50546e-05
-1.28842e-05
-5.01378e-05
-4.6353e-05
-5.2344e-05
0.0182123
0.0189726
0.0182582
0.0161316
0.0129386
0.00933379
0.00597854
0.00324282
0.00128316
0.000212176
3.12053e-06
0.000344898
0.000822482
0.00116118
0.00128888
0.00125785
0.00115033
0.0010262
0.00091997
0.000834518
0.000761268
0.000689253
0.000609339
0.000528238
0.00045149
0.000375202
0.000301035
0.000234124
0.00016575
0.000102976
4.06241e-05
4.14328e-07
-3.85114e-05
-3.94321e-05
-4.43109e-05
0.0173654
0.0182862
0.0177294
0.0158279
0.0129426
0.00962776
0.00646783
0.00384575
0.00192287
0.000782312
0.000419869
0.000609783
0.000992451
0.00129419
0.00141805
0.00138807
0.00127095
0.00112789
0.00100169
0.000901615
0.000817894
0.000738447
0.000652956
0.0005679
0.000486671
0.000406793
0.000328651
0.000258692
0.000187056
0.000122145
5.75198e-05
1.45565e-05
-2.60464e-05
-3.20249e-05
-3.66696e-05
0.0165388
0.0176346
0.0172497
0.0155462
0.0129181
0.00987006
0.00690972
0.00440461
0.00252774
0.00134319
0.000853104
0.00090122
0.00118404
0.00143805
0.00155089
0.00152274
0.00139975
0.00123947
0.00109209
0.000975237
0.000879345
0.000791363
0.000699797
0.000610495
0.000524644
0.000440822
0.000358554
0.000285125
0.00021016
0.000142639
7.57808e-05
2.95762e-05
-1.27873e-05
-2.40992e-05
-2.94586e-05
0.0157286
0.0170105
0.01681
0.0152946
0.0128849
0.0100705
0.00730388
0.0049195
0.00309617
0.00188997
0.00129833
0.001217
0.0013988
0.00159608
0.00168889
0.00166108
0.00153576
0.00136094
0.00119197
0.00105625
0.000946289
0.000848373
0.00075009
0.000656186
0.000565592
0.00047744
0.000390896
0.000313555
0.000235175
0.000164575
9.54459e-05
4.5558e-05
1.22101e-06
-1.56031e-05
-2.26732e-05
0.0149463
0.0164206
0.0164096
0.0150751
0.0128534
0.0102387
0.00765106
0.00538837
0.00362425
0.00241519
0.00174824
0.00155209
0.00163558
0.00177103
0.00183518
0.00180311
0.00167734
0.00149103
0.00130124
0.0011453
0.00101944
0.000909915
0.000804
0.000704988
0.000609539
0.000516738
0.00042581
0.000344123
0.000262184
0.000188054
0.000116523
6.25935e-05
1.59378e-05
-6.50229e-06
-1.63018e-05
0.0142047
0.0158706
0.0160439
0.0148808
0.0128243
0.0103799
0.00795215
0.00580876
0.00410825
0.00291036
0.00219395
0.00190178
0.00189289
0.00196499
0.00199281
0.00194881
0.00182238
0.00162787
0.00141937
0.00124288
0.00109965
0.000976592
0.000861754
0.000756946
0.000656499
0.000558779
0.000463376
0.000376972
0.000291279
0.00021321
0.000139029
8.07689e-05
3.13378e-05
3.21674e-06
-1.03108e-05
0.0135055
0.0153559
0.0157035
0.0147022
0.0127956
0.0104976
0.00821008
0.00617983
0.00454568
0.00336885
0.00262698
0.00226154
0.00216811
0.00217716
0.00216362
0.00209946
0.00197009
0.00177035
0.00154572
0.00134906
0.00118739
0.00104897
0.000923687
0.000812233
0.000706565
0.000603673
0.000503673
0.000412244
0.000322543
0.000240181
0.000162994
0.000100167
4.74135e-05
1.3546e-05
-4.66845e-06
0.0128437
0.0148703
0.0153834
0.0145353
0.0127668
0.0105959
0.00842943
0.00650261
0.00493638
0.00378851
0.00303982
0.00262425
0.00245681
0.00240507
0.00234906
0.00225821
0.00212114
0.00191751
0.00167914
0.00146324
0.00128294
0.00112779
0.000990469
0.000871195
0.000759808
0.0006515
0.000546792
0.000450129
0.000356106
0.000269128
0.00018848
0.000120878
6.42079e-05
2.4487e-05
7.93982e-07
0.0122195
0.014413
0.0150831
0.0143776
0.0127357
0.010676
0.00861266
0.00677823
0.00528082
0.00416882
0.00342521
0.00298039
0.0027542
0.00264643
0.00254954
0.00242764
0.00227613
0.00206777
0.00181785
0.00158437
0.00138623
0.00121363
0.00106256
0.000934061
0.000816244
0.00070222
0.000592664
0.000490646
0.000391996
0.000300134
0.000215521
0.000142905
8.17214e-05
3.59743e-05
6.04581e-06
0.0116406
0.0139869
0.0148013
0.0142252
0.0126986
0.0107376
0.00876203
0.00701005
0.00558083
0.0045101
0.0037793
0.003322
0.00305554
0.00289882
0.00276333
0.00260873
0.0024363
0.00222071
0.00196122
0.00171165
0.00149665
0.00130646
0.00114017
0.00100108
0.00087608
0.000755958
0.0006413
0.000533834
0.000430241
0.00033324
0.000244154
0.000166279
9.99857e-05
4.7955e-05
1.10303e-05
0.0111062
0.0135884
0.0145324
0.0140733
0.0126512
0.0107801
0.00888196
0.00720385
0.00583979
0.00481383
0.00410236
0.00364368
0.00335416
0.00315825
0.00298693
0.00280076
0.0026034
0.00237719
0.00210884
0.00184401
0.00161314
0.00140632
0.00122404
0.00107296
0.000939646
0.000812806
0.000692692
0.000579762
0.000471
0.000368661
0.000274549
0.000191086
0.000119105
6.04828e-05
1.62637e-05
0.0106032
0.0132085
0.0142696
0.0139174
0.0125905
0.0108025
0.00897458
0.00736125
0.00605678
0.00507679
0.00439107
0.00393923
0.00364089
0.00341814
0.00321591
0.00300194
0.00277849
0.00253736
0.00225942
0.0019799
0.0017339
0.00151198
0.00131372
0.00114946
0.0010068
0.000872679
0.000746765
0.000628254
0.000514055
0.000406141
0.0003066
0.000217228
0.000139046
7.3418e-05
2.13368e-05
0.0101312
0.0128488
0.0140154
0.0137601
0.0125196
0.0108081
0.00904399
0.00748598
0.00623433
0.00529987
0.00464583
0.00420797
0.00391018
0.00367329
0.00344749
0.00320983
0.00296064
0.00270061
0.00241196
0.00211876
0.00185833
0.00162254
0.00140878
0.00123072
0.00107787
0.000935659
0.000803307
0.000679052
0.000559335
0.000445717
0.000340349
0.000244642
0.000159772
8.67128e-05
2.60392e-05
0.00970122
0.0125184
0.0137774
0.0136069
0.0124425
0.0107985
0.00909167
0.00758187
0.00637773
0.00548812
0.00486961
0.00445117
0.00415907
0.00391821
0.00367803
0.00342101
0.00314826
0.00286806
0.00256777
0.00226114
0.00198587
0.00173711
0.00150887
0.00131677
0.00115304
0.00100209
0.000862701
0.00073248
0.00060702
0.000487455
0.000375889
0.00027354
0.000181498
0.000100595
3.1406e-05
0.00930312
0.0122097
0.0135499
0.0134522
0.0123533
0.010768
0.00911314
0.0076487
0.00648872
0.00564209
0.00505956
0.00466488
0.0043838
0.00414693
0.00390128
0.00363022
0.00333823
0.00303887
0.00272564
0.002405
0.00211432
0.00185371
0.00161275
0.00140684
0.00123178
0.00107163
0.000924625
0.000788012
0.000656598
0.000531022
0.000413061
0.000303694
0.000204047
0.000114905
3.67491e-05
0.00892628
0.0119142
0.0133269
0.0132928
0.0122512
0.0107184
0.00911209
0.00769066
0.00656992
0.00576148
0.00521339
0.00484623
0.00458199
0.00435463
0.00411111
0.00383279
0.00352669
0.00320984
0.00288312
0.00254935
0.00224353
0.00197138
0.00171886
0.00149951
0.00131317
0.00114372
0.000988661
0.000845396
0.000707941
0.000576096
0.000451477
0.000334853
0.000227323
0.000129547
4.15921e-05
0.00857826
0.0116376
0.0131141
0.0131359
0.0121446
0.010658
0.00909429
0.00771044
0.00662327
0.0058489
0.0053345
0.00499737
0.00475444
0.00454039
0.00430439
0.00402575
0.00371087
0.00337846
0.00303893
0.00269415
0.00237337
0.00208876
0.00182558
0.00159404
0.00139697
0.00121844
0.00105501
0.000904594
0.000760731
0.00062255
0.000491193
0.000367132
0.000251344
0.000144686
4.73231e-05
0.00826272
0.0113837
0.0129148
0.0129837
0.0120341
0.0105856
0.00905725
0.00770636
0.00665042
0.00590851
0.00542696
0.00512015
0.00490054
0.00470204
0.0044769
0.00420365
0.00388576
0.0035414
0.00319071
0.00283652
0.00250137
0.00220449
0.00193228
0.00168964
0.0014819
0.00129442
0.00112267
0.00096503
0.000814699
0.000670035
0.000531706
0.000400056
0.000275856
0.000160069
5.32375e-05
0.00797545
0.0111491
0.0127257
0.0128331
0.0119171
0.0105001
0.00900233
0.0076817
0.00665524
0.00594304
0.00549138
0.00521278
0.00501682
0.00483608
0.00462499
0.0043612
0.00404598
0.00369556
0.00333609
0.00297375
0.00262611
0.00231751
0.00203692
0.00178408
0.00156641
0.00137085
0.00119131
0.0010263
0.00086927
0.000717802
0.000572526
0.000433241
0.000300635
0.00017529
5.79976e-05
0.00771092
0.0109293
0.0125439
0.0126834
0.0117955
0.0104052
0.00893348
0.00763882
0.00663748
0.00595029
0.00552463
0.00527238
0.00510203
0.00494308
0.00474933
0.00449709
0.0041878
0.00383671
0.00347083
0.00310243
0.00274623
0.00242648
0.00213767
0.00187676
0.00165046
0.00144745
0.00126055
0.00108815
0.000924459
0.000766335
0.000613958
0.000466823
0.000325788
0.000190878
6.18887e-05
0.00745733
0.0107154
0.0123646
0.0125329
0.011669
0.0102997
0.0088478
0.00757281
0.00659161
0.0059256
0.00552346
0.00529686
0.00515328
0.00501802
0.0048432
0.00460496
0.00430466
0.00395785
0.00358949
0.00321803
0.00285757
0.00252883
0.00223282
0.00196602
0.00173209
0.00152241
0.00132948
0.00115092
0.000980785
0.00081589
0.000656303
0.000501699
0.000352249
0.000208761
7.23223e-05
0.00688302
0.0102302
0.0119567
0.0121845
0.0113638
0.010028
0.00860676
0.00736329
0.00641732
0.00579223
0.00543859
0.00526568
0.00517695
0.00509343
0.00496523
0.00476827
0.00449974
0.00417242
0.00380838
0.00343424
0.00306853
0.00272641
0.00241782
0.00214122
0.00189471
0.00167405
0.0014708
0.00127966
0.00109673
0.000918716
0.000744283
0.00057328
0.000405831
0.000242291
8.23378e-05
0.00711479
0.0103619
0.011978
0.0120949
0.0111755
0.00976319
0.00829188
0.00702454
0.00607874
0.00547512
0.00515981
0.00503691
0.00500334
0.0049738
0.00489344
0.00473691
0.00450167
0.00420165
0.00385974
0.00350164
0.00314867
0.00281579
0.00251186
0.00223864
0.00199389
0.00177201
0.0015659
0.00136989
0.00117934
0.000991033
0.000804009
0.000618265
0.000434551
0.000254223
7.92287e-05
0.00565827
0.00888813
0.0105487
0.0107642
0.00997594
0.00870282
0.00736157
0.00620704
0.00535362
0.00481854
0.00454657
0.00444653
0.00442673
0.0044143
0.00436118
0.0042442
0.00406227
0.00382908
0.00356277
0.00328049
0.00299857
0.00273046
0.0024806
0.00224799
0.00203213
0.00182947
0.00163449
0.00144404
0.00125584
0.00106795
0.000879632
0.000690479
0.000499807
0.000306525
0.000108872
0.00443179
0.00100471
-0.000836922
-0.00122004
-0.000592035
0.000521058
0.00169556
0.00267092
0.0033296
0.00365203
0.00369175
0.00353986
0.00329014
0.00301852
0.00277575
0.00258652
0.00245285
0.00236244
0.00229837
0.00224392
0.00218282
0.0021026
0.00200066
0.00187839
0.00173715
0.00158222
0.00141964
0.00125282
0.00108456
0.000916604
0.0007492
0.000581982
0.000414524
0.000246639
7.89001e-05
0.00326281
-0.000195778
-0.00201656
-0.00233135
-0.00160889
-0.000400148
0.00085637
0.00189622
0.0026014
0.00295154
0.00300197
0.00284976
0.00259824
0.00233169
0.00210448
0.00194242
0.00184953
0.00181358
0.00181284
0.00182371
0.0018263
0.00180725
0.0017599
0.00168288
0.00157979
0.00145679
0.0013201
0.00117533
0.00102683
0.000876905
0.000726241
0.000574214
0.000419226
0.000259168
9.18616e-05
0.00402259
0.000434911
-0.00153416
-0.00200656
-0.00143482
-0.000355617
0.00079881
0.00176357
0.00241803
0.00273787
0.00277189
0.00261031
0.00235048
0.00207289
0.00183116
0.00165244
0.00154303
0.00149347
0.00148505
0.00149627
0.00150808
0.00150624
0.00148189
0.00143185
0.00135715
0.00126138
0.00114986
0.00102796
0.000899864
0.000768446
0.00063513
0.000500016
0.000362395
0.000221188
7.53963e-05
0.00365738
5.65001e-05
-0.00192468
-0.00240815
-0.00184625
-0.000775316
0.00037268
0.00133293
0.00198473
0.00230361
0.00233807
0.00217798
0.0019204
0.00164573
0.00140772
0.00123384
0.00113069
0.00108927
0.00109135
0.00111582
0.00114363
0.00116045
0.00115751
0.00113124
0.00108205
0.00101307
0.000928768
0.000833702
0.000731722
0.000625551
0.000516735
0.000405805
0.000292679
0.000177008
5.86267e-05
0.00361313
1.41275e-05
-0.00196852
-0.00245629
-0.00190066
-0.000837137
0.000302935
0.00125515
0.00189909
0.00221042
0.00223772
0.00207089
0.00180702
0.00152658
0.00128342
0.00110503
0.000998108
0.000953797
0.000954043
0.00097792
0.00100652
0.00102569
0.00102684
0.00100642
0.000964863
0.000905209
0.000831726
0.000748725
0.000659768
0.000567235
0.000472296
0.000375036
0.000274737
0.00017019
6.00448e-05
0.00344177
-0.000159514
-0.00214473
-0.00263548
-0.00208327
-0.00102345
0.000112763
0.00106114
0.00170134
0.00200912
0.00203312
0.00186333
0.00159689
0.00131434
0.00106954
0.000890083
0.000782767
0.000738831
0.000740302
0.000766352
0.000798192
0.000821761
0.000828534
0.000815027
0.000781712
0.000731628
0.000669032
0.000598209
0.000522697
0.000444911
0.000366136
0.000286713
0.000206404
0.000124755
4.14774e-05
0.00326686
-0.000333106
-0.00231703
-0.00280655
-0.00225316
-0.00119219
-5.47361e-05
0.000895032
0.00153682
0.0018464
0.00187242
0.00170483
0.00144078
0.00116076
0.000918672
0.000742133
0.000637968
0.000597454
0.000602667
0.000632846
0.00066927
0.00069793
0.000710371
0.000703201
0.000676955
0.000634724
0.000580799
0.000519466
0.000454227
0.000387417
0.000320165
0.000252566
0.000183996
0.000113451
3.99168e-05
0.00312052
-0.000477838
-0.00246054
-0.00294909
-0.00239482
-0.00133292
-0.000194466
0.000756396
0.00139937
0.00171022
0.00173757
0.00157135
0.00130872
0.00103021
0.000789747
0.000614978
0.000512764
0.000474441
0.000482136
0.000515135
0.000554747
0.000587002
0.00060347
0.000600757
0.000579401
0.000542525
0.000494457
0.00043954
0.000381348
0.000322304
0.000263653
0.000205651
0.000147903
8.97327e-05
3.05669e-05
0.00299299
-0.000604332
-0.00258613
-0.00307389
-0.00251885
-0.00145616
-0.000316838
0.00063499
0.00127904
0.00159108
0.00161971
0.00145488
0.00119373
0.000916806
0.000678051
0.000505138
0.000404949
0.000368849
0.000378996
0.000414703
0.000457301
0.000492853
0.00051297
0.000514299
0.000497428
0.000465529
0.000422978
0.000374161
0.000322697
0.000271043
0.000220466
0.000171221
0.000122878
7.46864e-05
2.59606e-05
0.00288863
-0.000708089
-0.0026892
-0.00317616
-0.00262027
-0.00155667
-0.000416378
0.000536496
0.00118167
0.00149492
0.00152483
0.00136137
0.00110169
0.000826338
0.000589262
0.000418156
0.000319917
0.000285927
0.000298363
0.000336556
0.000381863
0.000420367
0.0004437
0.000448532
0.000435475
0.000407719
0.000369655
0.000325686
0.000279435
0.00023337
0.000188761
0.000145867
0.000104266
6.32122e-05
2.20348e-05
0.00281424
-0.000781963
-0.00276252
-0.00324891
-0.00269239
-0.00162812
-0.000487084
0.000466583
0.00111262
0.00142678
0.00145769
0.00129527
0.0010367
0.000762524
0.000526703
0.000356936
0.00026013
0.000227681
0.000241779
0.000281771
0.000329021
0.000369624
0.000395225
0.00040251
0.000392097
0.000367193
0.000332203
0.000291543
0.000248854
0.000206617
0.000166123
0.000127649
9.07946e-05
5.48399e-05
1.91453e-05
0.00277458
-0.00082095
-0.002801
-0.00328703
-0.00273025
-0.00166576
-0.000524506
0.000429418
0.00107576
0.00139031
0.00142166
0.00125978
0.00100179
0.000728262
0.000493144
0.000324129
0.00022812
0.000196516
0.00021151
0.000252458
0.000300732
0.000342435
0.000369226
0.000377799
0.000368782
0.000345394
0.000312046
0.000273163
0.000232394
0.000192229
0.000153965
0.00011789
8.36081e-05
5.04077e-05
1.76553e-05
0.0125287
0.0104421
0.0103026
0.0101481
0.0102412
0.00979944
0.0100933
0.00995104
0.0100197
0.0103909
0.010825
0.0112827
0.0118493
0.0128503
0.0142211
0.0160504
0.0183633
0.0212592
0.0248686
0.029066
0.0125339
0.0104306
0.0103086
0.0101269
0.0102495
0.00978215
0.0101069
0.00992193
0.0100373
0.0103371
0.0108446
0.0111929
0.0118739
0.0128016
0.0142415
0.0159774
0.0183268
0.0209707
0.024147
0.0274258
0.0125346
0.0104166
0.0103147
0.0101061
0.0102553
0.00976393
0.010118
0.00989253
0.0100527
0.0102839
0.0108579
0.0111243
0.0118849
0.0127575
0.0142291
0.0158844
0.0181467
0.0204701
0.0231118
0.0257026
0.0125295
0.010402
0.010321
0.010085
0.0102566
0.00974845
0.010126
0.00986804
0.0100617
0.0102471
0.0108451
0.0110862
0.0118448
0.0127301
0.0141492
0.0157488
0.0177868
0.0198179
0.0219621
0.0241251
0.0125205
0.0103876
0.0103278
0.0100644
0.0102553
0.00973868
0.0101281
0.00985469
0.0100547
0.0102287
0.0107979
0.0110659
0.0117628
0.0126734
0.014
0.0155226
0.0173204
0.0190688
0.0208249
0.0226759
0.0125092
0.0103749
0.0103341
0.0100469
0.0102499
0.0097369
0.0101191
0.00985587
0.0100251
0.0102336
0.0107263
0.0110359
0.0116646
0.0125566
0.0137662
0.015169
0.0167599
0.0182928
0.0197559
0.0213238
0.0124959
0.0103656
0.0103378
0.0100346
0.0102361
0.00974537
0.0100951
0.00987282
0.00997165
0.0102359
0.0106536
0.0109852
0.01155
0.0123778
0.0134333
0.0146522
0.0160637
0.0174943
0.018802
0.0200685
0.0124798
0.0103618
0.0103365
0.010029
0.0102112
0.00976441
0.0100556
0.0098969
0.00991496
0.0102224
0.0105903
0.0109099
0.0114145
0.0121589
0.0130497
0.0140489
0.0152111
0.0164794
0.0177259
0.0188524
0.0124594
0.010366
0.0103286
0.0100306
0.0101742
0.00979097
0.0100074
0.0099119
0.00987534
0.0101902
0.0105347
0.0108146
0.0112499
0.0118948
0.0126323
0.0133825
0.0142527
0.0152182
0.0162722
0.0176208
0.0124325
0.0103813
0.010313
0.0100399
0.0101246
0.00982104
0.00995931
0.00991453
0.00985396
0.0101448
0.0104716
0.0106994
0.0110359
0.0115125
0.0120289
0.012568
0.0132082
0.0139803
0.0149997
0.0164937
0.0123968
0.0104109
0.0102892
0.0100589
0.0100663
0.00984611
0.00992556
0.00990684
0.0098325
0.0100859
0.0103733
0.0105004
0.0107021
0.0110402
0.0113856
0.0117307
0.0121769
0.0128302
0.0138472
0.0154593
0.0123505
0.0104574
0.010258
0.0100745
0.0100114
0.00985248
0.00991535
0.00989097
0.00980504
0.00998223
0.0101911
0.0102399
0.0103275
0.0105296
0.0107242
0.010899
0.0111873
0.0117458
0.0127591
0.0144699
0.0122916
0.0105229
0.0102229
0.0100825
0.00997153
0.00983844
0.00989676
0.0098594
0.0097236
0.00982778
0.0099778
0.00995698
0.00992875
0.00999325
0.0100531
0.0100807
0.0102257
0.0106927
0.011699
0.0135013
0.0122189
0.0106056
0.0101967
0.0100761
0.00994875
0.00981463
0.00984034
0.00977586
0.0096135
0.00965372
0.00974185
0.00965488
0.00951318
0.00943706
0.00936306
0.00925913
0.00927627
0.00965837
0.010661
0.0125563
0.0121331
0.0106943
0.01019
0.0100604
0.00992031
0.00977092
0.00976208
0.00967674
0.00948691
0.00946078
0.00948432
0.00933079
0.00907916
0.00885826
0.00864527
0.00842387
0.00833694
0.00865009
0.00965732
0.0116492
0.012034
0.0107801
0.0102154
0.01004
0.00987888
0.00971261
0.0096676
0.00955664
0.00934073
0.00925054
0.00920208
0.00897713
0.00861683
0.0082533
0.00790617
0.00758322
0.00741924
0.00768389
0.00870279
0.0107894
0.0119221
0.0108599
0.0102679
0.0100205
0.00982404
0.00963488
0.00955132
0.0094147
0.0091754
0.00901913
0.00888777
0.0085861
0.00812565
0.00763343
0.00716384
0.00675252
0.00653172
0.0067661
0.0078015
0.00997672
0.011801
0.0109241
0.0103433
0.0100103
0.00975788
0.00953526
0.00941195
0.00924911
0.00898423
0.00876022
0.00854291
0.00816434
0.00761522
0.00701167
0.0064313
0.00593959
0.00567416
0.00589392
0.00695289
0.00921189
0.0116793
0.0109655
0.0104241
0.0100134
0.00968788
0.00941704
0.00924577
0.00905186
0.00876284
0.00847857
0.00817851
0.00772322
0.00709202
0.00638899
0.00571239
0.00515057
0.00485146
0.00507117
0.00616359
0.00850369
0.0115654
0.0109841
0.0104837
0.0100328
0.00962101
0.00927528
0.00904532
0.0088188
0.00851133
0.0081763
0.00779643
0.00726377
0.00655605
0.00576726
0.00501076
0.00439286
0.00407102
0.00430113
0.00543423
0.00785228
0.0114595
0.0109618
0.0105148
0.0100927
0.00960467
0.00913046
0.008807
0.00854435
0.00822447
0.00784659
0.00739206
0.00678577
0.00601188
0.00515335
0.00433263
0.0036703
0.00333224
0.00357586
0.00475079
0.00724239
0.0113736
0.010942
0.0104932
0.010032
0.00956064
0.00903561
0.00860129
0.00828277
0.00793121
0.00750296
0.00697682
0.00630187
0.00547133
0.00455891
0.00368782
0.00298967
0.00263884
0.00289571
0.00411073
0.00667163
0.0113308
0.0109714
0.0104551
0.00989463
0.00935269
0.00884659
0.00842597
0.00805955
0.00764834
0.00715429
0.00655687
0.00581816
0.00494021
0.00399049
0.00308326
0.00235847
0.00199944
0.00227064
0.00352439
0.00615071
0.0112812
0.0109364
0.0103739
0.00975924
0.00918136
0.00867649
0.00824567
0.00783272
0.0073604
0.00679849
0.00613296
0.00533712
0.00441861
0.00344082
0.00250976
0.00176834
0.0014069
0.00169405
0.0029843
0.00567034
0.0112131
0.010888
0.0103058
0.00964158
0.009019
0.0084877
0.00803211
0.00757911
0.00705703
0.00643659
0.00570949
0.00486142
0.00390704
0.00290704
0.00196112
0.00121125
0.000852241
0.00115621
0.00248012
0.00521956
0.0111392
0.0108243
0.0102187
0.00951051
0.00884433
0.00827797
0.00778936
0.00730072
0.00673975
0.00607264
0.00529279
0.00440017
0.00341661
0.00240032
0.00144653
0.000694662
0.000341907
0.000663286
0.0020184
0.00480583
0.0110572
0.0107423
0.0101089
0.00936247
0.0086579
0.00805732
0.00753554
0.00701286
0.00641775
0.00571272
0.00488953
0.00396199
0.00295605
0.00192848
0.000971724
0.000222694
-0.000120739
0.000218486
0.00160244
0.00443267
0.0109604
0.0106399
0.0099787
0.0091979
0.00846005
0.0078291
0.00727773
0.00672409
0.00609803
0.00536206
0.00450635
0.00355041
0.00252592
0.00148921
0.000531218
-0.000212472
-0.000543825
-0.000185494
0.00122594
0.0040948
0.0108442
0.010514
0.00982906
0.00901697
0.0082509
0.00759546
0.00702041
0.00644222
0.00578983
0.00502873
0.00414955
0.0031717
0.00213136
0.00108535
0.000123837
-0.000617659
-0.000937189
-0.000557854
0.000880975
0.00378568
0.0107056
0.0103677
0.00965675
0.00881777
0.0080306
0.00735852
0.00676724
0.00617365
0.00550453
0.00472519
0.00383027
0.00283745
0.0017848
0.000730459
-0.000235
-0.000975526
-0.00129112
-0.000900677
0.000561323
0.00349529
0.0103127
0.00995733
0.00919784
0.0083089
0.00748884
0.0067984
0.00619302
0.00558871
0.00491006
0.00411706
0.0032062
0.00219693
0.00112952
6.45771e-05
-0.000908772
-0.00165769
-0.00198428
-0.00160227
-0.000133866
0.00284338
0.00931413
0.0089768
0.00826572
0.00744478
0.00670783
0.00611012
0.00560157
0.00510088
0.00454329
0.003891
0.00312968
0.00226521
0.00132414
0.000357465
-0.000550309
-0.00126591
-0.00158705
-0.00122255
0.000211254
0.00314333
0.00825233
0.00808471
0.00758871
0.00701644
0.00652427
0.00612312
0.00573098
0.00525832
0.00464331
0.0038669
0.00294059
0.00189447
0.00077334
-0.000360376
-0.00141903
-0.00226824
-0.00270864
-0.00244956
-0.00110594
0.00175155
0.00462223
0.0047531
0.00518553
0.00567677
0.00607375
0.00636542
0.00663401
0.00697203
0.00743882
0.00805534
0.00881463
0.00969069
0.0106416
0.0116066
0.0124987
0.0131835
0.0134615
0.0130426
0.0115409
0.00852366
0.00371029
0.00401774
0.00467329
0.00542435
0.00607668
0.00656526
0.00693256
0.00726186
0.00763238
0.00809774
0.00868193
0.00938193
0.0101708
0.0109961
0.0117711
0.0123601
0.0125571
0.0120659
0.0104973
0.00741808
0.00269223
0.00308046
0.00388466
0.00482666
0.00569413
0.0064068
0.00699742
0.00754736
0.00813294
0.00879827
0.00955536
0.0103915
0.0112738
0.0121482
0.0129306
0.0134907
0.0136314
0.0130676
0.0114216
0.00826929
0.00220217
0.00263905
0.00351257
0.00453916
0.00549616
0.00628929
0.006939
0.00751945
0.00810572
0.00874866
0.00946951
0.0102634
0.011103
0.0119376
0.0126847
0.0132147
0.0133301
0.0127455
0.0110827
0.00791714
0.00180746
0.0022612
0.00316115
0.00422037
0.00521292
0.00604104
0.00672267
0.00733119
0.00794188
0.00860565
0.009344
0.0101527
0.0110052
0.0118511
0.0126076
0.0131452
0.0132666
0.0126869
0.0110287
0.00786803
0.00151118
0.00197451
0.00289007
0.00396886
0.00498284
0.00583212
0.00653295
0.0071576
0.00778096
0.00845393
0.00919821
0.0100098
0.0108622
0.0117056
0.012458
0.0129908
0.0131075
0.0125236
0.0108619
0.00769884
0.00127358
0.00174116
0.00266343
0.00375055
0.00477354
0.00563138
0.00633924
0.00696912
0.00759604
0.00827127
0.00901691
0.00982927
0.0106823
0.0115261
0.0122791
0.0128123
0.0129296
0.0123462
0.0106852
0.00752285
0.00107535
0.00154495
0.00247052
0.00356172
0.00458913
0.0054514
0.00616347
0.00679704
0.00742701
0.00810474
0.00885244
0.00966658
0.0105213
0.0113669
0.0121217
0.012657
0.0127761
0.0121946
0.0105353
0.0073747
0.000912689
0.00138347
0.00231099
0.0034046
0.00443462
0.00529953
0.00601421
0.00665037
0.0072829
0.00796306
0.00871303
0.00952923
0.0103857
0.0112328
0.0119888
0.012525
0.012645
0.0120643
0.0104059
0.00724615
0.000785694
0.00125734
0.0021863
0.00328166
0.00431355
0.00518035
0.00589688
0.00653479
0.00716896
0.00785062
0.00860194
0.00941932
0.0102769
0.0111248
0.0118816
0.0124185
0.012539
0.0119588
0.0103008
0.00714136
0.00069584
0.00116803
0.00209791
0.00319438
0.00422747
0.00509545
0.00581312
0.00645213
0.00708732
0.00776994
0.00852214
0.00934033
0.0101986
0.0110472
0.0118046
0.012342
0.012463
0.0118832
0.0102256
0.00706656
0.000647368
0.0011197
0.00204978
0.00314657
0.00418009
0.00504863
0.00576691
0.00640652
0.00704229
0.00772546
0.00847814
0.00929678
0.0101555
0.0110045
0.0117622
0.0122999
0.0124213
0.0118419
0.0101847
0.00702621
)
;

boundaryField
{
    top
    {
        type            zeroGradient;
    }
    inlet
    {
        type            zeroGradient;
    }
    outlet
    {
        type            fixedValue;
        value           uniform 0;
    }
    plate
    {
        type            zeroGradient;
    }
    symmBound
    {
        type            zeroGradient;
    }
    frontAndBack
    {
        type            empty;
    }
}


// ************************************************************************* //
