/*--------------------------------*- C++ -*----------------------------------*\
| =========                 |                                                 |
| \\      /  F ield         | OpenFOAM: The Open Source CFD Toolbox           |
|  \\    /   O peration     | Version:  5.x                                   |
|   \\  /    A nd           | Web:      www.OpenFOAM.org                      |
|    \\/     M anipulation  |                                                 |
\*---------------------------------------------------------------------------*/
FoamFile
{
    version     2.0;
    format      ascii;
    class       surfaceScalarField;
    location    "0.7";
    object      phi;
}
// * * * * * * * * * * * * * * * * * * * * * * * * * * * * * * * * * * * * * //

dimensions      [0 3 -1 0 0 0 0];

internalField   nonuniform List<scalar> 
4850
(
7.34151e-08
6.88505e-09
-8.03002e-08
6.46276e-08
8.78753e-09
5.57474e-08
8.88023e-09
4.6922e-08
8.82537e-09
3.82916e-08
8.63038e-09
3.04807e-08
7.81089e-09
2.43886e-08
6.09211e-09
2.04219e-08
3.9667e-09
1.8122e-08
2.29989e-09
1.67201e-08
1.40196e-09
1.57497e-08
9.7034e-10
1.49778e-08
7.71942e-10
1.42851e-08
6.92736e-10
1.36272e-08
6.57875e-10
1.29997e-08
6.2753e-10
1.24079e-08
5.91752e-10
1.18603e-08
5.47585e-10
1.13554e-08
5.04919e-10
1.08927e-08
4.62736e-10
1.04635e-08
4.29201e-10
1.00673e-08
3.96116e-10
9.69444e-09
3.72908e-10
9.34516e-09
3.49273e-10
9.01277e-09
3.32393e-10
8.7024e-09
3.10374e-10
8.40355e-09
2.98846e-10
8.12477e-09
2.78777e-10
7.85394e-09
2.70837e-10
7.60187e-09
2.52065e-10
7.35238e-09
2.49493e-10
7.12235e-09
2.30031e-10
6.88991e-09
2.32435e-10
6.67777e-09
2.12146e-10
6.45735e-09
2.20418e-10
2.13004e-10
8.82198e-08
6.38047e-09
-8.77153e-08
8.71884e-08
9.81893e-09
8.50623e-08
1.10063e-08
8.22615e-08
1.16262e-08
7.8725e-08
1.21669e-08
7.4443e-08
1.20929e-08
6.96995e-08
1.08356e-08
6.50622e-08
8.60403e-09
6.09374e-08
6.42469e-09
5.72704e-08
5.06894e-09
5.39251e-08
4.31564e-09
5.08759e-08
3.82118e-09
4.81196e-08
3.44899e-09
4.56363e-08
3.14117e-09
4.33994e-08
2.86441e-09
4.13737e-08
2.61746e-09
3.95374e-08
2.3839e-09
3.78562e-08
2.18609e-09
3.63138e-08
2.0052e-09
3.48814e-08
1.86155e-09
3.35547e-08
1.72281e-09
3.23063e-08
1.62135e-09
3.11402e-08
1.51533e-09
3.00329e-08
1.43972e-09
2.89972e-08
1.34604e-09
2.80028e-08
1.29331e-09
2.70739e-08
1.20766e-09
2.61723e-08
1.17246e-09
2.53337e-08
1.09063e-09
2.45055e-08
1.07768e-09
2.37437e-08
9.91814e-10
2.29722e-08
1.00394e-09
2.2275e-08
9.09361e-10
2.15432e-08
9.52231e-10
8.85695e-10
9.60145e-08
5.95828e-09
-9.55923e-08
9.64546e-08
9.37881e-09
9.6374e-08
1.1087e-08
9.61188e-08
1.18814e-08
9.57093e-08
1.25763e-08
9.48594e-08
1.29429e-08
9.33703e-08
1.23246e-08
9.13675e-08
1.06068e-08
8.91845e-08
8.60773e-09
8.69603e-08
7.29311e-09
8.464e-08
6.63595e-09
8.22026e-08
6.25859e-09
7.97009e-08
5.95064e-09
7.71768e-08
5.66529e-09
7.46702e-08
5.37103e-09
7.21963e-08
5.09137e-09
6.97828e-08
4.79736e-09
6.74278e-08
4.54108e-09
6.51492e-08
4.28381e-09
6.29388e-08
4.07197e-09
6.08222e-08
3.83944e-09
5.87801e-08
3.66336e-09
5.68401e-08
3.4554e-09
5.49726e-08
3.30723e-09
5.32065e-08
3.11211e-09
5.14941e-08
3.00571e-09
4.98796e-08
2.82213e-09
4.82996e-08
2.75247e-09
4.68209e-08
2.5694e-09
4.53532e-08
2.54536e-09
4.39972e-08
2.34777e-09
4.26188e-08
2.3824e-09
4.13702e-08
2.15796e-09
4.00567e-08
2.26566e-09
2.07276e-09
1.04299e-07
5.81942e-09
-1.04161e-07
1.04869e-07
8.80922e-09
1.05176e-07
1.07799e-08
1.05411e-07
1.16469e-08
1.05775e-07
1.22117e-08
1.06094e-07
1.26241e-08
1.06083e-07
1.23359e-08
1.05629e-07
1.10606e-08
1.04898e-07
9.33858e-09
1.04071e-07
8.11996e-09
1.03137e-07
7.57016e-09
1.02035e-07
7.36033e-09
1.00782e-07
7.20446e-09
9.93914e-08
7.05551e-09
9.78948e-08
6.86764e-09
9.62926e-08
6.69358e-09
9.46091e-08
6.48084e-09
9.28361e-08
6.31405e-09
9.09952e-08
6.12475e-09
8.90708e-08
5.99636e-09
8.70988e-08
5.81145e-09
8.50619e-08
5.70027e-09
8.30154e-08
5.50183e-09
8.09427e-08
5.37997e-09
7.89063e-08
5.14853e-09
7.68572e-08
5.05475e-09
7.48664e-08
4.81298e-09
7.28567e-08
4.76219e-09
7.09313e-08
4.4948e-09
6.89802e-08
4.49642e-09
6.71472e-08
4.18075e-09
6.52588e-08
4.27085e-09
6.35204e-08
3.8964e-09
6.16821e-08
4.10392e-09
3.74545e-09
1.13393e-07
5.82701e-09
-1.134e-07
1.13896e-07
8.30573e-09
1.14346e-07
1.03307e-08
1.14664e-07
1.1328e-08
1.15093e-07
1.17828e-08
1.15604e-07
1.21135e-08
1.15975e-07
1.19651e-08
1.1603e-07
1.10054e-08
1.15841e-07
9.5277e-09
1.15592e-07
8.36862e-09
1.15325e-07
7.83741e-09
1.14974e-07
7.71145e-09
1.1453e-07
7.64812e-09
1.1399e-07
7.59574e-09
1.13376e-07
7.48109e-09
1.12676e-07
7.39415e-09
1.11902e-07
7.25481e-09
1.1103e-07
7.18606e-09
1.10074e-07
7.08101e-09
1.08997e-07
7.07335e-09
1.0782e-07
6.98803e-09
1.06501e-07
7.01888e-09
1.05084e-07
6.91895e-09
1.0354e-07
6.92459e-09
1.01942e-07
6.74611e-09
1.00244e-07
6.75311e-09
9.85236e-08
6.5332e-09
9.66904e-08
6.59538e-09
9.48528e-08
6.33235e-09
9.29046e-08
6.44463e-09
9.10092e-08
6.07618e-09
8.89981e-08
6.28193e-09
8.70782e-08
5.81631e-09
8.50182e-08
6.16387e-09
5.68959e-09
1.23249e-07
5.90815e-09
-1.2333e-07
1.23651e-07
7.90422e-09
1.24179e-07
9.80201e-09
1.24572e-07
1.09348e-08
1.24979e-07
1.13766e-08
1.25469e-07
1.16227e-08
1.25904e-07
1.15307e-08
1.26095e-07
1.08139e-08
1.26053e-07
9.56973e-09
1.25951e-07
8.47083e-09
1.25877e-07
7.91147e-09
1.25784e-07
7.80458e-09
1.25652e-07
7.78039e-09
1.25468e-07
7.77916e-09
1.25261e-07
7.68824e-09
1.25018e-07
7.63702e-09
1.24754e-07
7.5189e-09
1.24441e-07
7.49904e-09
1.24093e-07
7.42922e-09
1.2367e-07
7.49643e-09
1.23185e-07
7.47278e-09
1.22587e-07
7.61735e-09
1.21897e-07
7.60809e-09
1.21074e-07
7.74782e-09
1.20176e-07
7.64458e-09
1.19161e-07
7.76771e-09
1.18097e-07
7.5968e-09
1.16899e-07
7.79358e-09
1.15627e-07
7.60489e-09
1.1419e-07
7.88111e-09
1.12717e-07
7.54971e-09
1.111e-07
7.89836e-09
1.09461e-07
7.45544e-09
1.07673e-07
7.95198e-09
7.50605e-09
1.33844e-07
6.01905e-09
-1.33955e-07
1.34168e-07
7.58105e-09
1.3472e-07
9.24986e-09
1.35192e-07
1.04626e-08
1.35598e-07
1.09707e-08
1.3605e-07
1.11708e-08
1.36485e-07
1.10957e-08
1.3673e-07
1.05682e-08
1.3675e-07
9.54994e-09
1.36681e-07
8.53991e-09
1.36644e-07
7.94818e-09
1.36622e-07
7.82665e-09
1.36586e-07
7.81686e-09
1.36516e-07
7.84942e-09
1.36438e-07
7.76574e-09
1.36352e-07
7.72342e-09
1.36272e-07
7.59836e-09
1.3618e-07
7.59087e-09
1.36088e-07
7.52216e-09
1.35967e-07
7.61742e-09
1.35826e-07
7.61342e-09
1.35628e-07
7.81509e-09
1.35381e-07
7.85491e-09
1.3505e-07
8.0791e-09
1.34665e-07
8.03004e-09
1.34206e-07
8.22626e-09
1.33712e-07
8.09108e-09
1.33142e-07
8.3636e-09
1.32491e-07
8.25563e-09
1.31703e-07
8.66862e-09
1.30823e-07
8.42982e-09
1.29849e-07
8.87245e-09
1.28769e-07
8.53557e-09
1.27591e-07
9.13015e-09
8.84333e-09
1.45232e-07
6.11175e-09
-1.45325e-07
1.4549e-07
7.32376e-09
1.46026e-07
8.71359e-09
1.46553e-07
9.93581e-09
1.46986e-07
1.05372e-08
1.47413e-07
1.07435e-08
1.47834e-07
1.06755e-08
1.48112e-07
1.029e-08
1.48185e-07
9.47652e-09
1.48141e-07
8.58428e-09
1.48111e-07
7.97757e-09
1.48115e-07
7.82306e-09
1.48118e-07
7.81423e-09
1.48094e-07
7.87327e-09
1.48057e-07
7.80269e-09
1.48018e-07
7.76245e-09
1.47988e-07
7.62779e-09
1.47963e-07
7.61582e-09
1.47944e-07
7.54128e-09
1.47921e-07
7.64041e-09
1.47894e-07
7.64082e-09
1.47849e-07
7.8605e-09
1.4778e-07
7.92311e-09
1.47677e-07
8.18197e-09
1.4754e-07
8.16743e-09
1.47379e-07
8.38701e-09
1.47194e-07
8.27668e-09
1.46999e-07
8.55842e-09
1.4675e-07
8.50481e-09
1.4643e-07
8.9881e-09
1.46006e-07
8.85427e-09
1.45564e-07
9.31383e-09
1.45004e-07
9.09584e-09
1.44417e-07
9.71683e-09
9.62197e-09
1.57519e-07
6.14559e-09
-1.57553e-07
1.57715e-07
7.12754e-09
1.58181e-07
8.24781e-09
1.58732e-07
9.38407e-09
1.59204e-07
1.00661e-08
1.59625e-07
1.03219e-08
1.60026e-07
1.02748e-08
1.60324e-07
9.99212e-09
1.60446e-07
9.35479e-09
1.60434e-07
8.59606e-09
1.60412e-07
7.99918e-09
1.60429e-07
7.80662e-09
1.60456e-07
7.78656e-09
1.60467e-07
7.86286e-09
1.60453e-07
7.81647e-09
1.60435e-07
7.78032e-09
1.6042e-07
7.64322e-09
1.60415e-07
7.62016e-09
1.60414e-07
7.54295e-09
1.60417e-07
7.63724e-09
1.60416e-07
7.64132e-09
1.60416e-07
7.8606e-09
1.60403e-07
7.93628e-09
1.60385e-07
8.19998e-09
1.60341e-07
8.21148e-09
1.60302e-07
8.42572e-09
1.6024e-07
8.33881e-09
1.60198e-07
8.60009e-09
1.60128e-07
8.57532e-09
1.6004e-07
9.07564e-09
1.59862e-07
9.03252e-09
1.59715e-07
9.46094e-09
1.59478e-07
9.33274e-09
1.59261e-07
9.93356e-09
9.99043e-09
1.70762e-07
6.06901e-09
-1.70685e-07
1.70947e-07
6.9423e-09
1.71331e-07
7.86372e-09
1.71863e-07
8.85226e-09
1.72366e-07
9.56333e-09
1.72797e-07
9.89094e-09
1.73182e-07
9.88935e-09
1.73489e-07
9.68578e-09
1.73648e-07
9.19534e-09
1.73672e-07
8.57206e-09
1.73662e-07
8.00884e-09
1.73683e-07
7.78552e-09
1.73726e-07
7.74386e-09
1.73764e-07
7.82513e-09
1.73771e-07
7.80936e-09
1.73767e-07
7.78387e-09
1.73759e-07
7.65205e-09
1.73761e-07
7.61729e-09
1.73766e-07
7.53872e-09
1.73776e-07
7.62679e-09
1.73783e-07
7.63491e-09
1.73796e-07
7.84761e-09
1.738e-07
7.93184e-09
1.73812e-07
8.18765e-09
1.73804e-07
8.21992e-09
1.73809e-07
8.42085e-09
1.73791e-07
8.35642e-09
1.73794e-07
8.59741e-09
1.73781e-07
8.58773e-09
1.73779e-07
9.07799e-09
1.73708e-07
9.1031e-09
1.73681e-07
9.48831e-09
1.73593e-07
9.42098e-09
1.73541e-07
9.98529e-09
1.01422e-08
1.85046e-07
5.92407e-09
-1.84901e-07
1.85251e-07
6.73693e-09
1.85585e-07
7.52972e-09
1.86072e-07
8.36525e-09
1.86583e-07
9.05321e-09
1.87031e-07
9.44258e-09
1.87412e-07
9.50818e-09
1.87721e-07
9.37661e-09
1.87908e-07
9.00905e-09
1.87968e-07
8.51138e-09
1.87974e-07
8.00263e-09
1.87997e-07
7.76258e-09
1.88047e-07
7.69413e-09
1.88103e-07
7.7688e-09
1.88132e-07
7.78112e-09
1.8814e-07
7.77512e-09
1.88137e-07
7.65509e-09
1.88142e-07
7.61221e-09
1.8815e-07
7.53082e-09
1.88164e-07
7.61335e-09
1.88174e-07
7.62435e-09
1.88193e-07
7.82935e-09
1.88206e-07
7.91893e-09
1.8823e-07
8.16333e-09
1.88239e-07
8.21119e-09
1.88259e-07
8.4003e-09
1.88259e-07
8.35611e-09
1.88273e-07
8.58431e-09
1.88274e-07
8.58662e-09
1.88297e-07
9.05504e-09
1.8827e-07
9.12923e-09
1.88284e-07
9.4752e-09
1.88249e-07
9.45582e-09
1.88252e-07
9.9818e-09
1.02048e-08
2.00484e-07
5.74639e-09
-2.00306e-07
2.00716e-07
6.50476e-09
2.01032e-07
7.21398e-09
2.01471e-07
7.92612e-09
2.01966e-07
8.55767e-09
2.02426e-07
8.98332e-09
2.02813e-07
9.12105e-09
2.03126e-07
9.06354e-09
2.03333e-07
8.80149e-09
2.03427e-07
8.41755e-09
2.03454e-07
7.97623e-09
2.03481e-07
7.73516e-09
2.03532e-07
7.64265e-09
2.036e-07
7.70106e-09
2.03649e-07
7.73262e-09
2.03671e-07
7.75247e-09
2.03675e-07
7.65131e-09
2.03682e-07
7.60585e-09
2.03692e-07
7.52083e-09
2.03708e-07
7.59715e-09
2.03722e-07
7.61003e-09
2.03745e-07
7.80682e-09
2.03763e-07
7.90057e-09
2.03793e-07
8.1333e-09
2.03811e-07
8.19322e-09
2.03838e-07
8.37293e-09
2.03846e-07
8.34798e-09
2.03864e-07
8.56672e-09
2.03867e-07
8.58407e-09
2.03897e-07
9.02467e-09
2.0389e-07
9.13585e-09
2.03917e-07
9.44841e-09
2.03898e-07
9.47451e-09
2.03916e-07
9.96406e-09
1.02353e-08
2.17188e-07
5.55357e-09
-2.16996e-07
2.17442e-07
6.25151e-09
2.17755e-07
6.90029e-09
2.18156e-07
7.52528e-09
2.18625e-07
8.08857e-09
2.19083e-07
8.52605e-09
2.19479e-07
8.72504e-09
2.198e-07
8.74226e-09
2.20028e-07
8.57373e-09
2.20151e-07
8.29418e-09
2.202e-07
7.92727e-09
2.20238e-07
7.69753e-09
2.2029e-07
7.59043e-09
2.20364e-07
7.62702e-09
2.2043e-07
7.66659e-09
2.2047e-07
7.71271e-09
2.20482e-07
7.6385e-09
2.20492e-07
7.59623e-09
2.20503e-07
7.50979e-09
2.20523e-07
7.57773e-09
2.2054e-07
7.5923e-09
2.20568e-07
7.77937e-09
2.2059e-07
7.87789e-09
2.20625e-07
8.09914e-09
2.20648e-07
8.17016e-09
2.20679e-07
8.34116e-09
2.20691e-07
8.33641e-09
2.20713e-07
8.54475e-09
2.20715e-07
8.58172e-09
2.20749e-07
8.9912e-09
2.20752e-07
9.13292e-09
2.20784e-07
9.41653e-09
2.20771e-07
9.48757e-09
2.20791e-07
9.9439e-09
1.02535e-08
2.35271e-07
5.35158e-09
-2.35069e-07
2.35535e-07
5.98754e-09
2.3585e-07
6.58483e-09
2.36227e-07
7.14864e-09
2.36665e-07
7.65026e-09
2.3711e-07
8.08061e-09
2.37512e-07
8.32345e-09
2.37845e-07
8.40982e-09
2.38093e-07
8.32539e-09
2.38245e-07
8.14206e-09
2.38318e-07
7.85459e-09
2.38371e-07
7.64463e-09
2.38427e-07
7.53401e-09
2.38504e-07
7.55022e-09
2.38583e-07
7.58745e-09
2.38642e-07
7.65367e-09
2.38667e-07
7.61338e-09
2.38683e-07
7.5802e-09
2.38696e-07
7.4973e-09
2.38718e-07
7.55516e-09
2.38739e-07
7.57138e-09
2.38772e-07
7.74626e-09
2.38799e-07
7.85069e-09
2.38838e-07
8.06045e-09
2.38865e-07
8.14335e-09
2.38901e-07
8.30548e-09
2.38914e-07
8.32261e-09
2.38941e-07
8.51863e-09
2.38944e-07
8.57837e-09
2.38979e-07
8.95557e-09
2.38988e-07
9.12404e-09
2.39022e-07
9.38284e-09
2.39013e-07
9.49648e-09
2.39033e-07
9.92422e-09
1.02649e-08
2.54844e-07
5.14216e-09
-2.54635e-07
2.55111e-07
5.72016e-09
2.55427e-07
6.26876e-09
2.5579e-07
6.78593e-09
2.562e-07
7.24058e-09
2.56628e-07
7.65248e-09
2.57029e-07
7.92281e-09
2.57371e-07
8.06703e-09
2.57639e-07
8.05768e-09
2.57821e-07
7.96046e-09
2.57919e-07
7.75594e-09
2.5799e-07
7.57444e-09
2.58055e-07
7.4686e-09
2.58134e-07
7.47134e-09
2.58222e-07
7.49936e-09
2.583e-07
7.57589e-09
2.58341e-07
7.57174e-09
2.58367e-07
7.55463e-09
2.58383e-07
7.48121e-09
2.58409e-07
7.52953e-09
2.58433e-07
7.54753e-09
2.58471e-07
7.70737e-09
2.58504e-07
7.81819e-09
2.58548e-07
8.01645e-09
2.58579e-07
8.11242e-09
2.58618e-07
8.26591e-09
2.58635e-07
8.30606e-09
2.58664e-07
8.48912e-09
2.5867e-07
8.57242e-09
2.58708e-07
8.91812e-09
2.58722e-07
9.10981e-09
2.58756e-07
9.34876e-09
2.58752e-07
9.50051e-09
2.58771e-07
9.90542e-09
1.02711e-08
2.7603e-07
4.92599e-09
-2.75814e-07
2.76299e-07
5.45169e-09
2.76613e-07
5.95476e-09
2.76966e-07
6.43315e-09
2.77352e-07
6.85403e-09
2.77761e-07
7.24353e-09
2.78155e-07
7.52908e-09
2.78505e-07
7.71711e-09
2.78789e-07
7.77354e-09
2.78999e-07
7.74991e-09
2.79128e-07
7.62757e-09
2.79216e-07
7.48622e-09
2.79294e-07
7.39022e-09
2.79378e-07
7.38771e-09
2.79472e-07
7.40582e-09
2.79565e-07
7.48248e-09
2.79626e-07
7.51077e-09
2.79664e-07
7.51628e-09
2.79687e-07
7.45832e-09
2.79717e-07
7.49982e-09
2.79744e-07
7.52062e-09
2.79788e-07
7.66312e-09
2.79827e-07
7.77957e-09
2.79876e-07
7.96669e-09
2.79913e-07
8.07628e-09
2.79956e-07
8.22242e-09
2.79977e-07
8.28553e-09
2.80009e-07
8.45687e-09
2.80019e-07
8.56242e-09
2.80058e-07
8.87911e-09
2.80078e-07
9.08973e-09
2.80112e-07
9.31478e-09
2.80113e-07
9.49894e-09
2.80132e-07
9.88706e-09
1.02722e-08
2.98965e-07
4.70428e-09
-2.98743e-07
2.99233e-07
5.18384e-09
2.99541e-07
5.64612e-09
2.99885e-07
6.0897e-09
3.00253e-07
6.48605e-09
3.00644e-07
6.85273e-09
3.01027e-07
7.1456e-09
3.0138e-07
7.36442e-09
3.01677e-07
7.47628e-09
3.01913e-07
7.51374e-09
3.02074e-07
7.4664e-09
3.02183e-07
7.37763e-09
3.02277e-07
7.29652e-09
3.0237e-07
7.29482e-09
3.02466e-07
7.30921e-09
3.02571e-07
7.3772e-09
3.02652e-07
7.43036e-09
3.02706e-07
7.46169e-09
3.0274e-07
7.42501e-09
3.02776e-07
7.46346e-09
3.02807e-07
7.4897e-09
3.02856e-07
7.61437e-09
3.02901e-07
7.73423e-09
3.02957e-07
7.91112e-09
3.02999e-07
8.03383e-09
3.03047e-07
8.17495e-09
3.03072e-07
8.25967e-09
3.03107e-07
8.42198e-09
3.03123e-07
8.54702e-09
3.03163e-07
8.8387e-09
3.03189e-07
9.06347e-09
3.03223e-07
9.28081e-09
3.03231e-07
9.49134e-09
3.0325e-07
9.86838e-09
1.02681e-08
3.23792e-07
4.48067e-09
-3.23568e-07
3.24058e-07
4.91826e-09
3.24358e-07
5.34534e-09
3.24692e-07
5.75638e-09
3.25045e-07
6.13252e-09
3.25419e-07
6.47861e-09
3.25792e-07
6.77331e-09
3.26143e-07
7.01316e-09
3.26451e-07
7.16867e-09
3.26707e-07
7.2572e-09
3.26901e-07
7.273e-09
3.27035e-07
7.24292e-09
3.27145e-07
7.18679e-09
3.27251e-07
7.18872e-09
3.27352e-07
7.20781e-09
3.27466e-07
7.26355e-09
3.27564e-07
7.3322e-09
3.27638e-07
7.38844e-09
3.27685e-07
7.37793e-09
3.2773e-07
7.4178e-09
3.27767e-07
7.4531e-09
3.27819e-07
7.56196e-09
3.27872e-07
7.68187e-09
3.27933e-07
7.84966e-09
3.27983e-07
7.98381e-09
3.28035e-07
8.12295e-09
3.28068e-07
8.22713e-09
3.28105e-07
8.38423e-09
3.28127e-07
8.52534e-09
3.28169e-07
8.79684e-09
3.28202e-07
9.03083e-09
3.28236e-07
9.24623e-09
3.2825e-07
9.47756e-09
3.2827e-07
9.8483e-09
1.02588e-08
3.50667e-07
4.25759e-09
-3.50444e-07
3.50929e-07
4.65629e-09
3.51222e-07
5.05214e-09
3.51545e-07
5.43317e-09
3.51888e-07
5.78984e-09
3.52247e-07
6.11941e-09
3.52609e-07
6.41136e-09
3.52957e-07
6.6656e-09
3.53272e-07
6.85341e-09
3.53544e-07
6.98498e-09
3.53765e-07
7.05231e-09
3.5393e-07
7.0775e-09
3.54057e-07
7.05951e-09
3.54178e-07
7.06775e-09
3.54289e-07
7.0974e-09
3.54408e-07
7.14443e-09
3.54521e-07
7.21876e-09
3.54613e-07
7.29661e-09
3.54678e-07
7.31337e-09
3.54735e-07
7.36004e-09
3.54781e-07
7.40737e-09
3.54838e-07
7.50517e-09
3.54897e-07
7.62247e-09
3.54964e-07
7.78263e-09
3.55022e-07
7.92589e-09
3.55079e-07
8.06594e-09
3.5512e-07
8.18688e-09
3.55161e-07
8.34265e-09
3.5519e-07
8.49633e-09
3.55234e-07
8.75292e-09
3.55273e-07
8.99226e-09
3.55309e-07
9.21019e-09
3.55329e-07
9.45776e-09
3.55352e-07
9.82527e-09
1.02442e-08
3.79765e-07
4.03519e-09
-3.79543e-07
3.80021e-07
4.40064e-09
3.80307e-07
4.76558e-09
3.8062e-07
5.12007e-09
3.80952e-07
5.45782e-09
3.81298e-07
5.77386e-09
3.81649e-07
6.06017e-09
3.81992e-07
6.3231e-09
3.82311e-07
6.53436e-09
3.82595e-07
6.70028e-09
3.82838e-07
6.81005e-09
3.83035e-07
6.88055e-09
3.83184e-07
6.91001e-09
3.83322e-07
6.93002e-09
3.83447e-07
6.97193e-09
3.83572e-07
7.01973e-09
3.83698e-07
7.09292e-09
3.83808e-07
7.18662e-09
3.83891e-07
7.23012e-09
3.83963e-07
7.2879e-09
3.84021e-07
7.34957e-09
3.84084e-07
7.44264e-09
3.8415e-07
7.55653e-09
3.84222e-07
7.70985e-09
3.84289e-07
7.85929e-09
3.84353e-07
8.00232e-09
3.84401e-07
8.13796e-09
3.84448e-07
8.2961e-09
3.84484e-07
8.46014e-09
3.84531e-07
8.7061e-09
3.84575e-07
8.94806e-09
3.84614e-07
9.17111e-09
3.8464e-07
9.43183e-09
3.84667e-07
9.79878e-09
1.02235e-08
4.11268e-07
3.81644e-09
-4.1105e-07
4.11519e-07
4.14956e-09
4.11799e-07
4.48588e-09
4.12102e-07
4.81705e-09
4.12425e-07
5.13534e-09
4.12758e-07
5.44003e-09
4.13099e-07
5.71969e-09
4.13437e-07
5.98539e-09
4.13757e-07
6.21387e-09
4.14053e-07
6.40481e-09
4.14312e-07
6.55059e-09
4.14536e-07
6.65699e-09
4.14714e-07
6.73179e-09
4.14867e-07
6.77644e-09
4.1501e-07
6.82944e-09
4.15143e-07
6.88671e-09
4.15278e-07
6.9577e-09
4.15405e-07
7.0602e-09
4.15507e-07
7.12782e-09
4.15597e-07
7.198e-09
4.1567e-07
7.27616e-09
4.15742e-07
7.37104e-09
4.15815e-07
7.48296e-09
4.15894e-07
7.63111e-09
4.15969e-07
7.78451e-09
4.16039e-07
7.93191e-09
4.16097e-07
8.07999e-09
4.1615e-07
8.24294e-09
4.16195e-07
8.41539e-09
4.16246e-07
8.65483e-09
4.16296e-07
8.8986e-09
4.16339e-07
9.12837e-09
4.16371e-07
9.39945e-09
4.16402e-07
9.76737e-09
1.01963e-08
4.45388e-07
3.60283e-09
-4.45174e-07
4.45634e-07
3.90361e-09
4.45905e-07
4.2151e-09
4.46197e-07
4.52435e-09
4.46509e-07
4.82397e-09
4.46832e-07
5.11695e-09
4.47161e-07
5.39013e-09
4.47493e-07
5.65323e-09
4.47814e-07
5.8933e-09
4.48117e-07
6.10162e-09
4.48391e-07
6.27692e-09
4.48635e-07
6.41306e-09
4.48842e-07
6.52466e-09
4.49017e-07
6.60156e-09
4.49177e-07
6.66914e-09
4.49324e-07
6.74011e-09
4.49469e-07
6.81226e-09
4.49611e-07
6.91811e-09
4.49732e-07
7.00744e-09
4.49839e-07
7.09008e-09
4.49931e-07
7.18461e-09
4.50013e-07
7.28858e-09
4.50096e-07
7.40074e-09
4.50181e-07
7.54578e-09
4.50264e-07
7.70124e-09
4.50343e-07
7.85338e-09
4.50411e-07
8.01161e-09
4.50472e-07
8.18168e-09
4.50526e-07
8.36175e-09
4.50582e-07
8.59857e-09
4.50637e-07
8.84354e-09
4.50685e-07
9.08074e-09
4.50724e-07
9.36042e-09
4.50762e-07
9.72899e-09
1.01631e-08
4.82347e-07
3.39131e-09
-4.82136e-07
4.82584e-07
3.66723e-09
4.82846e-07
3.95344e-09
4.83129e-07
4.2409e-09
4.83429e-07
4.52353e-09
4.83744e-07
4.80196e-09
4.84066e-07
5.06875e-09
4.84393e-07
5.32619e-09
4.84713e-07
5.57264e-09
4.85022e-07
5.79327e-09
4.85308e-07
5.9904e-09
4.85569e-07
6.15219e-09
4.85803e-07
6.29117e-09
4.86002e-07
6.40254e-09
4.86181e-07
6.48981e-09
4.86345e-07
6.57587e-09
4.86502e-07
6.6558e-09
4.86657e-07
6.76314e-09
4.86794e-07
6.86993e-09
4.8692e-07
6.96438e-09
4.87031e-07
7.07384e-09
4.87128e-07
7.19089e-09
4.87222e-07
7.30697e-09
4.87316e-07
7.45166e-09
4.87408e-07
7.60983e-09
4.87495e-07
7.76641e-09
4.87573e-07
7.93334e-09
4.87643e-07
8.11115e-09
4.87707e-07
8.29859e-09
4.8777e-07
8.53508e-09
4.87831e-07
8.78268e-09
4.87885e-07
9.02717e-09
4.87931e-07
9.31402e-09
4.87976e-07
9.68437e-09
1.01216e-08
5.22359e-07
3.18294e-09
-5.22151e-07
5.22589e-07
3.43786e-09
5.22843e-07
3.69969e-09
5.23118e-07
3.96553e-09
5.2341e-07
4.23152e-09
5.23717e-07
4.49474e-09
5.24031e-07
4.75444e-09
5.24352e-07
5.00572e-09
5.24671e-07
5.25351e-09
5.24982e-07
5.48222e-09
5.25279e-07
5.69321e-09
5.25555e-07
5.87654e-09
5.2581e-07
6.03625e-09
5.26035e-07
6.17695e-09
5.26237e-07
6.28857e-09
5.26421e-07
6.39203e-09
5.26592e-07
6.48397e-09
5.26761e-07
6.59417e-09
5.26916e-07
6.71502e-09
5.2706e-07
6.821e-09
5.2719e-07
6.94308e-09
5.27305e-07
7.07628e-09
5.27412e-07
7.19996e-09
5.27517e-07
7.3466e-09
5.27618e-07
7.50855e-09
5.27716e-07
7.66919e-09
5.27805e-07
7.84355e-09
5.27887e-07
8.02947e-09
5.2796e-07
8.22539e-09
5.28032e-07
8.46362e-09
5.281e-07
8.7143e-09
5.28162e-07
8.9655e-09
5.28217e-07
9.25917e-09
5.28269e-07
9.63212e-09
1.00706e-08
5.65669e-07
2.98107e-09
-5.65468e-07
5.65896e-07
3.21148e-09
5.66143e-07
3.453e-09
5.6641e-07
3.69797e-09
5.66694e-07
3.94778e-09
5.66992e-07
4.19683e-09
5.67299e-07
4.44716e-09
5.67613e-07
4.69181e-09
5.67931e-07
4.9357e-09
5.68245e-07
5.16846e-09
5.68551e-07
5.38706e-09
5.6884e-07
5.5874e-09
5.69112e-07
5.76373e-09
5.69362e-07
5.92739e-09
5.69587e-07
6.0632e-09
5.69793e-07
6.18676e-09
5.69982e-07
6.29472e-09
5.70166e-07
6.41017e-09
5.70338e-07
6.54242e-09
5.70498e-07
6.66108e-09
5.70649e-07
6.79259e-09
5.70783e-07
6.94188e-09
5.70907e-07
7.07621e-09
5.71026e-07
7.22806e-09
5.71139e-07
7.39536e-09
5.71246e-07
7.5615e-09
5.71348e-07
7.74207e-09
5.71441e-07
7.93641e-09
5.71527e-07
8.13979e-09
5.71608e-07
8.38173e-09
5.71686e-07
8.63639e-09
5.71756e-07
8.89545e-09
5.7182e-07
9.19567e-09
5.71884e-07
9.56826e-09
1.00106e-08
6.12556e-07
2.78314e-09
-6.12359e-07
6.12777e-07
2.9909e-09
6.13017e-07
3.21269e-09
6.13277e-07
3.43882e-09
6.13552e-07
3.67199e-09
6.13842e-07
3.90725e-09
6.14144e-07
4.14537e-09
6.14454e-07
4.38191e-09
6.14771e-07
4.61865e-09
6.15087e-07
4.8519e-09
6.154e-07
5.07432e-09
6.15701e-07
5.28637e-09
6.15988e-07
5.47675e-09
6.16258e-07
5.65734e-09
6.16506e-07
5.81489e-09
6.16735e-07
5.95776e-09
6.16945e-07
6.08516e-09
6.17146e-07
6.209e-09
6.17337e-07
6.35167e-09
6.17514e-07
6.48379e-09
6.17683e-07
6.62321e-09
6.17839e-07
6.78617e-09
6.17981e-07
6.93468e-09
6.18115e-07
7.09414e-09
6.18241e-07
7.26902e-09
6.18361e-07
7.44144e-09
6.18475e-07
7.62808e-09
6.18582e-07
7.82961e-09
6.1868e-07
8.0415e-09
6.18774e-07
8.28822e-09
6.18861e-07
8.5486e-09
6.18943e-07
8.81385e-09
6.19017e-07
9.12139e-09
6.19091e-07
9.4947e-09
9.93736e-09
6.63308e-07
2.58695e-09
-6.63112e-07
6.63524e-07
2.77483e-09
6.6376e-07
2.97732e-09
6.64013e-07
3.18574e-09
6.64283e-07
3.40204e-09
6.64567e-07
3.62274e-09
6.64865e-07
3.84735e-09
6.65172e-07
4.07467e-09
6.65488e-07
4.30333e-09
6.65806e-07
4.53381e-09
6.66123e-07
4.7573e-09
6.66434e-07
4.97538e-09
6.66733e-07
5.17728e-09
6.67022e-07
5.3691e-09
6.67291e-07
5.54537e-09
6.67545e-07
5.70427e-09
6.67777e-07
5.85269e-09
6.67997e-07
5.98867e-09
6.68208e-07
6.14107e-09
6.68404e-07
6.28804e-09
6.68591e-07
6.43624e-09
6.68768e-07
6.6093e-09
6.68928e-07
6.77443e-09
6.6908e-07
6.94232e-09
6.69222e-07
7.12689e-09
6.69357e-07
7.30659e-09
6.69483e-07
7.50119e-09
6.69604e-07
7.70867e-09
6.69716e-07
7.92998e-09
6.69823e-07
8.18069e-09
6.69923e-07
8.44919e-09
6.70018e-07
8.71914e-09
6.70105e-07
9.03419e-09
6.70188e-07
9.41173e-09
9.84844e-09
7.18241e-07
2.3903e-09
-7.18044e-07
7.18455e-07
2.56012e-09
7.18688e-07
2.74527e-09
7.18936e-07
2.93744e-09
7.19202e-07
3.13618e-09
7.19482e-07
3.34225e-09
7.19777e-07
3.55286e-09
7.20081e-07
3.77035e-09
7.20395e-07
3.98963e-09
7.20714e-07
4.21457e-09
7.21036e-07
4.43561e-09
7.21356e-07
4.65507e-09
7.21669e-07
4.86454e-09
7.21973e-07
5.06432e-09
7.22263e-07
5.25575e-09
7.22538e-07
5.42911e-09
7.22795e-07
5.59639e-09
7.23035e-07
5.74818e-09
7.23267e-07
5.90899e-09
7.23482e-07
6.07338e-09
7.23688e-07
6.23038e-09
7.23884e-07
6.41258e-09
7.24066e-07
6.59283e-09
7.24236e-07
6.77207e-09
7.24397e-07
6.96571e-09
7.24547e-07
7.15717e-09
7.2469e-07
7.35827e-09
7.24824e-07
7.5742e-09
7.24953e-07
7.80113e-09
7.25073e-07
8.06041e-09
7.25188e-07
8.33422e-09
7.25294e-07
8.61351e-09
7.25398e-07
8.92979e-09
7.25495e-07
9.31503e-09
9.7469e-09
7.77698e-07
2.18895e-09
-7.77497e-07
7.77911e-07
2.34776e-09
7.78139e-07
2.51637e-09
7.78385e-07
2.69216e-09
7.78648e-07
2.87253e-09
7.78927e-07
3.06366e-09
7.7922e-07
3.26006e-09
7.79523e-07
3.46689e-09
7.79837e-07
3.67547e-09
7.80159e-07
3.89245e-09
7.80486e-07
4.10894e-09
7.80814e-07
4.32728e-09
7.81137e-07
4.54111e-09
7.81455e-07
4.74689e-09
7.81762e-07
4.94819e-09
7.82057e-07
5.13422e-09
7.82338e-07
5.31516e-09
7.82601e-07
5.48587e-09
7.82855e-07
5.65475e-09
7.83091e-07
5.8375e-09
7.83317e-07
6.00456e-09
7.83533e-07
6.19658e-09
7.83736e-07
6.38966e-09
7.83925e-07
6.58344e-09
7.84106e-07
6.78466e-09
7.84272e-07
6.99079e-09
7.84434e-07
7.19643e-09
7.84584e-07
7.42427e-09
7.8473e-07
7.65455e-09
7.84864e-07
7.92647e-09
7.84997e-07
8.20124e-09
7.85115e-07
8.49601e-09
7.85233e-07
8.81139e-09
7.85354e-07
9.19375e-09
9.63661e-09
8.42047e-07
2.00126e-09
-8.41859e-07
8.42242e-07
2.15224e-09
8.42464e-07
2.29484e-09
8.42709e-07
2.44648e-09
8.42976e-07
2.60545e-09
8.43262e-07
2.77781e-09
8.43564e-07
2.95821e-09
8.43879e-07
3.15205e-09
8.44202e-07
3.35273e-09
8.4453e-07
3.56379e-09
8.44861e-07
3.77877e-09
8.45191e-07
3.99647e-09
8.45519e-07
4.21338e-09
8.45844e-07
4.42173e-09
8.46165e-07
4.62754e-09
8.46478e-07
4.82157e-09
8.4678e-07
5.01286e-09
8.47067e-07
5.19884e-09
8.47342e-07
5.37973e-09
8.47602e-07
5.57732e-09
8.47848e-07
5.75888e-09
8.48085e-07
5.9595e-09
8.48308e-07
6.16634e-09
8.48519e-07
6.37261e-09
8.48719e-07
6.58475e-09
8.48907e-07
6.80265e-09
8.49084e-07
7.01933e-09
8.49253e-07
7.25517e-09
8.49415e-07
7.49279e-09
8.4957e-07
7.77175e-09
8.49716e-07
8.05469e-09
8.49857e-07
8.35546e-09
8.49994e-07
8.67449e-09
8.50114e-07
9.0731e-09
9.48374e-09
3.27732e-06
1.29635e-09
-3.27662e-06
3.27809e-06
1.37993e-09
3.2789e-06
1.48474e-09
3.27975e-06
1.60062e-09
3.28063e-06
1.72717e-09
3.28154e-06
1.86488e-09
3.28249e-06
2.01295e-09
3.28347e-06
2.17103e-09
3.28448e-06
2.3383e-09
3.28553e-06
2.51174e-09
3.28662e-06
2.69127e-09
3.28774e-06
2.87248e-09
3.2889e-06
3.0602e-09
3.29007e-06
3.25064e-09
3.29125e-06
3.45108e-09
3.29241e-06
3.65582e-09
3.29355e-06
3.87004e-09
3.29466e-06
4.09182e-09
3.29571e-06
4.33531e-09
3.29671e-06
4.57361e-09
3.29766e-06
4.80922e-09
3.29857e-06
5.04816e-09
3.29944e-06
5.29423e-09
3.30028e-06
5.53627e-09
3.30108e-06
5.78498e-09
3.30185e-06
6.02805e-09
3.30259e-06
6.28097e-09
3.30331e-06
6.53942e-09
3.30398e-06
6.81706e-09
3.30464e-06
7.1186e-09
3.30525e-06
7.43732e-09
3.30586e-06
7.75153e-09
3.30643e-06
8.10199e-09
3.30702e-06
8.48278e-09
8.84852e-09
3.54082e-06
1.08137e-10
-3.53964e-06
3.54208e-06
1.26877e-10
3.54333e-06
2.3097e-10
3.54455e-06
3.80818e-10
3.54572e-06
5.58488e-10
3.54684e-06
7.48558e-10
3.54791e-06
9.38474e-10
3.54896e-06
1.12257e-09
3.55e-06
1.29985e-09
3.55103e-06
1.4794e-09
3.55205e-06
1.66655e-09
3.55311e-06
1.81372e-09
3.55424e-06
1.93568e-09
3.55539e-06
2.09369e-09
3.55656e-06
2.28467e-09
3.55772e-06
2.502e-09
3.55884e-06
2.7424e-09
3.55993e-06
3.0005e-09
3.561e-06
3.26969e-09
3.56203e-06
3.5479e-09
3.56301e-06
3.8266e-09
3.56395e-06
4.10589e-09
3.56486e-06
4.38064e-09
3.56575e-06
4.65273e-09
3.56661e-06
4.9225e-09
3.56745e-06
5.18807e-09
3.56827e-06
5.46227e-09
3.56906e-06
5.74667e-09
3.56983e-06
6.04434e-09
3.57058e-06
6.37204e-09
3.57131e-06
6.70711e-09
3.57202e-06
7.04021e-09
3.57273e-06
7.39663e-09
3.57342e-06
7.79188e-09
8.27997e-09
3.83149e-06
-1.15463e-09
-3.83023e-06
3.83254e-06
-9.23866e-10
3.83351e-06
-7.32738e-10
3.8344e-06
-5.13016e-10
3.83525e-06
-2.92081e-10
3.8361e-06
-9.59148e-11
3.83692e-06
1.20675e-10
3.83773e-06
3.11708e-10
3.83859e-06
4.35335e-10
3.83955e-06
5.23668e-10
3.8406e-06
6.08719e-10
3.8417e-06
7.22041e-10
3.84276e-06
8.72124e-10
3.8438e-06
1.05626e-09
3.8448e-06
1.27684e-09
3.84578e-06
1.52665e-09
3.84672e-06
1.80094e-09
3.84763e-06
2.08883e-09
3.84852e-06
2.38262e-09
3.84939e-06
2.67572e-09
3.85026e-06
2.96202e-09
3.85112e-06
3.24438e-09
3.85198e-06
3.5214e-09
3.85284e-06
3.7944e-09
3.85369e-06
4.07061e-09
3.85453e-06
4.34556e-09
3.85536e-06
4.63365e-09
3.85617e-06
4.93201e-09
3.85697e-06
5.24742e-09
3.85775e-06
5.5882e-09
3.85853e-06
5.93512e-09
3.8593e-06
6.27089e-09
3.86007e-06
6.62049e-09
3.86088e-06
6.97956e-09
7.28183e-09
4.15127e-06
-4.15608e-10
-4.152e-06
4.15083e-06
-4.85814e-10
4.1505e-06
-4.04523e-10
4.15024e-06
-2.5109e-10
4.15e-06
-5.04383e-11
4.14981e-06
9.38932e-11
4.14971e-06
2.19288e-10
4.14968e-06
3.40008e-10
4.14966e-06
4.52538e-10
4.14962e-06
5.64609e-10
4.14955e-06
6.8386e-10
4.14949e-06
7.75905e-10
4.14951e-06
8.50908e-10
4.14961e-06
9.62291e-10
4.14978e-06
1.10454e-09
4.15003e-06
1.27305e-09
4.15037e-06
1.46717e-09
4.15077e-06
1.6809e-09
4.15125e-06
1.91105e-09
4.15177e-06
2.1546e-09
4.15232e-06
2.40517e-09
4.15291e-06
2.66288e-09
4.1535e-06
2.92205e-09
4.15412e-06
3.18331e-09
4.15474e-06
3.44604e-09
4.15538e-06
3.70569e-09
4.15604e-06
3.97582e-09
4.15672e-06
4.25451e-09
4.15742e-06
4.54739e-09
4.15814e-06
4.86627e-09
4.15888e-06
5.19002e-09
4.15965e-06
5.50633e-09
4.16043e-06
5.83843e-09
4.16122e-06
6.19094e-09
6.60304e-09
4.49138e-06
3.14279e-10
-4.49211e-06
4.49056e-06
3.32224e-10
4.4898e-06
3.57638e-10
4.48916e-06
3.88565e-10
4.48869e-06
4.24948e-10
4.48831e-06
4.67169e-10
4.48802e-06
5.1475e-10
4.48779e-06
5.68117e-10
4.48761e-06
6.26836e-10
4.48749e-06
6.91046e-10
4.48741e-06
7.61116e-10
4.48735e-06
8.37534e-10
4.48728e-06
9.22385e-10
4.48722e-06
1.01563e-09
4.48721e-06
1.12043e-09
4.48725e-06
1.23581e-09
4.48735e-06
1.36578e-09
4.48752e-06
1.50923e-09
4.48776e-06
1.66822e-09
4.48807e-06
1.84287e-09
4.48845e-06
2.03216e-09
4.48887e-06
2.23856e-09
4.48933e-06
2.45908e-09
4.48982e-06
2.69381e-09
4.49034e-06
2.92522e-09
4.49089e-06
3.15589e-09
4.49147e-06
3.39863e-09
4.49208e-06
3.6499e-09
4.49271e-06
3.91533e-09
4.49337e-06
4.20355e-09
4.49406e-06
4.4959e-09
4.49479e-06