/*--------------------------------*- C++ -*----------------------------------*\
| =========                 |                                                 |
| \\      /  F ield         | OpenFOAM: The Open Source CFD Toolbox           |
|  \\    /   O peration     | Version:  5.x                                   |
|   \\  /    A nd           | Web:      www.OpenFOAM.org                      |
|    \\/     M anipulation  |                                                 |
\*---------------------------------------------------------------------------*/
FoamFile
{
    version     2.0;
    format      ascii;
    class       volVectorField;
    location    "0.7";
    object      U;
}
// * * * * * * * * * * * * * * * * * * * * * * * * * * * * * * * * * * * * * //

dimensions      [0 1 -1 0 0 0 0];

internalField   nonuniform List<vector> 
2475
(
(0.911708 0.0108582 0)
(0.814132 0.0144209 0)
(0.713882 0.01403 0)
(0.609948 0.0127237 0)
(0.504384 0.0112845 0)
(0.402611 0.00906282 0)
(0.317241 0.00555457 0)
(0.259921 0.00183553 0)
(0.226813 -0.000119939 0)
(0.206429 -0.000512649 0)
(0.192512 -0.000402345 0)
(0.182249 -0.000219697 0)
(0.173546 -4.89313e-05 0)
(0.165632 6.73867e-05 0)
(0.157974 0.000124948 0)
(0.150835 0.000142367 0)
(0.144006 0.000137275 0)
(0.137879 0.000124862 0)
(0.132028 0.000110336 0)
(0.126887 9.8293e-05 0)
(0.121834 8.62089e-05 0)
(0.117469 7.75196e-05 0)
(0.112959 6.93609e-05 0)
(0.109184 6.28562e-05 0)
(0.105056 5.55795e-05 0)
(0.101811 5.11139e-05 0)
(0.0979459 4.51569e-05 0)
(0.0952038 4.17112e-05 0)
(0.0914804 3.6903e-05 0)
(0.089247 3.47849e-05 0)
(0.0855031 3.05716e-05 0)
(0.0838512 2.91416e-05 0)
(0.0798704 2.57546e-05 0)
(0.0789683 2.47753e-05 0)
(0.0743557 2.47547e-05 0)
(0.967351 0.0194707 0)
(0.959635 0.0273075 0)
(0.945136 0.0284876 0)
(0.921093 0.027819 0)
(0.886158 0.0268758 0)
(0.84089 0.0249033 0)
(0.789282 0.0207943 0)
(0.73838 0.0148338 0)
(0.692126 0.00947121 0)
(0.649665 0.00611402 0)
(0.610062 0.00418358 0)
(0.574357 0.00309245 0)
(0.542105 0.00245545 0)
(0.513638 0.00205564 0)
(0.487724 0.00176601 0)
(0.46476 0.00153339 0)
(0.443422 0.00132754 0)
(0.424565 0.00115562 0)
(0.406551 0.00100393 0)
(0.390734 0.000884033 0)
(0.375106 0.000775929 0)
(0.361621 0.000694585 0)
(0.347671 0.000617712 0)
(0.336069 0.000558337 0)
(0.323331 0.000495318 0)
(0.313372 0.000452562 0)
(0.301454 0.000400798 0)
(0.293048 0.000369736 0)
(0.28157 0.000326491 0)
(0.274749 0.000306685 0)
(0.263244 0.000268068 0)
(0.258221 0.000257484 0)
(0.246032 0.000222195 0)
(0.243296 0.000220533 0)
(0.22938 0.00019892 0)
(0.972043 0.0182434 0)
(0.972495 0.0262134 0)
(0.974843 0.0289944 0)
(0.97621 0.0294365 0)
(0.973961 0.0294199 0)
(0.96696 0.0286446 0)
(0.954382 0.025743 0)
(0.937571 0.0207216 0)
(0.917574 0.0156002 0)
(0.895645 0.0121712 0)
(0.871269 0.0101298 0)
(0.846451 0.00880187 0)
(0.820569 0.00772642 0)
(0.795351 0.00677856 0)
(0.769418 0.00592138 0)
(0.744714 0.00516976 0)
(0.719372 0.00449184 0)
(0.695878 0.00392161 0)
(0.671611 0.00341751 0)
(0.6497 0.00300599 0)
(0.626749 0.00263371 0)
(0.606805 0.00234391 0)
(0.585277 0.00207222 0)
(0.56754 0.00186421 0)
(0.547336 0.00165243 0)
(0.531807 0.00150463 0)
(0.512513 0.00133262 0)
(0.499194 0.00122713 0)
(0.480312 0.00108294 0)
(0.4694 0.00101528 0)
(0.450304 0.00088638 0)
(0.442219 0.000852081 0)
(0.421924 0.000731005 0)
(0.417468 0.000728871 0)
(0.394481 0.000636599 0)
(0.9773 0.0171288 0)
(0.977362 0.0239743 0)
(0.980142 0.0274823 0)
(0.98491 0.0283906 0)
(0.989087 0.0284188 0)
(0.992553 0.0278715 0)
(0.993532 0.0256877 0)
(0.992639 0.0216983 0)
(0.988046 0.0172631 0)
(0.981622 0.0141166 0)
(0.97198 0.0123597 0)
(0.962073 0.0113122 0)
(0.949833 0.0104292 0)
(0.938077 0.00959166 0)
(0.923758 0.00876125 0)
(0.910254 0.00800118 0)
(0.89384 0.00726063 0)
(0.878834 0.00661661 0)
(0.860575 0.00600356 0)
(0.844379 0.00548381 0)
(0.824426 0.00496087 0)
(0.807468 0.00453179 0)
(0.786142 0.00408291 0)
(0.769228 0.00372584 0)
(0.747178 0.00334021 0)
(0.731199 0.00307007 0)
(0.708626 0.00274302 0)
(0.694084 0.00254226 0)
(0.670734 0.002255 0)
(0.658289 0.00212055 0)
(0.633835 0.00185803 0)
(0.624379 0.00178972 0)
(0.597892 0.00153893 0)
(0.592544 0.0015341 0)
(0.562467 0.00132521 0)
(0.982153 0.0166845 0)
(0.982142 0.0223786 0)
(0.983957 0.0262197 0)
(0.988683 0.0275289 0)
(0.993101 0.0274627 0)
(0.998227 0.0267574 0)
(1.00138 0.0248283 0)
(1.00466 0.0214797 0)
(1.00459 0.0175744 0)
(1.00415 0.0146098 0)
(1.00033 0.0129303 0)
(0.997764 0.0120306 0)
(0.992555 0.011313 0)
(0.989427 0.0106354 0)
(0.983096 0.0099115 0)
(0.979082 0.00925583 0)
(0.971076 0.0085878 0)
(0.965866 0.00803082 0)
(0.955912 0.00747549 0)
(0.949393 0.00703317 0)
(0.937135 0.00654546 0)
(0.929102 0.0061711 0)
(0.914135 0.00571595 0)
(0.904709 0.00536097 0)
(0.887202 0.00490933 0)
(0.877226 0.0046114 0)
(0.857574 0.00419767 0)
(0.847687 0.0039711 0)
(0.825521 0.00357893 0)
(0.816219 0.00341383 0)
(0.791366 0.0030256 0)
(0.783921 0.00294168 0)
(0.755895 0.00255734 0)
(0.751519 0.00255664 0)
(0.719169 0.00221796 0)
(0.986203 0.0165665 0)
(0.986366 0.0212199 0)
(0.987315 0.0249784 0)
(0.991777 0.0266114 0)
(0.9956 0.0265639 0)
(1.00103 0.0257186 0)
(1.00389 0.0239345 0)
(1.00803 0.0210815 0)
(1.00853 0.0176333 0)
(1.00999 0.014824 0)
(1.00745 0.0131161 0)
(1.00744 0.0122389 0)
(1.00414 0.0115815 0)
(1.00449 0.0109899 0)
(1.00097 0.0103053 0)
(1.00149 0.00969607 0)
(0.997202 0.00905152 0)
(0.997519 0.00855201 0)
(0.992115 0.00803517 0)
(0.992083 0.00767298 0)
(0.985186 0.00724131 0)
(0.984456 0.00696857 0)
(0.975408 0.00657443 0)
(0.973619 0.00630869 0)
(0.962006 0.0058765 0)
(0.959465 0.00563053 0)
(0.94551 0.00520311 0)
(0.942735 0.00503112 0)
(0.925987 0.00462212 0)
(0.92275 0.00450239 0)
(0.902545 0.0040562 0)
(0.89971 0.00400208 0)
(0.876021 0.00354481 0)
(0.874307 0.00357035 0)
(0.846414 0.00315526 0)
(0.989288 0.0167798 0)
(0.989654 0.0204816 0)
(0.989919 0.0237211 0)
(0.994109 0.025462 0)
(0.997272 0.0255119 0)
(1.00282 0.0246441 0)
(1.00523 0.0230015 0)
(1.00963 0.0205862 0)
(1.01 0.0175735 0)
(1.0122 0.0149505 0)
(1.00986 0.0132031 0)
(1.01075 0.012297 0)
(1.00773 0.0116462 0)
(1.00919 0.0111046 0)
(1.00628 0.0104326 0)
(1.00835 0.00983681 0)
(1.00514 0.00917892 0)
(1.00748 0.00869555 0)
(1.0037 0.0081792 0)
(1.00627 0.00785582 0)
(1.00174 0.00744752 0)
(1.00434 0.00724094 0)
(0.998612 0.00689203 0)
(1.0009 0.00670589 0)
(0.993482 0.00630731 0)
(0.995425 0.00611749 0)
(0.986446 0.00569701 0)
(0.9884 0.00558027 0)
(0.977692 0.00520196 0)
(0.979123 0.00515836 0)
(0.965632 0.00472333 0)
(0.966581 0.00471131 0)
(0.950658 0.00426062 0)
(0.951304 0.00431863 0)
(0.932428 0.00391812 0)
(0.991407 0.0173698 0)
(0.991831 0.020153 0)
(0.99169 0.0226744 0)
(0.995535 0.0243145 0)
(0.998201 0.0244995 0)
(1.00363 0.023713 0)
(1.00583 0.0222073 0)
(1.01021 0.0201265 0)
(1.01058 0.0174824 0)
(1.01305 0.015054 0)
(1.01102 0.0132832 0)
(1.01217 0.0123247 0)
(1.00942 0.0116535 0)
(1.01104 0.0111441 0)
(1.00851 0.0104894 0)
(1.01075 0.00989997 0)
(1.00813 0.00922338 0)
(1.01068 0.00873344 0)
(1.00775 0.00820445 0)
(1.01058 0.00788962 0)
(1.00728 0.00748576 0)
(1.01033 0.00730532 0)
(1.00649 0.00697894 0)
(1.00957 0.00683289 0)
(1.00489 0.00645957 0)
(1.00788 0.00629448 0)
(1.00249 0.00588396 0)
(1.00557 0.00578061 0)
(0.999582 0.00543644 0)
(1.00243 0.00544462 0)
(0.994898 0.00505769 0)
(0.99699 0.00505756 0)
(0.988438 0.00465617 0)
(0.989857 0.0047251 0)
(0.979835 0.00439632 0)
(0.992785 0.0177521 0)
(0.993028 0.0198153 0)
(0.992821 0.0216994 0)
(0.996183 0.0231357 0)
(0.998612 0.023449 0)
(1.00361 0.0228137 0)
(1.00588 0.021457 0)
(1.00993 0.0196453 0)
(1.01059 0.0173276 0)
(1.01294 0.0151103 0)
(1.01151 0.0133642 0)
(1.01251 0.0123573 0)
(1.01034 0.0116555 0)
(1.01161 0.0111621 0)
(1.00972 0.0105364 0)
(1.01149 0.0099553 0)
(1.00967 0.00926908 0)
(1.01164 0.00876103 0)
(1.00965 0.00822033 0)
(1.01174 0.00789822 0)
(1.00958 0.00749604 0)
(1.01181 0.00731873 0)
(1.00945 0.00700512 0)
(1.01177 0.00686803 0)
(1.00909 0.00651461 0)
(1.01134 0.0063466 0)
(1.00848 0.00594964 0)
(1.0107 0.00583017 0)
(1.00779 0.0055082 0)
(1.00999 0.00553274 0)
(1.00646 0.00520082 0)
(1.00799 0.0051815 0)
(1.00429 0.00483055 0)
(1.00538 0.00488717 0)
(1.00115 0.00463385 0)
(0.993887 0.0174677 0)
(0.993742 0.0191428 0)
(0.993681 0.0205904 0)
(0.996475 0.021792 0)
(0.99887 0.0221869 0)
(1.00323 0.0217387 0)
(1.00571 0.0205671 0)
(1.00925 0.0190047 0)
(1.01033 0.017003 0)
(1.01233 0.0150104 0)
(1.01162 0.0133409 0)
(1.01226 0.012308 0)
(1.01082 0.0115787 0)
(1.01153 0.01109 0)
(1.01038 0.0105043 0)
(1.01148 0.00994451 0)
(1.01049 0.00926925 0)
(1.01171 0.00874923 0)
(1.01064 0.00820689 0)
(1.01186 0.00787814 0)
(1.01069 0.00748233 0)
(1.01196 0.00730228 0)
(1.01076 0.00699997 0)
(1.01208 0.00685928 0)
(1.01083 0.00652539 0)
(1.01206 0.00634667 0)
(1.01081 0.00596749 0)
(1.01194 0.00583 0)
(1.01074 0.00552111 0)
(1.01192 0.00554214 0)
(1.01055 0.00525701 0)
(1.01129 0.00520902 0)
(1.00999 0.00489518 0)
(1.01056 0.00493069 0)
(1.00908 0.00473279 0)
(0.994866 0.0169607 0)
(0.994281 0.0184341 0)
(0.99438 0.0196169 0)
(0.996647 0.0205937 0)
(0.999071 0.0209947 0)
(1.0028 0.0207119 0)
(1.00546 0.019737 0)
(1.0085 0.0183977 0)
(1.00995 0.0166818 0)
(1.0116 0.0149044 0)
(1.0115 0.0133292 0)
(1.01183 0.0122842 0)
(1.01099 0.0115241 0)
(1.01124 0.0110173 0)
(1.01065 0.0104627 0)
(1.01122 0.0099296 0)
(1.01083 0.00927608 0)
(1.0115 0.00874854 0)
(1.01108 0.00820297 0)
(1.01168 0.00786495 0)
(1.01119 0.00747132 0)
(1.0118 0.00728469 0)
(1.01133 0.00698994 0)
(1.01197 0.00684107 0)
(1.01154 0.00652264 0)
(1.01211 0.00633344 0)
(1.01171 0.00597019 0)
(1.01218 0.00582116 0)
(1.01176 0.00552077 0)
(1.0123 0.00552976 0)
(1.01188 0.00527901 0)
(1.01218 0.00520533 0)
(1.01181 0.0049188 0)
(1.01206 0.00493342 0)
(1.01161 0.00477214 0)
(0.995763 0.0164152 0)
(0.994802 0.0177439 0)
(0.994958 0.018754 0)
(0.996813 0.0195491 0)
(0.999217 0.0199009 0)
(1.00244 0.0197332 0)
(1.00515 0.0189476 0)
(1.00783 0.0178082 0)
(1.00949 0.0163414 0)
(1.01091 0.0147726 0)
(1.01122 0.0133 0)
(1.01141 0.0122581 0)
(1.01096 0.011474 0)
(1.01096 0.0109384 0)
(1.0107 0.0104058 0)
(1.01096 0.00990597 0)
(1.01089 0.00928242 0)
(1.01126 0.00875424 0)
(1.0112 0.00820408 0)
(1.01149 0.00785626 0)
(1.01135 0.00746167 0)
(1.01163 0.00726695 0)
(1.01152 0.00697733 0)
(1.01183 0.00681976 0)
(1.01177 0.00651323 0)
(1.01205 0.00631646 0)
(1.01199 0.0059677 0)
(1.01219 0.00581153 0)
(1.01208 0.00551987 0)
(1.01232 0.00551253 0)
(1.01226 0.00528679 0)
(1.01241 0.00519267 0)
(1.01233 0.00493028 0)
(1.01245 0.00492611 0)
(1.01232 0.0047903 0)
(0.996582 0.0158957 0)
(0.995332 0.0170821 0)
(0.995427 0.0179545 0)
(0.996986 0.0185994 0)
(0.999299 0.0188807 0)
(1.00216 0.0187761 0)
(1.00481 0.0181551 0)
(1.00725 0.0171977 0)
(1.00898 0.0159486 0)
(1.01028 0.014587 0)
(1.01083 0.0132269 0)
(1.01101 0.0122064 0)
(1.01079 0.0114149 0)
(1.01072 0.0108542 0)
(1.01061 0.0103295 0)
(1.01074 0.00985859 0)
(1.01081 0.0092679 0)
(1.01106 0.00874712 0)
(1.01116 0.00819743 0)
(1.01134 0.00784177 0)
(1.01135 0.00744714 0)
(1.0115 0.00724351 0)
(1.01154 0.00695877 0)
(1.01172 0.00679261 0)
(1.0118 0.00649657 0)
(1.01198 0.00629382 0)
(1.01203 0.00596024 0)
(1.01215 0.00579789 0)
(1.01215 0.00551857 0)
(1.01228 0.00549269 0)
(1.01233 0.00528673 0)
(1.01245 0.00517589 0)
(1.01245 0.00493744 0)
(1.01252 0.00491656 0)
(1.01249 0.00480054 0)
(0.997322 0.0153749 0)
(0.995841 0.0164098 0)
(0.9958 0.0171561 0)
(0.997136 0.0176796 0)
(0.999317 0.0178974 0)
(1.00193 0.0178275 0)
(1.00446 0.0173415 0)
(1.00673 0.0165557 0)
(1.00846 0.0154971 0)
(1.0097 0.0143371 0)
(1.01038 0.0131079 0)
(1.01063 0.0121278 0)
(1.01055 0.0113454 0)
(1.01048 0.0107668 0)
(1.01045 0.0102349 0)
(1.01053 0.00978507 0)
(1.01064 0.00923317 0)
(1.01087 0.00872947 0)
(1.01103 0.00818836 0)
(1.01119 0.00782472 0)
(1.01127 0.00742968 0)
(1.01138 0.00721355 0)
(1.01148 0.00693426 0)
(1.01162 0.00676034 0)
(1.01174 0.00647651 0)
(1.0119 0.0062688 0)
(1.01199 0.00595173 0)
(1.01208 0.00578132 0)
(1.01212 0.00551662 0)
(1.01221 0.0054713 0)
(1.01231 0.00528274 0)
(1.01241 0.005158 0)
(1.01245 0.00494255 0)
(1.01249 0.00490699 0)
(1.0125 0.00480719 0)
(0.997985 0.0148003 0)
(0.996303 0.0156927 0)
(0.9961 0.0163317 0)
(0.997254 0.0167734 0)
(0.999294 0.0169468 0)
(1.00173 0.0169024 0)
(1.00412 0.0165249 0)
(1.00625 0.0158955 0)
(1.00794 0.0150057 0)
(1.00915 0.0140306 0)
(1.00989 0.0129508 0)
(1.01022 0.0120209 0)
(1.01025 0.0112529 0)
(1.01022 0.0106652 0)
(1.01024 0.0101225 0)
(1.01032 0.00968621 0)
(1.01044 0.00917816 0)
(1.01066 0.00869799 0)
(1.01086 0.00817367 0)
(1.01103 0.00780414 0)
(1.01114 0.00741116 0)
(1.01125 0.00717994 0)
(1.01138 0.00690632 0)
(1.01151 0.00672369 0)
(1.01165 0.00645223 0)
(1.0118 0.00623943 0)
(1.0119 0.00594072 0)
(1.01199 0.00576239 0)
(1.01205 0.00551393 0)
(1.01213 0.00544905 0)
(1.01224 0.00527541 0)
(1.01234 0.00513941 0)
(1.01239 0.00494535 0)
(1.01243 0.00489763 0)
(1.01246 0.00481135 0)
(0.99858 0.0141866 0)
(0.996715 0.0149622 0)
(0.996352 0.0155149 0)
(0.997343 0.0158991 0)
(0.999245 0.0160396 0)
(1.00153 0.016011 0)
(1.00379 0.0157182 0)
(1.0058 0.015221 0)
(1.00744 0.0144875 0)
(1.00862 0.0136722 0)
(1.00939 0.0127484 0)
(1.00978 0.011883 0)
(1.0099 0.0111389 0)
(1.00993 0.0105591 0)
(1.00999 0.0100149 0)
(1.01008 0.00958003 0)
(1.01022 0.00911088 0)
(1.01043 0.00865354 0)
(1.01065 0.00814922 0)
(1.01084 0.00777605 0)
(1.01098 0.00738859 0)
(1.0111 0.00714199 0)
(1.01125 0.00687392 0)
(1.01138 0.0066828 0)
(1.01153 0.00642456 0)
(1.01167 0.00620759 0)
(1.01179 0.00592709 0)
(1.01188 0.00574082 0)
(1.01195 0.00550767 0)
(1.01202 0.00542505 0)
(1.01215 0.00526418 0)
(1.01225 0.0051203 0)
(1.01231 0.00494456 0)
(1.01234 0.0048878 0)
(1.01239 0.00481217 0)
(0.999124 0.0135698 0)
(0.997087 0.0142517 0)
(0.996568 0.0147316 0)
(0.997406 0.0150664 0)
(0.999177 0.0151864 0)
(1.00134 0.0151656 0)
(1.00349 0.0149414 0)
(1.00539 0.0145522 0)
(1.00697 0.0139617 0)
(1.00812 0.0132776 0)
(1.00889 0.0124976 0)
(1.00933 0.0117175 0)
(1.00952 0.0110086 0)
(1.0096 0.0104451 0)
(1.0097 0.00990889 0)
(1.00982 0.00946518 0)
(1.00996 0.00902687 0)
(1.01017 0.00859607 0)
(1.01042 0.00811905 0)
(1.01062 0.0077498 0)
(1.01079 0.00737219 0)
(1.01093 0.00711001 0)
(1.01109 0.0068441 0)
(1.01122 0.00664296 0)
(1.01138 0.00639652 0)
(1.01152 0.00617749 0)
(1.01165 0.00591503 0)
(1.01174 0.00572347 0)
(1.01183 0.00550397 0)
(1.0119 0.0054054 0)
(1.01204 0.00525372 0)
(1.01213 0.0051055 0)
(1.01221 0.00494486 0)
(1.01223 0.00488175 0)
(1.0123 0.00481397 0)
(0.999626 0.0129322 0)
(0.997423 0.0135234 0)
(0.996753 0.0139373 0)
(0.99745 0.0142247 0)
(0.999097 0.0143371 0)
(1.00115 0.0143217 0)
(1.0032 0.0141564 0)
(1.00501 0.0138586 0)
(1.00652 0.0133939 0)
(1.00763 0.0128261 0)
(1.0084 0.0121738 0)
(1.00886 0.0114986 0)
(1.00912 0.0108385 0)
(1.00924 0.0102932 0)
(1.00939 0.00977627 0)
(1.00954 0.00932377 0)
(1.0097 0.00890736 0)
(1.0099 0.00850523 0)
(1.01017 0.00805827 0)
(1.01039 0.00769587 0)
(1.01058 0.00733137 0)
(1.01073 0.00705625 0)
(1.01092 0.00679407 0)
(1.01105 0.00658612 0)
(1.01122 0.00635181 0)
(1.01135 0.00613245 0)
(1.01149 0.00588748 0)
(1.01158 0.00569263 0)
(1.01169 0.00548644 0)
(1.01175 0.00537513 0)
(1.01191 0.00523191 0)
(1.01199 0.00508189 0)
(1.01208 0.00493552 0)
(1.01211 0.00486761 0)
(1.01219 0.00480817 0)
(1.00008 0.0123276 0)
(0.997722 0.0128326 0)
(0.996913 0.013195 0)
(0.997483 0.0134439 0)
(0.999018 0.0135578 0)
(1.00098 0.0135531 0)
(1.00295 0.0134348 0)
(1.00468 0.0132119 0)
(1.00612 0.0128475 0)
(1.00719 0.0123843 0)
(1.00795 0.0118366 0)
(1.00841 0.0112617 0)
(1.00871 0.0106628 0)
(1.00888 0.0101359 0)
(1.00905 0.00964662 0)
(1.00923 0.00919463 0)
(1.00942 0.00879222 0)
(1.00962 0.00841681 0)
(1.00991 0.00799795 0)
(1.01014 0.00764405 0)
(1.01035 0.00729651 0)
(1.01052 0.0070138 0)
(1.01073 0.00675318 0)
(1.01086 0.00653875 0)
(1.01104 0.00631234 0)
(1.01117 0.00609376 0)
(1.01132 0.00586337 0)
(1.01141 0.00566858 0)
(1.01153 0.0054723 0)
(1.0116 0.00535124 0)
(1.01176 0.00521244 0)
(1.01184 0.0050639 0)
(1.01195 0.00492719 0)
(1.01197 0.00485747 0)
(1.01207 0.00480238 0)
(1.00049 0.0116887 0)
(0.998005 0.0121232 0)
(0.997069 0.012448 0)
(0.997524 0.0126714 0)
(0.998956 0.012788 0)
(1.00082 0.0128025 0)
(1.00273 0.0127187 0)
(1.00438 0.0125569 0)
(1.00576 0.0122737 0)
(1.00678 0.0119058 0)
(1.00752 0.0114506 0)
(1.00798 0.0109655 0)
(1.0083 0.0104449 0)
(1.0085 0.00994781 0)
(1.00871 0.00949347 0)
(1.00892 0.00905746 0)
(1.00914 0.00866412 0)
(1.00934 0.00831096 0)
(1.00964 0.00792013 0)
(1.00989 0.00757831 0)
(1.01013 0.00725179 0)
(1.01031 0.00696902 0)
(1.01054 0.00670861 0)
(1.01067 0.00648987 0)
(1.01086 0.00627005 0)
(1.01099 0.00605597 0)
(1.01115 0.00583844 0)
(1.01124 0.00564691 0)
(1.01138 0.00545871 0)
(1.01145 0.00533172 0)
(1.01162 0.00519506 0)
(1.01169 0.0050505 0)
(1.01181 0.00492152 0)
(1.01184 0.00485193 0)
(1.01195 0.00479969 0)
(1.00088 0.0110126 0)
(0.998271 0.011391 0)
(0.997222 0.0116823 0)
(0.997572 0.0118884 0)
(0.998914 0.0120033 0)
(1.0007 0.0120377 0)
(1.00254 0.0119797 0)
(1.00413 0.0118653 0)
(1.00545 0.011654 0)
(1.00642 0.0113693 0)
(1.00713 0.0110051 0)
(1.00759 0.0105977 0)
(1.00791 0.0101604 0)
(1.00814 0.00970667 0)
(1.00838 0.00928673 0)
(1.0086 0.00887481 0)
(1.00885 0.00848913 0)
(1.00907 0.00815379 0)
(1.00938 0.00779422 0)
(1.00964 0.00746647 0)
(1.0099 0.00716253 0)
(1.01009 0.00688605 0)
(1.01034 0.0066309 0)
(1.01049 0.00641193 0)
(1.01069 0.00620001 0)
(1.01081 0.00598995 0)
(1.01099 0.00578488 0)
(1.01107 0.00559715 0)
(1.01123 0.00541907 0)
(1.0113 0.00528843 0)
(1.01148 0.00515744 0)
(1.01154 0.00501609 0)
(1.01168 0.00489698 0)
(1.0117 0.00482603 0)
(1.01184 0.00478094 0)
(1.00126 0.0104483 0)
(0.998543 0.010775 0)
(0.997393 0.0110286 0)
(0.997645 0.0112151 0)
(0.998903 0.011322 0)
(1.0006 0.0113673 0)
(1.00239 0.0113304 0)
(1.00392 0.0112488 0)
(1.00519 0.011097 0)
(1.00611 0.0108764 0)
(1.0068 0.01059 0)
(1.00723 0.0102445 0)
(1.00756 0.00987727 0)
(1.00779 0.00947772 0)
(1.00805 0.00908931 0)
(1.00829 0.00870757 0)
(1.00857 0.00833735 0)
(1.00881 0.00801986 0)
(1.00913 0.00769078 0)
(1.00941 0.00737699 0)
(1.00969 0.00709092 0)
(1.00989 0.00682401 0)
(1.01016 0.00657285 0)
(1.01031 0.00635456 0)
(1.01052 0.00614664 0)
(1.01064 0.0059413 0)
(1.01083 0.00574644 0)
(1.01092 0.00556582 0)
(1.01109 0.00539448 0)
(1.01116 0.00526181 0)
(1.01134 0.00513177 0)
(1.01141 0.00499584 0)
(1.01156 0.0048824 0)
(1.01158 0.00481295 0)
(1.01173 0.00476923 0)
(1.00164 0.00987166 0)
(0.998827 0.0101499 0)
(0.997588 0.0103664 0)
(0.997753 0.0105324 0)
(0.998937 0.0106343 0)
(1.00057 0.0106884 0)
(1.0023 0.0106794 0)
(1.00379 0.0106278 0)
(1.00501 0.0105277 0)
(1.00589 0.0103615 0)
(1.00653 0.0101416 0)
(1.00694 0.00985936 0)
(1.00727 0.0095538 0)
(1.0075 0.00921762 0)
(1.00778 0.00886575 0)
(1.00802 0.0085198 0)
(1.00834 0.00817262 0)
(1.00859 0.00786866 0)
(1.00892 0.00756268 0)
(1.00921 0.00726273 0)
(1.00951 0.00699464 0)
(1.00972 0.00674576 0)
(1.01001 0.00650334 0)
(1.01017 0.00629142 0)
(1.01039 0.00609023 0)
(1.01052 0.00589201 0)
(1.01072 0.00570353 0)
(1.0108 0.00552925 0)
(1.01099 0.0053631 0)
(1.01105 0.00523384 0)
(1.01125 0.0051069 0)
(1.01131 0.00497762 0)
(1.01148 0.00486708 0)
(1.0115 0.0048008 0)
(1.01167 0.00475759 0)
(1.00199 0.00922984 0)
(0.999088 0.00947263 0)
(0.997771 0.00966612 0)
(0.997863 0.00981867 0)
(0.998984 0.00992479 0)
(1.00056 0.00998858 0)
(1.00224 0.0100081 0)
(1.00368 0.00998036 0)
(1.00486 0.00991813 0)
(1.00569 0.00979674 0)
(1.0063 0.00963198 0)
(1.00669 0.00941198 0)
(1.007 0.00915906 0)
(1.00722 0.00888154 0)
(1.00751 0.00857316 0)
(1.00776 0.00826539 0)
(1.0081 0.00795026 0)
(1.00837 0.00766268 0)
(1.00872 0.00738581 0)
(1.00902 0.00710635 0)
(1.00935 0.00685932 0)
(1.00956 0.00662945 0)
(1.00987 0.00639797 0)
(1.01003 0.0061911 0)
(1.01027 0.00599844 0)
(1.0104 0.00580678 0)
(1.01061 0.00562977 0)
(1.01069 0.00546406 0)
(1.0109 0.00530854 0)
(1.01096 0.00518026 0)
(1.01117 0.00505825 0)
(1.01122 0.00493325 0)
(1.01141 0.00483185 0)
(1.01143 0.00476581 0)
(1.01162 0.00472803 0)
(1.00231 0.00865325 0)
(0.99932 0.00886427 0)
(0.997934 0.00903805 0)
(0.997962 0.00917528 0)
(0.999027 0.00927986 0)
(1.00055 0.00934544 0)
(1.00218 0.00937915 0)
(1.00358 0.00936867 0)
(1.00472 0.00933268 0)
(1.00551 0.00925272 0)
(1.00609 0.00913488 0)
(1.00644 0.0089727 0)
(1.00675 0.00876865 0)
(1.00695 0.00854436 0)
(1.00724 0.00828413 0)
(1.0075 0.00801541 0)
(1.00785 0.00773361 0)
(1.00813 0.00746533 0)
(1.0085 0.00721656 0)
(1.00881 0.0069573 0)
(1.00916 0.00672276 0)
(1.00938 0.00651065 0)
(1.0097 0.00629445 0)
(1.00988 0.00609951 0)
(1.01013 0.00591872 0)
(1.01026 0.00573583 0)
(1.01049 0.00556665 0)
(1.01057 0.00540804 0)
(1.01079 0.00525856 0)
(1.01085 0.00513491 0)
(1.01107 0.00501902 0)
(1.01113 0.00490074 0)
(1.01133 0.00480336 0)
(1.01135 0.00473989 0)
(1.01156 0.00470358 0)
(1.00259 0.00811576 0)
(0.999526 0.00829544 0)
(0.998078 0.00844719 0)
(0.998049 0.00856801 0)
(0.999065 0.00866529 0)
(1.00054 0.00873111 0)
(1.00212 0.00877354 0)
(1.00349 0.00878299 0)
(1.0046 0.00877004 0)
(1.00535 0.00872637 0)
(1.00591 0.00864482 0)
(1.00622 0.00852884 0)
(1.00651 0.00836726 0)
(1.00669 0.00818713 0)
(1.00698 0.00797198 0)
(1.00723 0.00774239 0)
(1.00759 0.0074946 0)
(1.00789 0.00725093 0)
(1.00827 0.0070296 0)
(1.00859 0.00679551 0)
(1.00896 0.00657615 0)
(1.00919 0.00638625 0)
(1.00953 0.00618699 0)
(1.00971 0.00600373 0)
(1.00998 0.00583116 0)
(1.01011 0.00565895 0)
(1.01035 0.00549704 0)
(1.01044 0.00534954 0)
(1.01067 0.00520837 0)
(1.01073 0.00509242 0)
(1.01097 0.00497829 0)
(1.01102 0.00486824 0)
(1.01124 0.00477456 0)
(1.01126 0.00471702 0)
(1.01148 0.00467947 0)
(1.00282 0.00755027 0)
(0.999701 0.00770225 0)
(0.9982 0.00783367 0)
(0.998122 0.00794146 0)
(0.999099 0.00803265 0)
(1.00053 0.00810185 0)
(1.00209 0.00815301 0)
(1.00341 0.00818113 0)
(1.0045 0.00818622 0)
(1.00522 0.0081684 0)
(1.00574 0.00811525 0)
(1.00602 0.00803514 0)
(1.00629 0.00791388 0)
(1.00645 0.00777366 0)
(1.00672 0.00760465 0)
(1.00697 0.00741543 0)
(1.00734 0.00720866 0)
(1.00765 0.00699322 0)
(1.00804 0.00679713 0)
(1.00836 0.00658985 0)
(1.00876 0.00638933 0)
(1.00899 0.00621869 0)
(1.00934 0.00603758 0)
(1.00953 0.00586592 0)
(1.00981 0.00570863 0)
(1.00994 0.00554924 0)
(1.0102 0.00539956 0)
(1.01029 0.0052605 0)
(1.01054 0.00512756 0)
(1.0106 0.00501658 0)
(1.01085 0.00491256 0)
(1.0109 0.00480892 0)
(1.01114 0.00472297 0)
(1.01116 0.00466649 0)
(1.0114 0.00463511 0)
(1.00302 0.00700689 0)
(0.999843 0.0071368 0)
(0.998299 0.00725237 0)
(0.998181 0.00735013 0)
(0.999126 0.0074362 0)
(1.00052 0.00750693 0)
(1.00205 0.00756271 0)
(1.00335 0.00760206 0)
(1.00441 0.00762012 0)
(1.00509 0.00762183 0)
(1.00558 0.00759567 0)
(1.00583 0.00754735 0)
(1.00608 0.00746767 0)
(1.00622 0.00736299 0)
(1.00648 0.00723672 0)
(1.00672 0.00708159 0)
(1.00708 0.0069176 0)
(1.0074 0.00673127 0)
(1.00781 0.0065597 0)
(1.00812 0.00638165 0)
(1.00855 0.00620278 0)
(1.00878 0.00604667 0)
(1.00915 0.00588999 0)
(1.00934 0.0057318 0)
(1.00964 0.00559098 0)
(1.00977 0.0054404 0)
(1.01004 0.00530244 0)
(1.01013 0.00516899 0)
(1.01039 0.00505014 0)
(1.01046 0.00494315 0)
(1.01072 0.00484915 0)
(1.01076 0.00474722 0)
(1.01102 0.00467228 0)
(1.01104 0.00461421 0)
(1.01131 0.00459094 0)
(1.00317 0.006451 0)
(0.999951 0.00656721 0)
(0.998371 0.00666857 0)
(0.998218 0.0067606 0)
(0.999137 0.00683874 0)
(1.0005 0.00691146 0)
(1.00201 0.00696765 0)
(1.00327 0.00701864 0)
(1.00431 0.00704893 0)
(1.00497 0.00707281 0)
(1.00544 0.00707258 0)
(1.00566 0.00705694 0)
(1.00588 0.00701372 0)
(1.006 0.00694255 0)
(1.00625 0.0068517 0)
(1.00646 0.00673199 0)
(1.00683 0.0066042 0)
(1.00714 0.00645682 0)
(1.00756 0.00630821 0)
(1.00788 0.00616876 0)
(1.00831 0.00600947 0)
(1.00856 0.00587337 0)
(1.00893 0.00573598 0)
(1.00913 0.00559711 0)
(1.00944 0.00546416 0)
(1.00957 0.00533233 0)
(1.00986 0.00520109 0)
(1.00995 0.00508278 0)
(1.01022 0.0049646 0)
(1.01029 0.00486959 0)
(1.01056 0.0047745 0)
(1.01061 0.00468629 0)
(1.01089 0.00460653 0)
(1.01091 0.00455924 0)
(1.01119 0.00452347 0)
(1.0033 0.00585142 0)
(1.00003 0.00595767 0)
(0.998419 0.00604788 0)
(0.998234 0.00613396 0)
(0.999132 0.00620599 0)
(1.00047 0.00627907 0)
(1.00196 0.00633869 0)
(1.0032 0.00639933 0)
(1.00423 0.00644488 0)
(1.00486 0.00648676 0)
(1.00531 0.00651136 0)
(1.0055 0.00652134 0)
(1.00569 0.0065111 0)
(1.00579 0.00647513 0)
(1.00602 0.00642368 0)
(1.00622 0.00634718 0)
(1.00658 0.00625723 0)
(1.00688 0.00615334 0)
(1.00731 0.00603526 0)
(1.00762 0.00593177 0)
(1.00807 0.00580427 0)
(1.00832 0.00569445 0)
(1.0087 0.00558326 0)
(1.0089 0.00546987 0)
(1.00923 0.00535687 0)
(1.00936 0.00524837 0)
(1.00966 0.00513337 0)
(1.00974 0.00503227 0)
(1.01004 0.0049263 0)
(1.01009 0.00484626 0)
(1.01039 0.00476057 0)
(1.01043 0.00468464 0)
(1.01073 0.00461065 0)
(1.01074 0.00457184 0)
(1.01105 0.00453623 0)
(1.0035 0.00448477 0)
(1.00014 0.00452584 0)
(0.998453 0.00456679 0)
(0.998204 0.00461061 0)
(0.999062 0.00465796 0)
(1.00037 0.00471022 0)
(1.00183 0.00476616 0)
(1.00303 0.00482326 0)
(1.00402 0.00488122 0)
(1.00461 0.00493305 0)
(1.00501 0.00498182 0)
(1.00514 0.00501479 0)
(1.00529 0.00504119 0)
(1.00533 0.00504584 0)
(1.00552 0.00504376 0)
(1.00566 0.00502046 0)
(1.006 0.00498939 0)
(1.00627 0.00494371 0)
(1.00671 0.00489137 0)
(1.00701 0.00483781 0)
(1.00747 0.00477963 0)
(1.00773 0.00471861 0)
(1.00814 0.00466418 0)
(1.00833 0.00459747 0)
(1.00869 0.0045368 0)
(1.00881 0.00446402 0)
(1.00914 0.00439708 0)
(1.00922 0.00432624 0)
(1.00954 0.00426724 0)
(1.0096 0.0042122 0)
(1.00992 0.00416663 0)
(1.00996 0.00410914 0)
(1.0103 0.00407263 0)
(1.01031 0.00404301 0)
(1.01066 0.00403678 0)
(1.00227 0.00319734 0)
(0.999005 0.00326459 0)
(0.997425 0.00334007 0)
(0.997287 0.00342347 0)
(0.998242 0.00351025 0)
(0.999624 0.0036001 0)
(1.00113 0.00368954 0)
(1.00236 0.00377872 0)
(1.00335 0.00386543 0)
(1.00392 0.00394919 0)
(1.00428 0.0040298 0)
(1.00436 0.0041066 0)
(1.00445 0.00418071 0)
(1.00444 0.00424971 0)
(1.00458 0.00431437 0)
(1.00468 0.00437276 0)
(1.00499 0.00442476 0)
(1.00523 0.0044703 0)
(1.00565 0.00450543 0)
(1.00594 0.00453379 0)
(1.00637 0.00455105 0)
(1.00663 0.00456162 0)
(1.00703 0.0045598 0)
(1.00722 0.00454946 0)
(1.00757 0.00452962 0)
(1.0077 0.00449865 0)
(1.00802 0.00446479 0)
(1.00811 0.00443 0)
(1.00844 0.0043942 0)
(1.00851 0.00436991 0)
(1.00884 0.00434049 0)
(1.0089 0.00430305 0)
(1.00925 0.00427054 0)
(1.00928 0.00425116 0)
(1.00964 0.00423691 0)
(1.0027 -0.00295301 0)
(0.999445 -0.00263211 0)
(0.997829 -0.00204816 0)
(0.997581 -0.00134068 0)
(0.998414 -0.000639488 0)
(0.999645 -2.97745e-05 0)
(1.00103 0.000447223 0)
(1.00214 0.000790909 0)
(1.00304 0.00102302 0)
(1.00353 0.00117932 0)
(1.00386 0.00129974 0)
(1.0039 0.00141599 0)
(1.00399 0.00155252 0)
(1.00394 0.00171629 0)
(1.00407 0.00190954 0)
(1.00411 0.00212057 0)
(1.00439 0.00233948 0)
(1.00454 0.00255215 0)
(1.0049 0.00274784 0)
(1.00509 0.00292083 0)
(1.00549 0.0030639 0)
(1.00565 0.00318066 0)
(1.00602 0.00327054 0)
(1.00614 0.0033369 0)
(1.0065 0.00338581 0)
(1.00657 0.00341726 0)
(1.00693 0.00344317 0)
(1.00697 0.00346401 0)
(1.00734 0.0034837 0)
(1.00736 0.00350908 0)
(1.00775 0.0035267 0)
(1.00776 0.00352954 0)
(1.00817 0.00353194 0)
(1.00816 0.0035356 0)
(1.0086 0.00353616 0)
(1.00028 -0.00349262 0)
(1.00368 -0.00319535 0)
(1.00554 -0.00263527 0)
(1.00589 -0.00195137 0)
(1.0053 -0.0012719 0)
(1.00416 -0.00068183 0)
(1.00302 -0.000221141 0)
(1.00202 0.000109252 0)
(1.0014 0.000331645 0)
(1.00105 0.000481296 0)
(1.00105 0.000598261 0)
(1.00116 0.000712988 0)
(1.00147 0.000850013 0)
(1.00169 0.00101503 0)
(1.002 0.00121169 0)
(1.00213 0.0014271 0)
(1.00233 0.00165369 0)
(1.00236 0.00187539 0)
(1.0025 0.0020844 0)
(1.00249 0.00227302 0)
(1.00263 0.002436 0)
(1.00264 0.00257487 0)
(1.00284 0.00269036 0)
(1.00288 0.00278383 0)
(1.00313 0.00286215 0)
(1.00319 0.00292222 0)
(1.00347 0.00297814 0)
(1.00353 0.00302636 0)
(1.00383 0.00307356 0)
(1.00388 0.00312306 0)
(1.0042 0.00316428 0)
(1.00424 0.00318683 0)
(1.00457 0.00320764 0)
(1.00459 0.00322342 0)
(1.00495 0.00323305 0)
(1.00053 0.00116043 0)
(1.00395 0.0011861 0)
(1.00579 0.0012186 0)
(1.00607 0.00125848 0)
(1.00539 0.00130247 0)
(1.00415 0.00135173 0)
(1.00293 0.00140352 0)
(1.00186 0.00145973 0)
(1.0012 0.00151779 0)
(1.00081 0.00157937 0)
(1.00081 0.00164313 0)
(1.00091 0.00171048 0)
(1.00122 0.00178143 0)
(1.00143 0.00185545 0)
(1.00173 0.00193338 0)
(1.00183 0.00201346 0)
(1.00199 0.002097 0)
(1.00196 0.00218191 0)
(1.00204 0.00226675 0)
(1.00196 0.0023524 0)
(1.00205 0.00243404 0)
(1.00198 0.00251558 0)
(1.00213 0.00258774 0)
(1.00211 0.00265478 0)
(1.00233 0.00271299 0)
(1.00235 0.00275979 0)
(1.00261 0.00280195 0)
(1.00264 0.00283991 0)
(1.00293 0.00287338 0)
(1.00295 0.00291235 0)
(1.00326 0.00293962 0)
(1.00326 0.00295336 0)
(1.0036 0.00296285 0)
(1.00359 0.002973 0)
(1.00396 0.00297455 0)
(0.998733 0.000812519 0)
(1.00229 0.000799987 0)
(1.00428 0.000793464 0)
(1.00472 0.000793915 0)
(1.00418 0.000802457 0)
(1.00307 0.000818787 0)
(1.00196 0.00084255 0)
(1.00096 0.000872282 0)
(1.00035 0.000907683 0)
(0.999992 0.000946446 0)
(1 0.000989215 0)
(1.00012 0.00103298 0)
(1.00043 0.00108053 0)
(1.00066 0.00112818 0)
(1.00096 0.00118099 0)
(1.00109 0.00123443 0)
(1.00126 0.00129433 0)
(1.00125 0.00135628 0)
(1.00133 0.00142457 0)
(1.00126 0.00149609 0)
(1.00132 0.00157128 0)
(1.00125 0.0016481 0)
(1.00136 0.00172472 0)
(1.00133 0.00179695 0)
(1.00151 0.00186697 0)
(1.00151 0.0019258 0)
(1.00173 0.00198471 0)
(1.00176 0.002036 0)
(1.002 0.00208733 0)
(1.00202 0.0021383 0)
(1.00229 0.00218317 0)
(1.0023 0.00221109 0)
(1.00259 0.00223893 0)
(1.0026 0.0022593 0)
(1.00291 0.00227376 0)
(0.99861 0.00106852 0)
(1.00219 0.00108524 0)
(1.00418 0.00110304 0)
(1.00464 0.00112317 0)
(1.0041 0.00114455 0)
(1.00301 0.00116863 0)
(1.00189 0.00119405 0)
(1.00091 0.00122213 0)
(1.00029 0.00125156 0)
(0.99994 0.00128319 0)
(0.99994 0.00131628 0)
(1.00007 0.00135077 0)
(1.00036 0.00138712 0)
(1.0006 0.00142409 0)