/*--------------------------------*- C++ -*----------------------------------*\
| =========                 |                                                 |
| \\      /  F ield         | OpenFOAM: The Open Source CFD Toolbox           |
|  \\    /   O peration     | Version:  5.x                                   |
|   \\  /    A nd           | Web:      www.OpenFOAM.org                      |
|    \\/     M anipulation  |                                                 |
\*---------------------------------------------------------------------------*/
FoamFile
{
    version     2.0;
    format      ascii;
    class       volScalarField;
    location    "0.4";
    object      p;
}
// * * * * * * * * * * * * * * * * * * * * * * * * * * * * * * * * * * * * * //

dimensions      [0 2 -2 0 0 0 0];

internalField   nonuniform List<scalar> 
2475
(
0.0342553
0.0302038
0.0240268
0.0181293
0.0123979
0.00647942
0.000804481
-0.00320028
-0.00455031
-0.00381596
-0.00232644
-0.000982487
-9.92597e-05
0.000356805
0.000533241
0.000568778
0.000557269
0.000535941
0.000515704
0.000493739
0.00047166
0.000438163
0.000387806
0.00032988
0.000278208
0.000222698
0.000169209
0.000115703
6.42531e-05
1.15591e-05
-3.77507e-05
-6.86458e-05
-9.93702e-05
-7.92887e-05
-9.2906e-05
0.0308839
0.0287951
0.0235894
0.0178776
0.0122607
0.00657179
0.00112614
-0.00281244
-0.00426312
-0.00363841
-0.00221231
-0.000905283
-4.62982e-05
0.000395291
0.000563295
0.000593574
0.000578337
0.000554145
0.000531456
0.000507524
0.000483777
0.000449024
0.000397417
0.000338519
0.000285907
0.000229715
0.00017543
0.000121441
6.93268e-05
1.63103e-05
-3.36146e-05
-6.46612e-05
-9.59699e-05
-7.58694e-05
-9.00008e-05
0.0282573
0.0274415
0.0232385
0.0177751
0.0122452
0.00682258
0.0017432
-0.00206487
-0.00371029
-0.00334663
-0.00207042
-0.000831632
2.43783e-06
0.000435158
0.000598716
0.000625403
0.000606454
0.000578392
0.000552067
0.000524871
0.000498355
0.000461359
0.000407899
0.000347571
0.000293807
0.000236701
0.000181555
0.000126944
7.4157e-05
2.07084e-05
-2.9804e-05
-6.10947e-05
-9.29178e-05
-7.30523e-05
-8.76273e-05
0.0262086
0.0260581
0.0227724
0.0177014
0.0123082
0.00714051
0.00242581
-0.00120735
-0.00301056
-0.0029439
-0.00187192
-0.000718918
8.63786e-05
0.00050584
0.000658877
0.000676403
0.000649296
0.00061388
0.000581507
0.000549346
0.000518865
0.000478653
0.000422728
0.000360326
0.00030485
0.000246277
0.000189918
0.000134286
8.05318e-05
2.63058e-05
-2.50027e-05
-5.68206e-05
-8.92287e-05
-7.01782e-05
-8.48384e-05
0.0244591
0.0246382
0.0221265
0.0175769
0.0124115
0.00748306
0.00308874
-0.000361328
-0.00227365
-0.00248768
-0.0016392
-0.000586162
0.000188898
0.000597452
0.000740064
0.000746426
0.000708315
0.000662786
0.000622258
0.000583647
0.000547825
0.000503138
0.000443853
0.000378595
0.00032058
0.0002598
0.000201645
0.000144537
8.94106e-05
3.40486e-05
-1.84111e-05
-5.11239e-05
-8.42719e-05
-6.6893e-05
-8.09177e-05
0.0228902
0.0232406
0.0213395
0.0173865
0.0125466
0.00785189
0.00372344
0.000447563
-0.00153131
-0.00199388
-0.0013761
-0.000439685
0.000299377
0.000699719
0.00083478
0.000830027
0.000779148
0.000721632
0.000671589
0.000625804
0.000583835
0.000534072
0.000470946
0.000402507
0.000341301
0.000277788
0.000217173
0.000158191
0.000101174
4.44331e-05
-9.63084e-06
-4.35949e-05
-7.77094e-05
-6.29544e-05
-7.54302e-05
0.0214762
0.0219457
0.0205065
0.0171382
0.0126946
0.00824095
0.00433001
0.00120969
-0.000798007
-0.00146906
-0.00107944
-0.00027629
0.000417024
0.000809452
0.000940221
0.000925209
0.000860012
0.000788385
0.000727178
0.000673399
0.000624654
0.00056952
0.000502245
0.000430626
0.000365884
0.000299525
0.000235942
0.000174914
0.000115513
5.73979e-05
1.31761e-06
-3.4117e-05
-6.9479e-05
-5.81465e-05
-6.84013e-05
0.0202437
0.0208191
0.0197127
0.0168471
0.0128269
0.00863183
0.00491025
0.00192836
-8.03645e-05
-0.000918783
-0.00074618
-9.04781e-05
0.000543694
0.000925007
0.00105429
0.00103105
0.000950757
0.000862822
0.000788427
0.00072553
0.00066938
0.000608557
0.000536791
0.00046192
0.000393369
0.00032411
0.000257204
0.000194024
0.000131831
7.23942e-05
1.40417e-05
-2.29939e-05
-5.98443e-05
-5.24561e-05
-6.04104e-05
0.0191947
0.0198813
0.0189977
0.0165308
0.012923
0.00900758
0.00546726
0.00261124
0.000618314
-0.00035167
-0.000378356
0.000121277
0.000681846
0.00104541
0.00117493
0.00114677
0.00105184
0.000945692
0.000855793
0.000782278
0.000717923
0.000650966
0.000574371
0.000496074
0.000423439
0.000351105
0.000280606
0.000215087
0.000149828
8.8944e-05
2.82243e-05
-1.06498e-05
-4.91088e-05
-4.60575e-05
-5.21758e-05
0.0182683
0.0190804
0.0183682
0.0162074
0.0129739
0.00935122
0.00599539
0.00325677
0.0012907
0.000220327
1.65733e-05
0.000359938
0.000834346
0.00117092
0.00130026
0.00127087
0.00116312
0.00103762
0.00092988
0.000843925
0.000770331
0.000696695
0.00061498
0.000533038
0.000456068
0.000380377
0.000306069
0.000237924
0.000169458
0.000106814
4.37477e-05
2.63675e-06
-3.74461e-05
-3.91105e-05
-4.41445e-05
0.0173958
0.0183545
0.0178088
0.0158928
0.0129806
0.00964825
0.00648432
0.00386023
0.00193105
0.00078881
0.000432208
0.000625773
0.00100523
0.00130385
0.00142929
0.00140127
0.00128368
0.00113894
0.00101144
0.000911057
0.000826923
0.00074587
0.000658696
0.00057285
0.000491335
0.000411947
0.000333655
0.000262519
0.000190773
0.000125949
6.06028e-05
1.67689e-05
-2.49417e-05
-3.16698e-05
-3.64983e-05
0.016548
0.0176735
0.0173045
0.0156
0.0129584
0.00989623
0.00692825
0.00442032
0.00253767
0.00134909
0.00086422
0.000918006
0.00119796
0.00144762
0.0015618
0.00153612
0.0014125
0.00125016
0.00110167
0.00098472
0.000888351
0.000798772
0.000705643
0.000615597
0.000529396
0.000445951
0.000363521
0.000288974
0.000213884
0.000146409
7.88223e-05
3.17748e-05
-1.16464e-05
-2.37096e-05
-2.92819e-05
0.0157251
0.0170326
0.0168498
0.0153395
0.0129256
0.0101019
0.0073253
0.00493614
0.00310789
0.00189598
0.00130757
0.00123338
0.00141355
0.00160552
0.00169928
0.00167463
0.00154866
0.00137129
0.00120131
0.00106574
0.000955235
0.000855714
0.000755986
0.000661396
0.000570409
0.000482543
0.000395826
0.00031742
0.000238897
0.000168299
9.84405e-05
4.77406e-05
2.39595e-06
-1.51804e-05
-2.24949e-05
0.0149406
0.0164367
0.0164411
0.0151124
0.0128908
0.0102717
0.00767454
0.00540526
0.00363713
0.00242185
0.00175552
0.00156716
0.00165112
0.00178082
0.00184505
0.00181669
0.00169037
0.00150094
0.00131021
0.00115473
0.00102833
0.000917194
0.000809958
0.000710319
0.000614427
0.000521807
0.000430691
0.000348002
0.000265909
0.000191737
0.000119472
6.4759e-05
1.71453e-05
-6.04543e-06
-1.61188e-05
0.014202
0.0158841
0.0160686
0.0149099
0.0128557
0.0104114
0.00797699
0.00582583
0.00412156
0.00291826
0.00220021
0.00191521
0.00190898
0.00197539
0.00200198
0.00196205
0.00183556
0.00163747
0.00142799
0.0012523
0.00110851
0.000983821
0.000867768
0.000762389
0.00066146
0.000563825
0.000468218
0.000380869
0.000295007
0.000216853
0.000141936
8.29217e-05
3.25764e-05
3.70777e-06
-1.01225e-05
0.0135045
0.0153659
0.0157219
0.0147247
0.0128213
0.0105267
0.00823566
0.00619717
0.00455898
0.00337848
0.00263345
0.00227309
0.00218387
0.00218808
0.00217208
0.0021122
0.00198359
0.0017799
0.00155407
0.00135846
0.00119625
0.00105613
0.000929734
0.000817767
0.000711594
0.00060871
0.000508489
0.000416169
0.000326282
0.000243787
0.00016586
0.000102309
4.86855e-05
1.40746e-05
-4.45586e-06
0.012843
0.0148777
0.0153982
0.0145539
0.0127881
0.0106216
0.00845423
0.00651993
0.00494936
0.00379952
0.00304714
0.00263406
0.00247169
0.00241665
0.00235728
0.00227043
0.00213484
0.00192704
0.00168705
0.00147245
0.00129173
0.0011349
0.000996556
0.000876832
0.000764907
0.0006565
0.000551538
0.000454045
0.000359837
0.000272691
0.000191303
0.000122999
6.54972e-05
2.50403e-05
9.90482e-07
0.0122219
0.0144215
0.0150969
0.0143939
0.0127536
0.0106978
0.00863546
0.00679563
0.00529382
0.0041807
0.00343392
0.0029895
0.00276835
0.00265875
0.00255778
0.00243918
0.00228979
0.00207736
0.00182552
0.00159349
0.00139506
0.00122072
0.00106867
0.00093976
0.0008214
0.000707208
0.000597375
0.00049459
0.000395734
0.000303653
0.000218307
0.000145026
8.30373e-05
3.6557e-05
6.24142e-06
0.0116465
0.013997
0.0148141
0.0142391
0.0127132
0.0107552
0.00878225
0.00702773
0.00559438
0.00452244
0.00378956
0.00333138
0.00306888
0.0029113
0.00277138
0.0026194
0.0024498
0.0022305
0.00196876
0.00172067
0.0015055
0.00131354
0.00114632
0.0010069
0.000881343
0.000760962
0.000645963
0.00053779
0.000434007
0.000336758
0.000246931
0.000168409
0.000101338
4.85821e-05
1.13386e-05
0.0111128
0.0135981
0.0145432
0.0140843
0.0126624
0.0107938
0.00889952
0.00722121
0.00585331
0.00482525
0.0041127
0.003653
0.0033662
0.00317024
0.00299471
0.00281063
0.00261672
0.00238706
0.00211605
0.00185267
0.00162175
0.00141317
0.00123008
0.00107877
0.000944922
0.000817752
0.000697258
0.00058367
0.000474716
0.000372078
0.000277257
0.000193185
0.000120465
6.11055e-05
1.64515e-05
0.0106112
0.0132187
0.01428
0.0139274
0.0126008
0.0108154
0.00899144
0.00737885
0.00607083
0.00508787
0.00440171
0.00394929
0.0036524
0.00343023
0.0032241
0.00301107
0.0027914
0.00254727
0.00226635
0.00198834
0.00174252
0.00151886
0.00131982
0.00115534
0.00101214
0.000877621
0.00075126
0.000632141
0.000517777
0.00040954
0.000309294
0.000219333
0.000140426
7.40608e-05
2.1477e-05
0.0101419
0.0128612
0.0140277
0.0137715
0.012531
0.0108211
0.00905984
0.00750269
0.00624864
0.00531151
0.00465718
0.00421899
0.0039215
0.0036855
0.00345636
0.00321815
0.00297304
0.00271109
0.00241908
0.00212729
0.00186707
0.00162945
0.00141495
0.00123666
0.00108334
0.000940751
0.000807875
0.000683031
0.000563135
0.000449143
0.00034306
0.000246819
0.000161244
8.74563e-05
2.6469e-05
0.00971025
0.0125301
0.0137897
0.0136182
0.0124529
0.0108091
0.00910385
0.00759555
0.006391
0.00549956
0.00488013
0.00446141
0.00416942
0.00392989
0.0036872
0.00342826
0.00315965
0.00287883
0.00257458
0.00226911
0.00199438
0.00174371
0.00151485
0.00132264
0.00115846
0.00100711
0.000867137
0.000736361
0.000610744
0.000490783
0.000378542
0.000275677
0.00018297
0.000101328
3.16219e-05
0.00931069
0.0122202
0.0135612
0.0134626
0.0123624
0.0107768
0.00912351
0.0076613
0.00650185
0.00565348
0.00506912
0.00467421
0.00439346
0.00415785
0.00391081
0.00363705
0.00334835
0.00304963
0.00273223
0.00241236
0.0021229
0.00186033
0.00161855
0.00141252
0.00123705
0.00107658
0.000928978
0.000791851
0.000660322
0.000534279
0.000415637
0.000305794
0.000205529
0.000115638
3.67733e-05
0.00893625
0.0119258
0.0133389
0.013304
0.0122614
0.0107284
0.00912342
0.00770373
0.00658322
0.00577322
0.00522326
0.00485593
0.0045921
0.00436548
0.00412144
0.00384027
0.00353581
0.00322061
0.00289029
0.00255648
0.00225222
0.00197819
0.00172452
0.0015052
0.00131861
0.00114887
0.000993112
0.000849277
0.000711703
0.00057941
0.000454104
0.000337019
0.000228869
0.000130395
4.20504e-05
0.00858868
0.0116492
0.0131263
0.0131477
0.0121555
0.0106684
0.00910504
0.00772207
0.00663525
0.00586025
0.00534464
0.00500725
0.00476451
0.00455057
0.00431456
0.00403363
0.00371883
0.00338859
0.00304666
0.00270079
0.00238158
0.00209571
0.00183124
0.00159972
0.00140239
0.00122343
0.00105929
0.000908424
0.000764515
0.000625842
0.00049376
0.000369256
0.000252877
0.000145529
4.76747e-05
0.00827171
0.0113941
0.0129261
0.0129951
0.0120447
0.0105953
0.00906664
0.00771632
0.00666116
0.00591935
0.00543703
0.00512941
0.00490955
0.00471091
0.00448618
0.0042118
0.00389311
0.00355074
0.00319891
0.00284288
0.00250899
0.00221154
0.00193779
0.00169494
0.00148712
0.00129938
0.00112697
0.000968794
0.000818369
0.000673233
0.000534218
0.000402124
0.000277357
0.000160852
5.33448e-05
0.00798432
0.011159
0.0127365
0.012844
0.0119275
0.0105096
0.00901139
0.00769119
0.00666554
0.0059535
0.00550112
0.00522144
0.00502535
0.00484487
0.00463422
0.00437002
0.00405343
0.00370411
0.00334433
0.00298
0.00263327
0.00232467
0.00204247
0.00178926
0.00157169
0.00137591
0.00119561
0.00102997
0.000872927
0.000721091
0.000575074
0.000435299
0.000302148
0.000176123
5.82959e-05
0.00771979
0.0109387
0.0125539
0.0126936
0.0118055
0.0104146
0.0089425
0.00764799
0.00664714
0.00596004
0.00553396
0.00528108
0.00511077
0.004952
0.00475808
0.00450557
0.00419518
0.00384456
0.00347886
0.00310884
0.00275301
0.00243346
0.00214335
0.00188196
0.00165558
0.00145231
0.00126482
0.00109186
0.000928077
0.000769547
0.000616438
0.000468856
0.000327308
0.000191712
6.21509e-05
0.0074662
0.0107245
0.012374
0.0125426
0.0116786
0.010309
0.00885674
0.00758161
0.00660062
0.00593484
0.00553268
0.00530581
0.00516191
0.0050263
0.00485104
0.00461276
0.00431215
0.00396559
0.00359743
0.00322469
0.00286393
0.00253521
0.00223836
0.00197113
0.00173701
0.00152727
0.00133392
0.0011545
0.000984102
0.00081907
0.000658823
0.000503667
0.000353756
0.000209614
7.25732e-05
0.00689156
0.0102387
0.0119653
0.0121932
0.0113725
0.0100367
0.00861518
0.00737151
0.00642544
0.00580039
0.00544673
0.00527363
0.0051846
0.00510096
0.00497275
0.00477573
0.00450692
0.00417904
0.00381482
0.00344043
0.00307449
0.00273235
0.00242332
0.0021463
0.00189939
0.0016784
0.00147488
0.00128324
0.00109997
0.000921726
0.000746702
0.000575182
0.000407408
0.00024328
8.26395e-05
0.00712111
0.0103681
0.0119841
0.0121011
0.011182
0.00976989
0.00829868
0.00703124
0.00608528
0.00548164
0.00516646
0.00504368
0.00500999
0.0049802
0.00489968
0.00474312
0.00450786
0.0042076
0.0038655
0.00350723
0.00315398
0.00282094
0.00251681
0.00224319
0.00199799
0.00177597
0.00156967
0.00137315
0.00118225
0.000993705
0.000806278
0.000620087
0.000436037
0.00025525
7.95474e-05
0.00566643
0.00889616
0.0105567
0.0107721
0.00998342
0.00870988
0.00736836
0.00621377
0.00536037
0.00482499
0.00455254
0.00445227
0.00443258
0.00442017
0.0043667
0.00424928
0.00406732
0.00383423
0.00356768
0.00328504
0.00300301
0.00273488
0.00248476
0.00225186
0.00203575
0.00183282
0.00163771
0.00144698
0.00125842
0.00107031
0.000881715
0.00069218
0.000501161
0.000307445
0.000109173
0.00443562
0.00100878
-0.000832796
-0.00121598
-0.000588038
0.000525075
0.00169964
0.0026751
0.00333392
0.00365664
0.00369661
0.00354466
0.00329472
0.00302309
0.00278063
0.00259152
0.00245751
0.00236686
0.00230298
0.00224862
0.00218698
0.00210633
0.00200442
0.00188219
0.00174069
0.00158531
0.00142258
0.00125558
0.00108685
0.000918632
0.000751009
0.000583392
0.000415493
0.000247168
7.90655e-05
0.00326742
-0.000191301
-0.0020121
-0.00232677
-0.00160415
-0.0003953
0.000861194
0.00190094
0.00260594
0.00295593
0.00300629
0.00285406
0.00260249
0.0023358
0.00210838
0.00194622
0.00185333
0.00181731
0.00181635
0.00182703
0.00182963
0.00181059
0.00176306
0.00168579
0.00158255
0.00145947
0.00132258
0.00117754
0.00102887
0.000878739
0.000727757
0.000575434
0.000420098
0.000259644
9.20249e-05
0.00402547
0.000437791
-0.00153127
-0.00200365
-0.0014319
-0.000352686
0.000801756
0.00176653
0.00242102
0.00274089
0.00277494
0.00261339
0.00235358
0.00207599
0.00183426
0.00165555
0.00154613
0.00149653
0.00148805
0.00149922
0.00151101
0.00150906
0.00148456
0.00143438
0.0013596
0.00126371
0.00115197
0.00102993
0.000901705
0.000769997
0.000636431
0.000501076
0.000363135
0.000221637
7.55507e-05
0.0036608
5.99084e-05
-0.00192129
-0.00240478
-0.00184291
-0.000772002
0.000375978
0.0013362
0.00198795
0.00230678
0.00234119
0.00218105
0.00192343
0.0016487
0.00141062
0.00123667
0.00113346
0.00109198
0.00109399
0.00111837
0.0011461
0.00116283
0.00115982
0.00113345
0.00108415
0.00101504
0.000930638
0.000835435
0.000733293
0.000626963
0.000517965
0.00040681
0.000293442
0.000177493
5.87836e-05
0.00361618
1.71724e-05
-0.0019655
-0.00245329
-0.00189769
-0.000834194
0.000305839
0.00125802
0.00190192
0.00221322
0.00224049
0.00207361
0.0018097
0.00152921
0.001286
0.00110756
0.00100058
0.000956205
0.000956383
0.000980184
0.0010087
0.00102779
0.00102885
0.00100834
0.000966687
0.000906938
0.000833354
0.000750236
0.000661165
0.000568506
0.000473407
0.000375971
0.000275451
0.00017063
6.01805e-05
0.00344446
-0.000156845
-0.00214209
-0.00263287
-0.00208068
-0.00102089
0.000115304
0.00106365
0.00170382
0.00201157
0.00203554
0.00186571
0.00159923
0.00131663
0.00107178
0.000892282
0.000784916
0.000740928
0.000742339
0.000768327
0.000800103
0.000823602
0.000830301
0.000816723
0.000783333
0.000733168
0.000670488
0.000599575
0.000523962
0.000446062
0.000367156
0.000287571
0.000207058
0.000125164
4.16049e-05
0.00326918
-0.000330808
-0.00231476
-0.00280431
-0.00225095
-0.00119
-5.25665e-05
0.000897175
0.00153893
0.00184848
0.00187447
0.00170685
0.00144276
0.0011627
0.000920573
0.000743994
0.000639785
0.000599224
0.000604384
0.00063451
0.000670879
0.000699481
0.000711862
0.000704633
0.000678326
0.000636033
0.000582045
0.000520642
0.000455328
0.000388432
0.000321073
0.000253338
0.000184595
0.000113828
4.00302e-05
0.00312234
-0.000476027
-0.00245874
-0.0029473
-0.00239304
-0.00133116
-0.000192718
0.000758129
0.00140109
0.00171193
0.00173925
0.00157301
0.00131036
0.00103182
0.000791326
0.000616526
0.00051428
0.000475921
0.000483577
0.000516535
0.000556103
0.000588314
0.000604739
0.000601979
0.000580577
0.000543655
0.000495541
0.000440573
0.000382325
0.000323213
0.000264471
0.000206348
0.000148438
9.0065e-05
3.06667e-05
0.00299443
-0.000602903
-0.00258471
-0.00307247
-0.00251744
-0.00145476
-0.000315441
0.000636377
0.00128042
0.00159245
0.00162106
0.00145622
0.00119505
0.000918104
0.000679328
0.000506394
0.00040618
0.000370054
0.000380173
0.000415849
0.000458415
0.000493933
0.000514018
0.000515316
0.000498414
0.000466486
0.000423907
0.000375061
0.000323561
0.000271859
0.000221213
0.000171865
0.000123378
7.50009e-05
2.60533e-05
0.00288984
-0.000706875
-0.00268798
-0.00317496
-0.00261907
-0.00155548
-0.000415192
0.000537673
0.00118284
0.00149607
0.00152598
0.00136251
0.00110281
0.000827441
0.00059035
0.000419226
0.000320967
0.000286956
0.000299368
0.000337538
0.00038282
0.000421298
0.000444605
0.000449417
0.000436338
0.000408564
0.000370483
0.000326493
0.000280217
0.000234114
0.000189445
0.00014646
0.000104724
6.34946e-05
2.2114e-05
0.00281537
-0.000780843
-0.00276141
-0.00324781
-0.0026913
-0.00162704
-0.000486016
0.000467641
0.00111366
0.00142782
0.00145871
0.00129628
0.00103769
0.000763498
0.00052766
0.000357875
0.000261051
0.000228582
0.000242658
0.000282626
0.000329853
0.000370436
0.000396018
0.000403284
0.000392857
0.000367943
0.000332943
0.00029227
0.000249565
0.000207302
0.000166758
0.0001282
9.12166e-05
5.50943e-05
1.92141e-05
0.00277556
-0.000819991
-0.00280005
-0.00328608
-0.00272931
-0.00166482
-0.000523572
0.000430348
0.00107669
0.00139122
0.00142257
0.00126068
0.00100268
0.00072914
0.000494009
0.000324981
0.000228958
0.000197337
0.000212314
0.000253244
0.000301499
0.000343186
0.00036996
0.000378521
0.000369495
0.000346099
0.000312746
0.000273856
0.000233077
0.000192889
0.000154578
0.00011842
8.40115e-05
5.0648e-05
1.77189e-05
0.0125473
0.0104545
0.0103265
0.0101492
0.0102332
0.00983402
0.010109
0.00995399
0.0100569
0.0104473
0.0108467
0.0112877
0.0118665
0.0128322
0.0141655
0.0160019
0.0182838
0.021178
0.0248016
0.0289979
0.0125525
0.0104433
0.0103325
0.0101282
0.0102417
0.00981619
0.0101221
0.00992524
0.0100731
0.0103906
0.0108666
0.0111959
0.0118918
0.0127835
0.0141865
0.0159318
0.0182475
0.0208804
0.0240828
0.0273609
0.0125532
0.0104295
0.0103383
0.0101077
0.0102477
0.00979721
0.0101325
0.00989603
0.0100878
0.0103362
0.0108796
0.0111281
0.0119037
0.0127408
0.0141737
0.015838
0.0180677
0.0203754
0.0230462
0.0256373
0.0125481
0.010415
0.0103445
0.0100871
0.0102494
0.00978073
0.0101399
0.00987166
0.0100964
0.0102975
0.0108668
0.0110909
0.0118649
0.0127157
0.0140916
0.015694
0.0177088
0.0197211
0.0218921
0.0240591
0.0125391
0.0104007
0.0103512
0.0100671
0.0102485
0.00976957
0.0101415
0.00985837
0.0100884
0.010279
0.01082
0.0110721
0.0117857
0.0126638
0.0139424
0.0154569
0.0172334
0.0189601
0.0207426
0.0226123
0.0125279
0.010388
0.0103573
0.0100505
0.0102433
0.00976634
0.0101319
0.00985992
0.0100569
0.0102826
0.0107467
0.0110467
0.0116894
0.0125566
0.0137173
0.0151003
0.0166471
0.0181382
0.0196385
0.0212571
0.0125146
0.0103789
0.0103608
0.0100391
0.0102297
0.00977313
0.0101072
0.00987713
0.0100018
0.0102833
0.0106731
0.0109995
0.0115779
0.0123903
0.0134055
0.014599
0.0159284
0.01725
0.0186131
0.0199713
0.0124986
0.010375
0.0103596
0.010034
0.0102054
0.00978982
0.0100681
0.00989873
0.00994854
0.0102659
0.0106116
0.0109254
0.011448
0.0121753
0.0130246
0.014021
0.015151
0.0162147
0.0173237
0.018704
0.0124783
0.0103792
0.0103517
0.0100365
0.0101685
0.00981458
0.010019
0.00991269
0.00990886
0.0102315
0.0105562
0.0108308
0.0112876
0.011915
0.0125707
0.0132917
0.0141201
0.0150108
0.0160779
0.0175307
0.0124515
0.0103947
0.0103358
0.0100471
0.0101191
0.00984294
0.00996979
0.00991564
0.00988332
0.0101843
0.0104908
0.0107124
0.0110538
0.0115064
0.0119661
0.0124764
0.0130947
0.0138541
0.0148961
0.0164544
0.0124161
0.0104244
0.0103116
0.0100659
0.0100618
0.00986458
0.00993509
0.00990649
0.00986
0.0101222
0.0103855
0.0105046
0.0107141
0.0110311
0.0113315
0.011654
0.0121012
0.0127587
0.0137906
0.0154388
0.01237
0.010471
0.0102802
0.0100827
0.0100069
0.0098682
0.0099225
0.00988881
0.00982857
0.0100142
0.0102013
0.010242
0.0103366
0.0105231
0.0106844
0.0108448
0.0111404
0.0117026
0.0127207
0.0144496
0.0123115
0.0105366
0.0102455
0.0100915
0.00996663
0.00985124
0.00990152
0.00985452
0.00974273
0.00985758
0.00998818
0.00995761
0.00993688
0.00999474
0.0100282
0.010042
0.0101935
0.0106624
0.0116671
0.0134779
0.0122391
0.0106197
0.0102191
0.0100856
0.00994302
0.00982345
0.00984455
0.00977017
0.00962958
0.00968223
0.00975345
0.00965624
0.009523
0.00944532
0.00934898
0.00922894
0.00924937
0.00963417
0.0106343
0.0125346
0.0121538
0.0107087
0.0102128
0.0100708
0.00991401
0.00977568
0.00976255
0.0096688
0.00950058
0.00948885
0.00949832
0.00933503
0.00909076
0.00886965
0.00863822
0.00839963
0.00831286
0.00863152
0.00963909
0.0116345
0.0120552
0.0107952
0.0102374
0.0100514
0.0098713
0.00971131
0.00966331
0.00954763
0.00935377
0.0092794
0.00921987
0.0089849
0.00862896
0.00826563
0.00790482
0.00756614
0.00739973
0.00767098
0.00869276
0.0107813
0.0119436
0.0108765
0.0102896
0.0100322
0.00981406
0.00962604
0.00954141
0.00940512
0.00918919
0.00905023
0.00891049
0.00859758
0.00813838
0.00764721
0.00716827
0.00674331
0.00651712
0.00675588
0.00779519
0.00997187
0.0118226
0.0109422
0.0103694
0.0100217
0.00974308
0.00951753
0.00939639
0.00924001
0.00900016
0.00879446
0.00857045
0.00817985
0.00762956
0.00702703
0.00643973
0.0059358
0.00566277
0.00588409
0.00694793
0.00921018
0.0117024
0.0109854
0.0104499
0.0100264
0.00966812
0.00938807
0.00922449
0.00904577
0.00878279
0.00851512
0.00820861
0.00774124
0.0071073
0.00640423
0.00572104
0.00514842
0.00484159
0.00506152
0.00615946
0.00850483
0.0115924
0.0110025
0.010507
0.0100468
0.00960071
0.00923867
0.00902153
0.00882112
0.00853888
0.00821505
0.00782712
0.0072826
0.00657154
0.00578089
0.00501884
0.00439247
0.00406411
0.00429343
0.00543081
0.00785413
0.0114948
0.0109927
0.010531
0.0100754
0.00954888
0.00908294
0.00879932
0.00857282
0.0082692
0.00789131
0.00742472
0.00680579
0.0060273
0.00516747
0.0043438
0.00367584
0.0033325
0.00357416
0.00475107
0.00724656
0.0114101
0.0109826
0.0105266
0.0100376
0.00946564
0.0089335
0.00859213
0.00832409
0.00798422
0.00754954
0.00700968
0.00632157
0.00548391
0.00457273
0.0037016
0.00300018
0.00264521
0.00289966
0.00411525
0.00667901
0.0113435
0.0109832
0.0104988
0.00991585
0.00931446
0.00878856
0.00840643
0.00808012
0.00768875
0.00719629
0.00658856
0.00583584
0.00494973
0.00399953
0.00309282
0.00236631
0.00200444
0.00227379
0.00352783
0.00615644
0.0112942
0.0109603
0.0104101
0.00977979
0.00916708
0.00863846
0.0082174
0.00783192
0.0073837
0.00683293
0.00616265
0.00535382
0.00442647
0.00344655
0.00251575
0.00177352
0.00141039
0.0016964
0.00298701
0.00567493
0.0112342
0.0109076
0.0103203
0.00965094
0.00901346
0.00846671
0.0080085
0.00756997
0.00706911
0.006462
0.00573515
0.00487894
0.00391778
0.00291576
0.00197023
0.00122015
0.000859977
0.00116292
0.00248683
0.00522753
0.0111604
0.0108402
0.0102271
0.00951669
0.00884506
0.00827034
0.00777773
0.0072948
0.00674676
0.00608994
0.00531217
0.00441756
0.00343065
0.00241293
0.00145921
0.000706955
0.000352877
0.000672793
0.0020272
0.00481506
0.011075
0.0107558
0.0101177
0.0093689
0.00866135
0.00805583
0.00753094
0.00701001
0.00642177
0.00572356
0.00490355
0.00397693
0.00297022
0.00194179
0.000984601
0.000234839
-0.00010999
0.00022766
0.00161061
0.00444081
0.0109754
0.010652
0.00998923
0.00920569
0.00846461
0.00783022
0.00727651
0.00672315
0.00610064
0.0053688
0.00451637
0.00356265
0.00253905
0.00150221
0.000543726
-0.000200694
-0.000533141
-0.00017603
0.00123453
0.00410319
0.010858
0.0105265
0.00983974
0.00902544
0.00825621
0.00759789
0.00702087
0.00644235
0.00579214
0.00503394
0.00415735
0.00318172
0.00214294
0.00109745
0.000135787
-0.000606197
-0.000926471
-0.000547984
0.000890119
0.00379448
0.0107185
0.0103792
0.0096669
0.00882629
0.00803653
0.00736202
0.00676921
0.00617515
0.00550729
0.00473021
0.00383709
0.00284592
0.00179477
0.000741318
-0.00022386
-0.000964561
-0.0012806
-0.000890755
0.000570668
0.00350428
0.0103233
0.0099673
0.00920678
0.00831691
0.00749604
0.00680435
0.00619783
0.00559323
0.00491521
0.00412333
0.00321319
0.00220424
0.00113734
7.30588e-05
-0.00089981
-0.00164858
-0.00197526
-0.00159342
-0.000125169
0.00285197
0.00932361
0.00898597
0.00827443
0.00745283
0.00671537
0.0061172
0.005608
0.00510695
0.00454945
0.00389742
0.00313623
0.00227167
0.00133055
0.000363965
-0.000543649
-0.00125914
-0.00158029
-0.00121586
0.000217834
0.00314979
0.00825808
0.00809056
0.0075948
0.00702266
0.0065306
0.00612963
0.00573764
0.00526511
0.00465054
0.00387484
0.00294929
0.0019039
0.000783493
-0.000349437
-0.00140883
-0.00225841
-0.00269908
-0.00244036
-0.00109716
0.00175998
0.00463001
0.00476048
0.00519238
0.00568309
0.00607932
0.00637041
0.00663871
0.00697632
0.00744249
0.0080584
0.00881719
0.00969272
0.010643
0.0116073
0.0125002
0.0131855
0.0134639
0.0130453
0.0115439
0.00852712
0.00371445
0.0040219
0.00467741
0.00542847
0.00608086
0.00656951
0.00693688
0.00726627
0.00763688
0.00810234
0.00868662
0.00938666
0.0101756
0.0110008
0.0117758
0.0123647
0.0125618
0.0120706
0.0105021
0.00742282
0.00269752
0.00308559
0.00388957
0.00483132
0.00569851
0.00641092
0.00700137
0.00755122
0.00813667
0.0088018
0.00955871
0.0103947
0.0112769
0.0121513
0.0129336
0.0134937
0.0136343
0.0130705
0.0114245
0.00827217
0.00220584
0.00264267
0.00351611
0.00454264
0.00549959
0.00629269
0.00694236
0.00752279
0.00810906
0.00875202
0.00947288
0.0102668
0.0111064
0.011941
0.0126881
0.0132181
0.0133335
0.0127489
0.0110861
0.00792056
0.00181079
0.00226447
0.00316433
0.00422345
0.00521594
0.00604408
0.00672577
0.00733433
0.00794507
0.00860889
0.00934726
0.010156
0.0110085
0.0118543
0.0126108
0.0131483
0.0132697
0.01269
0.0110318
0.00787109
0.001514
0.00197728
0.00289275
0.00397147
0.00498541
0.0058347
0.00653557
0.00716028
0.00778368
0.00845668
0.00920098
0.0100125
0.010865
0.0117083
0.0124607
0.0129935
0.0131102
0.0125263
0.0108646
0.00770154
0.00127597
0.00174349
0.00266565
0.00375267
0.00477562
0.00563347
0.00634138
0.00697133
0.00759831
0.00827359
0.00901926
0.00983164
0.0106847
0.0115285
0.0122814
0.0128147
0.0129319
0.0123485
0.0106875
0.00752517
0.00107736
0.0015469
0.00247235
0.00356344
0.0045908
0.00545307
0.0061652
0.00679883
0.00742887
0.00810665
0.00885438
0.00966853
0.0105232
0.0113688
0.0121236
0.0126588
0.012778
0.0121964
0.0105372
0.00737653
0.000914355
0.00138505
0.00231245
0.00340594
0.00443589
0.0053008
0.00601554
0.00665178
0.00728437
0.00796459
0.00871459
0.00953079
0.0103873
0.0112343
0.0119903
0.0125265
0.0126465
0.0120658
0.0104073
0.0072476
0.000787101
0.00125866
0.00218747
0.00328269
0.00431452
0.00518133
0.00589792
0.00653592
0.00717017
0.0078519
0.00860325
0.00942065
0.0102782
0.0111261
0.0118829
0.0124197
0.0125403
0.01196
0.010302
0.00714258
0.000697041
0.00116913
0.00209885
0.00319518
0.0042282
0.0050962
0.00581396
0.00645307
0.00708837
0.00777107
0.00852331
0.00934152
0.0101998
0.0110484
0.0118058
0.0123432
0.0124642
0.0118844
0.0102267
0.00706769
0.00064848
0.00112071
0.00205062
0.00314725
0.0041807
0.00504926
0.00576762
0.00640735
0.00704323
0.00772647
0.0084792
0.00929785
0.0101565
0.0110055
0.0117632
0.012301
0.0124223
0.0118429
0.0101857
0.00702719
)
;

boundaryField
{
    top
    {
        type            zeroGradient;
    }
    inlet
    {
        type            zeroGradient;
    }
    outlet
    {
        type            fixedValue;
        value           uniform 0;
    }
    plate
    {
        type            zeroGradient;
    }
    symmBound
    {
        type            zeroGradient;
    }
    frontAndBack
    {
        type            empty;
    }
}


// ************************************************************************* //
