/*--------------------------------*- C++ -*----------------------------------*\
| =========                 |                                                 |
| \\      /  F ield         | OpenFOAM: The Open Source CFD Toolbox           |
|  \\    /   O peration     | Version:  5.x                                   |
|   \\  /    A nd           | Web:      www.OpenFOAM.org                      |
|    \\/     M anipulation  |                                                 |
\*---------------------------------------------------------------------------*/
FoamFile
{
    version     2.0;
    format      ascii;
    class       volVectorField;
    location    "0.4";
    object      U;
}
// * * * * * * * * * * * * * * * * * * * * * * * * * * * * * * * * * * * * * //

dimensions      [0 1 -1 0 0 0 0];

internalField   nonuniform List<vector> 
2475
(
(0.911928 0.01087 0)
(0.814166 0.0144179 0)
(0.713863 0.0139956 0)
(0.609994 0.0126834 0)
(0.504453 0.0112621 0)
(0.4027 0.00905681 0)
(0.317358 0.00555735 0)
(0.259998 0.00184249 0)
(0.226836 -0.000116798 0)
(0.206435 -0.000513202 0)
(0.192522 -0.000402591 0)
(0.18227 -0.000218928 0)
(0.173578 -4.84065e-05 0)
(0.165667 6.73539e-05 0)
(0.158008 0.0001249 0)
(0.150865 0.000142295 0)
(0.144033 0.00013714 0)
(0.137902 0.000125017 0)
(0.132046 0.000110598 0)
(0.126902 9.83255e-05 0)
(0.12185 8.61582e-05 0)
(0.117485 7.75881e-05 0)
(0.112974 6.94432e-05 0)
(0.109197 6.28937e-05 0)
(0.105069 5.55778e-05 0)
(0.101825 5.10599e-05 0)
(0.0979591 4.51844e-05 0)
(0.0952154 4.17754e-05 0)
(0.091491 3.68876e-05 0)
(0.0892576 3.4775e-05 0)
(0.085513 3.05894e-05 0)
(0.0838602 2.91597e-05 0)
(0.0798779 2.57779e-05 0)
(0.0789752 2.47801e-05 0)
(0.0743621 2.47498e-05 0)
(0.967604 0.0194998 0)
(0.959726 0.0273558 0)
(0.945152 0.0285119 0)
(0.921149 0.0278278 0)
(0.88624 0.0268837 0)
(0.840981 0.0249093 0)
(0.789399 0.0207996 0)
(0.73849 0.0148442 0)
(0.692183 0.00948015 0)
(0.649666 0.00611587 0)
(0.610031 0.0041804 0)
(0.574335 0.00308776 0)
(0.542129 0.00245249 0)
(0.513699 0.00205545 0)
(0.487793 0.00176739 0)
(0.464831 0.00153462 0)
(0.443488 0.00132834 0)
(0.424615 0.00115667 0)
(0.406585 0.00100465 0)
(0.390759 0.000883903 0)
(0.375129 0.000775676 0)
(0.361644 0.000694774 0)
(0.347692 0.000617932 0)
(0.33609 0.000558404 0)
(0.323355 0.000495289 0)
(0.313398 0.00045245 0)
(0.301478 0.000400951 0)
(0.293069 0.000369957 0)
(0.28159 0.000326476 0)
(0.274768 0.000306711 0)
(0.26326 0.000268169 0)
(0.258235 0.000257582 0)
(0.246043 0.000222294 0)
(0.243307 0.000220568 0)
(0.229388 0.000198925 0)
(0.972297 0.0182846 0)
(0.972616 0.026268 0)
(0.974896 0.0290147 0)
(0.976297 0.0294237 0)
(0.974061 0.0294057 0)
(0.967051 0.0286402 0)
(0.954484 0.0257461 0)
(0.937679 0.0207343 0)
(0.917652 0.015617 0)
(0.895675 0.0121833 0)
(0.871252 0.0101341 0)
(0.846406 0.00879695 0)
(0.820528 0.00771663 0)
(0.795338 0.00677158 0)
(0.769435 0.00591908 0)
(0.74477 0.00516937 0)
(0.719464 0.00449344 0)
(0.695976 0.00392572 0)
(0.671691 0.00342096 0)
(0.649757 0.00300687 0)
(0.626784 0.0026335 0)
(0.606828 0.00234405 0)
(0.585296 0.00207234 0)
(0.567559 0.00186403 0)
(0.547363 0.00165211 0)
(0.53184 0.00150444 0)
(0.512545 0.00133301 0)
(0.499225 0.00122759 0)
(0.480342 0.00108302 0)
(0.469426 0.00101544 0)
(0.450325 0.000886632 0)
(0.442238 0.000852324 0)
(0.42194 0.000731238 0)
(0.417484 0.000728997 0)
(0.394492 0.000636668 0)
(0.97753 0.0171834 0)
(0.977471 0.0240016 0)
(0.980193 0.0274705 0)
(0.985011 0.0283454 0)
(0.989209 0.0283868 0)
(0.992658 0.0278705 0)
(0.993634 0.0257019 0)
(0.992744 0.0217191 0)
(0.98813 0.0172882 0)
(0.981666 0.0141385 0)
(0.97198 0.0123728 0)
(0.962033 0.011313 0)
(0.949766 0.0104208 0)
(0.938007 0.00958243 0)
(0.923702 0.00875435 0)
(0.910239 0.00799383 0)
(0.893885 0.00725587 0)
(0.878929 0.00661886 0)
(0.860693 0.00600922 0)
(0.844492 0.00548836 0)
(0.824508 0.004964 0)
(0.807511 0.00453383 0)
(0.786159 0.00408343 0)
(0.769237 0.00372526 0)
(0.747193 0.00333917 0)
(0.731224 0.00306934 0)
(0.708653 0.00274328 0)
(0.694118 0.00254276 0)
(0.670771 0.00225529 0)
(0.658324 0.00212108 0)
(0.633862 0.00185851 0)
(0.624401 0.00179006 0)
(0.597911 0.00153926 0)
(0.592568 0.00153437 0)
(0.562485 0.00132542 0)
(0.98233 0.0167895 0)
(0.982211 0.0224024 0)
(0.98398 0.0262013 0)
(0.988772 0.0274806 0)
(0.993226 0.0274283 0)
(0.998336 0.0267572 0)
(1.00148 0.0248414 0)
(1.00476 0.0214945 0)
(1.00466 0.0175939 0)
(1.00419 0.014631 0)
(1.00033 0.0129458 0)
(0.997728 0.0120355 0)
(0.992485 0.0113079 0)
(0.989339 0.0106268 0)
(0.983008 0.00990202 0)
(0.979022 0.00924181 0)
(0.971068 0.00857413 0)
(0.965924 0.00802587 0)
(0.956023 0.00747761 0)
(0.949527 0.00703809 0)
(0.937259 0.00655259 0)
(0.929183 0.00617826 0)
(0.914166 0.00571967 0)
(0.90471 0.00536113 0)
(0.887202 0.00490766 0)
(0.877237 0.00461006 0)
(0.857584 0.00419748 0)
(0.847705 0.00397082 0)
(0.825552 0.00357872 0)
(0.816262 0.00341476 0)
(0.791404 0.00302679 0)
(0.783946 0.00294233 0)
(0.755907 0.00255747 0)
(0.751545 0.00255682 0)
(0.719195 0.00221833 0)
(0.986301 0.0167651 0)
(0.986373 0.0212984 0)
(0.987291 0.0249994 0)
(0.991829 0.026593 0)
(0.995698 0.0265391 0)
(1.00111 0.0257195 0)
(1.00397 0.0239497 0)
(1.00811 0.0210972 0)
(1.0086 0.0176535 0)
(1.01002 0.014849 0)
(1.00745 0.013137 0)
(1.00741 0.0122493 0)
(1.00408 0.0115799 0)
(1.00441 0.0109816 0)
(1.00089 0.0102927 0)
(1.00143 0.00967544 0)
(0.997177 0.0090285 0)
(0.99755 0.00853763 0)
(0.992199 0.00803032 0)
(0.9922 0.00767458 0)
(0.985309 0.00724961 0)
(0.984556 0.00698065 0)
(0.975456 0.00658337 0)
(0.973622 0.0063114 0)
(0.961995 0.00587451 0)
(0.959467 0.00562845 0)
(0.945514 0.00520295 0)
(0.942736 0.0050302 0)
(0.925994 0.00462027 0)
(0.922781 0.0045023 0)
(0.902596 0.00405802 0)
(0.89975 0.0040041 0)
(0.876025 0.0035451 0)
(0.874317 0.00356981 0)
(0.84644 0.00315543 0)
(0.989308 0.0170048 0)
(0.989593 0.0205815 0)
(0.989841 0.023771 0)
(0.994114 0.0254756 0)
(0.997334 0.0255082 0)
(1.00288 0.0246611 0)
(1.00529 0.0230388 0)
(1.0097 0.0206223 0)
(1.01005 0.0176091 0)
(1.01223 0.0149895 0)
(1.00987 0.0132372 0)
(1.01074 0.0123182 0)
(1.0077 0.0116518 0)
(1.00915 0.0110997 0)
(1.00623 0.0104203 0)
(1.00831 0.00981347 0)
(1.00512 0.00915013 0)
(1.0075 0.00867435 0)
(1.00376 0.00816885 0)
(1.00635 0.0078543 0)
(1.00183 0.00745556 0)
(1.00442 0.00725618 0)
(0.99866 0.006906 0)
(1.0009 0.00671202 0)
(0.993469 0.00630535 0)
(0.995425 0.00611409 0)
(0.986454 0.00569686 0)
(0.988399 0.00557977 0)
(0.977681 0.00519894 0)
(0.979129 0.00515573 0)
(0.965675 0.00472382 0)
(0.966643 0.00471517 0)
(0.950666 0.00426279 0)
(0.951291 0.00431733 0)
(0.932442 0.00391746 0)
(0.991328 0.0174327 0)
(0.991679 0.0201626 0)
(0.991534 0.022695 0)
(0.995462 0.0243366 0)
(0.99819 0.0245089 0)
(1.00362 0.0237372 0)
(1.00583 0.0222557 0)
(1.01021 0.0201761 0)
(1.01059 0.0175284 0)
(1.01306 0.0151047 0)
(1.01102 0.0133322 0)
(1.01216 0.0123604 0)
(1.0094 0.0116719 0)
(1.01101 0.0111498 0)
(1.00848 0.0104855 0)
(1.01072 0.00988293 0)
(1.00811 0.00919767 0)
(1.01069 0.0087138 0)
(1.00777 0.00819572 0)
(1.01062 0.00789056 0)
(1.00732 0.00749716 0)
(1.01037 0.00732531 0)
(1.00651 0.00699918 0)
(1.00958 0.00684427 0)
(1.00488 0.0064597 0)
(1.00788 0.00629105 0)
(1.0025 0.00588477 0)
(1.00557 0.00578219 0)
(0.99957 0.00543436 0)
(1.00242 0.00544042 0)
(0.994916 0.00505528 0)
(0.997058 0.00506223 0)
(0.988463 0.00466213 0)
(0.989829 0.00472434 0)
(0.979833 0.00439466 0)
(0.992726 0.0175503 0)
(0.992902 0.0196603 0)
(0.992689 0.0216243 0)
(0.996118 0.0230996 0)
(0.9986 0.0234067 0)
(1.00361 0.0227763 0)
(1.00587 0.0214456 0)
(1.00993 0.0196431 0)
(1.0106 0.0173252 0)
(1.01295 0.0151171 0)
(1.01152 0.0133794 0)
(1.01251 0.0123649 0)
(1.01036 0.0116497 0)
(1.01161 0.011147 0)
(1.00973 0.0105139 0)
(1.0115 0.00992246 0)
(1.00966 0.00922828 0)
(1.01165 0.00872796 0)
(1.00965 0.00820039 0)
(1.01176 0.00789013 0)
(1.00958 0.00750055 0)
(1.01183 0.00733341 0)
(1.00946 0.00702244 0)
(1.01177 0.00687733 0)
(1.00909 0.00651174 0)
(1.01134 0.00633947 0)
(1.00849 0.00594836 0)
(1.0107 0.00583158 0)
(1.00778 0.00550608 0)
(1.00998 0.00552722 0)
(1.00645 0.00519431 0)
(1.00804 0.00518432 0)
(1.00433 0.00484003 0)
(1.00535 0.00488793 0)
(1.00113 0.00463125 0)
(0.993842 0.0172651 0)
(0.993646 0.0190145 0)
(0.99357 0.0205587 0)
(0.996407 0.0218082 0)
(0.998843 0.0221982 0)
(1.00322 0.0217396 0)
(1.0057 0.0205836 0)
(1.00924 0.0190304 0)
(1.01035 0.0170251 0)
(1.01234 0.0150376 0)
(1.01164 0.0133783 0)
(1.01228 0.0123377 0)
(1.01085 0.0115919 0)
(1.01156 0.0110914 0)
(1.0104 0.0104955 0)
(1.0115 0.00992459 0)
(1.01049 0.00923865 0)
(1.01172 0.00872439 0)
(1.01064 0.00819376 0)
(1.01186 0.00787509 0)
(1.01069 0.00749116 0)
(1.01196 0.00731986 0)
(1.01077 0.00702045 0)
(1.01209 0.00687162 0)
(1.01084 0.00652455 0)
(1.01207 0.00634049 0)
(1.01083 0.00596737 0)
(1.01195 0.0058332 0)
(1.01074 0.00552049 0)
(1.01192 0.0055379 0)
(1.01054 0.00524879 0)
(1.01132 0.00520986 0)
(1.01002 0.00490751 0)
(1.01054 0.00493377 0)
(1.00907 0.00472988 0)
(0.994842 0.0167967 0)
(0.994221 0.0183305 0)
(0.9943 0.0195915 0)
(0.996585 0.0206181 0)
(0.999037 0.0210249 0)
(1.00277 0.0207283 0)
(1.00544 0.0197587 0)
(1.00849 0.018429 0)
(1.00996 0.0167085 0)
(1.01161 0.0149304 0)
(1.01152 0.0133649 0)
(1.01185 0.0123143 0)
(1.01102 0.0115362 0)
(1.01128 0.0110174 0)
(1.01069 0.0104533 0)
(1.01125 0.00991188 0)
(1.01084 0.00924756 0)
(1.0115 0.00872542 0)
(1.01108 0.0081916 0)
(1.01168 0.00786254 0)
(1.01118 0.0074807 0)
(1.01179 0.00730147 0)
(1.01134 0.00700964 0)
(1.01198 0.00685306 0)
(1.01156 0.00652158 0)
(1.01213 0.00632711 0)
(1.01173 0.00597023 0)
(1.0122 0.00582499 0)
(1.01178 0.00552062 0)
(1.01231 0.00552669 0)
(1.01187 0.00527039 0)
(1.01219 0.0052045 0)
(1.01183 0.00493242 0)
(1.01206 0.00493823 0)
(1.01161 0.00476922 0)
(0.995762 0.0163116 0)
(0.994771 0.0176794 0)
(0.994905 0.0187392 0)
(0.996764 0.0195719 0)
(0.999182 0.0199347 0)
(1.00241 0.0197543 0)
(1.00514 0.0189639 0)
(1.00781 0.0178318 0)
(1.0095 0.0163628 0)
(1.01092 0.0147873 0)
(1.01124 0.0133225 0)
(1.01142 0.0122808 0)
(1.01099 0.011481 0)
(1.011 0.010935 0)
(1.01073 0.0103951 0)
(1.01098 0.00988958 0)
(1.01091 0.00925479 0)
(1.01127 0.00873083 0)
(1.0112 0.00819205 0)
(1.01149 0.00785182 0)
(1.01134 0.00746879 0)
(1.01162 0.00728055 0)
(1.01153 0.00699405 0)
(1.01185 0.00682982 0)
(1.01179 0.00651109 0)
(1.01207 0.00630945 0)
(1.01201 0.00596693 0)
(1.01221 0.00581479 0)
(1.0121 0.00551942 0)
(1.01234 0.00551007 0)
(1.01226 0.00527842 0)
(1.01241 0.00519082 0)
(1.01234 0.00494382 0)
(1.01245 0.00493149 0)
(1.01232 0.00478741 0)
(0.996598 0.0158372 0)
(0.995321 0.0170401 0)
(0.995394 0.017936 0)
(0.996949 0.0186025 0)
(0.999265 0.018897 0)
(1.00213 0.0187897 0)
(1.0048 0.0181633 0)
(1.00724 0.0172117 0)
(1.00899 0.0159658 0)
(1.0103 0.0145952 0)
(1.01085 0.0132399 0)
(1.01103 0.012226 0)
(1.01082 0.0114231 0)
(1.01076 0.0108514 0)
(1.01064 0.0103197 0)
(1.01076 0.00984502 0)
(1.01082 0.009243 0)
(1.01107 0.00872522 0)
(1.01115 0.00818656 0)
(1.01133 0.00783737 0)
(1.01134 0.00745353 0)
(1.0115 0.00725542 0)
(1.01155 0.00697367 0)
(1.01174 0.00680183 0)
(1.01182 0.00649471 0)
(1.01199 0.00628756 0)
(1.01205 0.00595968 0)
(1.01217 0.00580104 0)
(1.01217 0.00551818 0)
(1.01229 0.00549094 0)
(1.01234 0.00527952 0)
(1.01245 0.00517436 0)
(1.01246 0.00495064 0)
(1.01252 0.00492194 0)
(1.01249 0.00479772 0)
(0.997343 0.0153303 0)
(0.995838 0.0163658 0)
(0.995777 0.017124 0)
(0.99711 0.0176635 0)
(0.999291 0.0178984 0)
(1.00191 0.0178376 0)
(1.00445 0.0173505 0)
(1.00672 0.0165668 0)
(1.00846 0.0155154 0)
(1.00972 0.0143476 0)
(1.0104 0.0131172 0)
(1.01065 0.012145 0)
(1.01057 0.0113543 0)
(1.01052 0.0107623 0)
(1.01048 0.0102227 0)
(1.01055 0.00977197 0)
(1.01066 0.00921039 0)
(1.01087 0.00870937 0)
(1.01103 0.00817947 0)
(1.01118 0.00782191 0)
(1.01126 0.00743675 0)
(1.01138 0.00722513 0)
(1.01149 0.00694802 0)
(1.01164 0.00676862 0)
(1.01176 0.00647442 0)
(1.01191 0.00626274 0)
(1.012 0.00595113 0)
(1.0121 0.00578453 0)
(1.01214 0.00551678 0)
(1.01223 0.00547024 0)
(1.01232 0.00527655 0)
(1.01241 0.00515712 0)
(1.01245 0.00495525 0)
(1.0125 0.00491217 0)
(1.01251 0.00480453 0)
(0.998004 0.0147571 0)
(0.996305 0.0156483 0)
(0.996088 0.0163 0)
(0.997241 0.0167548 0)
(0.999279 0.0169434 0)
(1.00171 0.0169107 0)
(1.00411 0.0165348 0)
(1.00625 0.0159033 0)
(1.00794 0.0150221 0)
(1.00917 0.0140425 0)
(1.00992 0.0129555 0)
(1.01024 0.012032 0)
(1.01027 0.0112613 0)
(1.01025 0.0106619 0)
(1.01027 0.0101122 0)
(1.01034 0.00967808 0)
(1.01045 0.00916166 0)
(1.01066 0.00868167 0)
(1.01086 0.00816635 0)
(1.01102 0.00780128 0)
(1.01114 0.00741638 0)
(1.01126 0.0071891 0)
(1.01139 0.00691765 0)
(1.01153 0.00673087 0)
(1.01167 0.00645074 0)
(1.01181 0.00623444 0)
(1.01192 0.00594028 0)
(1.01201 0.0057651 0)
(1.01207 0.00551392 0)
(1.01214 0.00544831 0)
(1.01226 0.0052703 0)
(1.01234 0.0051393 0)
(1.0124 0.00495719 0)
(1.01244 0.00490228 0)
(1.01247 0.0048086 0)
(0.9986 0.0141523 0)
(0.996724 0.0149296 0)
(0.99635 0.015494 0)
(0.997339 0.0158857 0)
(0.999239 0.0160358 0)
(1.00152 0.0160172 0)
(1.00378 0.0157296 0)
(1.00581 0.0152294 0)
(1.00745 0.0145027 0)
(1.00864 0.0136863 0)
(1.00941 0.0127518 0)
(1.00981 0.0118895 0)
(1.00992 0.0111477 0)
(1.00995 0.0105583 0)
(1.01002 0.0100058 0)
(1.0101 0.0095736 0)
(1.01022 0.0090976 0)
(1.01043 0.00863898 0)
(1.01066 0.00814297 0)
(1.01083 0.00777473 0)
(1.01098 0.00739441 0)
(1.01111 0.00715121 0)
(1.01126 0.00688468 0)
(1.0114 0.00668955 0)
(1.01155 0.00642355 0)
(1.01169 0.00620358 0)
(1.0118 0.00592745 0)
(1.01189 0.00574445 0)
(1.01197 0.00550913 0)
(1.01203 0.00542552 0)
(1.01217 0.00526072 0)
(1.01225 0.00512157 0)
(1.01232 0.00495642 0)
(1.01236 0.00489285 0)
(1.0124 0.00481035 0)
(0.999147 0.0135452 0)
(0.997102 0.0142255 0)
(0.996573 0.0147104 0)
(0.997408 0.0150482 0)
(0.999178 0.0151739 0)
(1.00133 0.0151616 0)
(1.00348 0.0149463 0)
(1.0054 0.0145562 0)
(1.00698 0.0139694 0)
(1.00813 0.0132881 0)
(1.00891 0.0124997 0)
(1.00935 0.0117192 0)
(1.00954 0.0110144 0)
(1.00962 0.0104431 0)
(1.00973 0.00989698 0)
(1.00984 0.00945523 0)
(1.00997 0.0090125 0)
(1.01018 0.00857982 0)
(1.01043 0.00810961 0)
(1.01062 0.0077448 0)
(1.01079 0.00737309 0)
(1.01093 0.0071137 0)
(1.01111 0.00684936 0)
(1.01124 0.00664513 0)
(1.0114 0.00639256 0)
(1.01154 0.0061711 0)
(1.01167 0.00591276 0)
(1.01176 0.00572396 0)
(1.01185 0.00550313 0)
(1.01191 0.00540389 0)
(1.01205 0.0052493 0)
(1.01213 0.00510498 0)
(1.01221 0.00495364 0)
(1.01225 0.00488443 0)
(1.01231 0.00481082 0)
(0.999645 0.0129271 0)
(0.997436 0.0135142 0)
(0.996759 0.0139293 0)
(0.997454 0.0142202 0)
(0.999102 0.0143363 0)
(1.00115 0.0143278 0)
(1.0032 0.0141725 0)
(1.00502 0.0138752 0)
(1.00654 0.01341 0)
(1.00765 0.0128454 0)
(1.00842 0.0121875 0)
(1.00889 0.0115062 0)
(1.00914 0.010849 0)
(1.00927 0.0102984 0)
(1.00941 0.00977207 0)
(1.00955 0.00932217 0)
(1.0097 0.00890396 0)
(1.00991 0.00849964 0)
(1.01018 0.0080571 0)
(1.01038 0.00769798 0)
(1.01058 0.00733733 0)
(1.01074 0.00706408 0)
(1.01093 0.00680261 0)
(1.01107 0.00659224 0)
(1.01124 0.00635271 0)
(1.01137 0.00613161 0)
(1.01151 0.00588977 0)
(1.0116 0.00569763 0)
(1.0117 0.00548975 0)
(1.01177 0.00537756 0)
(1.01192 0.00523132 0)
(1.01199 0.00508502 0)
(1.01209 0.00494534 0)
(1.01213 0.00487278 0)
(1.01221 0.00480709 0)
(1.0001 0.0123061 0)
(0.997737 0.012809 0)
(0.996924 0.0131726 0)
(0.997494 0.0134264 0)
(0.999029 0.0135437 0)
(1.00098 0.0135457 0)
(1.00295 0.013437 0)
(1.00469 0.0132163 0)
(1.00613 0.0128501 0)
(1.00721 0.0123896 0)
(1.00796 0.0118414 0)
(1.00844 0.0112593 0)
(1.00873 0.0106633 0)
(1.00889 0.0101358 0)
(1.00908 0.00963863 0)
(1.00925 0.00918924 0)
(1.00942 0.00878613 0)
(1.00963 0.00840774 0)
(1.00991 0.00799237 0)
(1.01014 0.00764201 0)
(1.01036 0.00729804 0)
(1.01053 0.00701763 0)
(1.01074 0.00675794 0)
(1.01088 0.0065417 0)
(1.01106 0.00631096 0)
(1.01119 0.00609131 0)
(1.01134 0.00586416 0)
(1.01143 0.00567226 0)
(1.01155 0.00547572 0)
(1.01161 0.00535377 0)
(1.01178 0.0052127 0)
(1.01184 0.00506686 0)
(1.01196 0.00493579 0)
(1.01199 0.00486234 0)
(1.01209 0.00480233 0)
(1.00051 0.0116665 0)
(0.998022 0.0121008 0)
(0.997085 0.0124263 0)
(0.997541 0.0126534 0)
(0.998974 0.0127731 0)
(1.00084 0.0127911 0)
(1.00274 0.0127132 0)
(1.00439 0.0125527 0)
(1.00578 0.0122684 0)
(1.0068 0.0119013 0)
(1.00754 0.01145 0)
(1.00801 0.0109587 0)
(1.00832 0.0104396 0)
(1.00852 0.00994418 0)
(1.00874 0.00948132 0)
(1.00894 0.00904589 0)
(1.00914 0.00865332 0)
(1.00935 0.00829619 0)
(1.00965 0.00790833 0)
(1.00989 0.00756941 0)
(1.01013 0.00724544 0)
(1.01032 0.00696402 0)
(1.01055 0.00670455 0)
(1.01069 0.00648457 0)
(1.01089 0.00626222 0)
(1.01101 0.00604757 0)
(1.01117 0.00583358 0)
(1.01126 0.00564393 0)
(1.0114 0.00545658 0)
(1.01146 0.00532811 0)
(1.01163 0.0051911 0)
(1.0117 0.00504792 0)
(1.01183 0.00492363 0)
(1.01186 0.00485065 0)
(1.01197 0.00479556 0)
(1.00091 0.0110299 0)
(0.9983 0.0114082 0)
(0.997252 0.0116988 0)
(0.997602 0.0119053 0)
(0.998944 0.0120209 0)
(1.00072 0.0120543 0)
(1.00256 0.0119987 0)
(1.00415 0.0118851 0)
(1.00547 0.011674 0)
(1.00645 0.0113874 0)
(1.00716 0.0110257 0)
(1.00762 0.0106123 0)
(1.00794 0.0101725 0)
(1.00816 0.00972109 0)
(1.00841 0.00929205 0)
(1.00863 0.00887929 0)
(1.00887 0.0084976 0)
(1.00909 0.00815821 0)
(1.0094 0.00780007 0)
(1.00966 0.00747474 0)
(1.00992 0.0071709 0)
(1.01011 0.00689508 0)
(1.01037 0.00663876 0)
(1.01051 0.00641882 0)
(1.01071 0.00620364 0)
(1.01084 0.00599356 0)
(1.01101 0.00579069 0)
(1.0111 0.00560558 0)
(1.01126 0.00542797 0)
(1.01132 0.00529576 0)
(1.0115 0.00516238 0)
(1.01156 0.00502247 0)
(1.0117 0.0049045 0)
(1.01173 0.00483276 0)
(1.01186 0.00478285 0)
(1.00129 0.0104419 0)
(0.998572 0.010768 0)
(0.997423 0.0110204 0)
(0.997675 0.0112055 0)
(0.998933 0.0113126 0)
(1.00063 0.0113574 0)
(1.00241 0.011325 0)
(1.00395 0.0112476 0)
(1.00522 0.0110998 0)
(1.00615 0.0108779 0)
(1.00683 0.0105937 0)
(1.00727 0.0102475 0)
(1.00759 0.00987839 0)
(1.00782 0.00948336 0)
(1.00809 0.00908918 0)
(1.00833 0.00870477 0)
(1.0086 0.00834069 0)
(1.00883 0.00801791 0)
(1.00916 0.00768749 0)
(1.00943 0.00737617 0)
(1.00971 0.00708956 0)
(1.00992 0.00682419 0)
(1.01019 0.00657329 0)
(1.01034 0.00635558 0)
(1.01055 0.00614586 0)
(1.01068 0.00594137 0)
(1.01086 0.00574858 0)
(1.01095 0.00556987 0)
(1.01112 0.00539994 0)
(1.01119 0.00526609 0)
(1.01137 0.00513552 0)
(1.01143 0.00500049 0)
(1.01159 0.00488712 0)
(1.01162 0.00481741 0)
(1.01176 0.00477064 0)
(1.00165 0.0098446 0)
(0.998834 0.0101241 0)
(0.997595 0.0103418 0)
(0.997761 0.0105082 0)
(0.998947 0.0106126 0)
(1.00058 0.0106681 0)
(1.00231 0.0106643 0)
(1.00379 0.0106158 0)
(1.00502 0.0105183 0)
(1.0059 0.0103499 0)
(1.00654 0.0101305 0)
(1.00696 0.00984978 0)
(1.00728 0.00954181 0)
(1.00751 0.009208 0)
(1.00779 0.00885444 0)
(1.00804 0.00850239 0)
(1.00834 0.00816307 0)
(1.00859 0.00785624 0)
(1.00893 0.00754927 0)
(1.00921 0.00725369 0)
(1.00952 0.00698601 0)
(1.00973 0.00673651 0)
(1.01002 0.00649386 0)
(1.01018 0.00628091 0)
(1.0104 0.0060783 0)
(1.01053 0.00588112 0)
(1.01073 0.00569696 0)
(1.01082 0.00552471 0)
(1.011 0.0053628 0)
(1.01107 0.00523023 0)
(1.01127 0.00510337 0)
(1.01132 0.00497291 0)
(1.01149 0.00486368 0)
(1.01152 0.00479684 0)
(1.01168 0.00475338 0)
(1.002 0.00923764 0)
(0.999092 0.00948035 0)
(0.997774 0.0096741 0)
(0.997868 0.00982652 0)
(0.99899 0.00993307 0)
(1.00057 0.00999668 0)
(1.00224 0.0100169 0)
(1.00368 0.00998938 0)
(1.00486 0.0099274 0)
(1.0057 0.00980574 0)
(1.00631 0.00964084 0)
(1.00669 0.00942303 0)
(1.00701 0.00916855 0)
(1.00722 0.00889158 0)
(1.00751 0.00858536 0)
(1.00777 0.00826919 0)
(1.0081 0.00795904 0)
(1.00836 0.00767154 0)
(1.00872 0.00738928 0)
(1.00902 0.0071121 0)
(1.00934 0.00686387 0)
(1.00956 0.00663178 0)
(1.00987 0.00639961 0)
(1.01003 0.00619428 0)
(1.01027 0.00600031 0)
(1.0104 0.00581075 0)
(1.01061 0.00563519 0)
(1.0107 0.00547101 0)
(1.0109 0.00531807 0)
(1.01096 0.00518733 0)
(1.01117 0.00506461 0)
(1.01122 0.00493965 0)
(1.01142 0.00483543 0)
(1.01144 0.00477125 0)
(1.01162 0.00473084 0)
(1.00232 0.00866007 0)
(0.999331 0.00887096 0)
(0.997944 0.00904458 0)
(0.997973 0.00918187 0)
(0.999039 0.00928577 0)
(1.00056 0.00935101 0)
(1.00219 0.00938413 0)
(1.00359 0.00937489 0)
(1.00473 0.00934018 0)
(1.00552 0.00926162 0)
(1.00611 0.00914323 0)
(1.00646 0.00898114 0)
(1.00676 0.00877652 0)
(1.00696 0.00854984 0)
(1.00725 0.0082933 0)
(1.00751 0.00801683 0)
(1.00786 0.00773683 0)
(1.00814 0.00747254 0)
(1.00851 0.00721806 0)
(1.00881 0.00695977 0)
(1.00916 0.0067268 0)
(1.00938 0.00651276 0)
(1.00971 0.0062949 0)
(1.00988 0.00610122 0)
(1.01013 0.0059168 0)
(1.01026 0.00573663 0)
(1.01049 0.00556962 0)
(1.01058 0.00541387 0)
(1.01079 0.00526855 0)
(1.01086 0.00514234 0)
(1.01108 0.00502448 0)
(1.01113 0.00490594 0)
(1.01134 0.00480511 0)
(1.01136 0.00474516 0)
(1.01156 0.00470651 0)
(1.0026 0.00810069 0)
(0.999539 0.00828106 0)
(0.99809 0.00843298 0)
(0.998061 0.00855444 0)
(0.999078 0.00865138 0)
(1.00055 0.00871786 0)
(1.00214 0.00876076 0)
(1.0035 0.00877267 0)
(1.00461 0.00876178 0)
(1.00537 0.00871925 0)
(1.00592 0.00863814 0)
(1.00624 0.0085207 0)
(1.00652 0.00836166 0)
(1.00671 0.0081788 0)
(1.00699 0.00796951 0)
(1.00725 0.00773552 0)
(1.00761 0.0074875 0)
(1.0079 0.0072483 0)
(1.00828 0.0070229 0)
(1.0086 0.00678622 0)
(1.00897 0.00656963 0)
(1.0092 0.0063767 0)
(1.00954 0.00617521 0)
(1.00972 0.00599353 0)
(1.00998 0.00581969 0)
(1.01012 0.00565097 0)
(1.01036 0.00549254 0)
(1.01045 0.0053459 0)
(1.01067 0.00520969 0)
(1.01074 0.0050895 0)
(1.01098 0.0049764 0)
(1.01102 0.00486472 0)
(1.01125 0.00476798 0)
(1.01127 0.00471284 0)
(1.01149 0.00467612 0)
(1.00283 0.00754801 0)
(0.999712 0.007701 0)
(0.99821 0.00783234 0)
(0.998132 0.00794126 0)
(0.999109 0.00803203 0)
(1.00054 0.00810228 0)
(1.0021 0.00815356 0)
(1.00343 0.00818323 0)
(1.00451 0.00818944 0)
(1.00523 0.00817196 0)
(1.00575 0.00812008 0)
(1.00603 0.00803857 0)
(1.0063 0.00792135 0)
(1.00647 0.00777883 0)
(1.00674 0.00761385 0)
(1.00698 0.00742236 0)
(1.00735 0.00721263 0)
(1.00765 0.00700009 0)
(1.00805 0.00680217 0)
(1.00837 0.00659079 0)
(1.00877 0.00639271 0)
(1.009 0.00621983 0)
(1.00935 0.00603563 0)
(1.00954 0.00586679 0)
(1.00982 0.00570724 0)
(1.00995 0.0055508 0)
(1.01021 0.00540274 0)
(1.0103 0.00526488 0)
(1.01054 0.00513848 0)
(1.01061 0.00502352 0)
(1.01086 0.00491845 0)
(1.0109 0.00481301 0)
(1.01115 0.00472266 0)
(1.01117 0.00467011 0)
(1.01141 0.00463865 0)
(1.00303 0.00700274 0)
(0.99985 0.00713339 0)
(0.998305 0.00724876 0)
(0.998187 0.00734772 0)
(0.999133 0.00743372 0)
(1.00053 0.00750537 0)
(1.00206 0.00756129 0)
(1.00335 0.00760133 0)
(1.00441 0.00762068 0)
(1.0051 0.00762282 0)
(1.00559 0.0075989 0)
(1.00584 0.00754979 0)
(1.00609 0.00747296 0)
(1.00623 0.00736613 0)
(1.00649 0.00724121 0)
(1.00672 0.0070858 0)
(1.00709 0.00691946 0)
(1.0074 0.00673403 0)
(1.00781 0.00656353 0)
(1.00813 0.0063809 0)
(1.00855 0.00620305 0)
(1.00879 0.00604555 0)
(1.00915 0.00588475 0)
(1.00935 0.00572869 0)
(1.00964 0.00558489 0)
(1.00977 0.00543863 0)
(1.01005 0.00530344 0)
(1.01013 0.00517161 0)
(1.01039 0.00505815 0)
(1.01046 0.00494649 0)
(1.01072 0.00485208 0)
(1.01076 0.004749 0)
(1.01103 0.00466817 0)
(1.01105 0.00461503 0)
(1.01131 0.00459171 0)
(1.00318 0.00644663 0)
(0.999958 0.00656331 0)
(0.998377 0.00666472 0)
(0.998224 0.00675762 0)
(0.999144 0.0068361 0)
(1.00051 0.00690927 0)
(1.00202 0.00696593 0)
(1.00328 0.00701716 0)
(1.00432 0.00704896 0)
(1.00498 0.00707335 0)
(1.00544 0.0070749 0)
(1.00567 0.00705862 0)
(1.00589 0.00701623 0)
(1.00601 0.00694473 0)
(1.00625 0.00685514 0)
(1.00647 0.00673673 0)
(1.00683 0.00660901 0)
(1.00714 0.00645932 0)
(1.00756 0.00631291 0)
(1.00788 0.00616786 0)
(1.00831 0.00600793 0)
(1.00856 0.00587172 0)
(1.00894 0.00573079 0)
(1.00914 0.00559383 0)
(1.00944 0.00545836 0)
(1.00958 0.00533128 0)
(1.00986 0.00520197 0)
(1.00995 0.00508389 0)
(1.01022 0.00497286 0)
(1.01029 0.00487349 0)
(1.01057 0.00477761 0)
(1.01061 0.00468739 0)
(1.01089 0.00460173 0)
(1.01091 0.00455952 0)
(1.0112 0.00452462 0)
(1.0033 0.00584708 0)
(1.00004 0.00595369 0)
(0.998424 0.00604377 0)
(0.998238 0.00613055 0)
(0.999137 0.00620272 0)
(1.00048 0.00627647 0)
(1.00197 0.00633635 0)
(1.00321 0.00639771 0)
(1.00423 0.00644418 0)
(1.00486 0.00648715 0)
(1.00531 0.00651287 0)
(1.0055 0.00652337 0)
(1.0057 0.00651404 0)
(1.0058 0.0064789 0)
(1.00603 0.00642908 0)
(1.00622 0.00635233 0)
(1.00658 0.00626391 0)
(1.00688 0.00615592 0)
(1.00731 0.00604051 0)
(1.00762 0.00593218 0)
(1.00807 0.00580333 0)
(1.00832 0.0056934 0)
(1.00871 0.0055785 0)
(1.0089 0.00546744 0)
(1.00923 0.00535156 0)
(1.00936 0.00524777 0)
(1.00966 0.00513466 0)
(1.00974 0.00503421 0)
(1.01004 0.00493569 0)
(1.01009 0.00485054 0)
(1.01039 0.00476385 0)
(1.01043 0.00468594 0)
(1.01073 0.00460551 0)
(1.01075 0.0045723 0)
(1.01106 0.00453769 0)
(1.0035 0.00447854 0)
(1.00014 0.00452043 0)
(0.998457 0.00456103 0)
(0.998207 0.00460603 0)
(0.999066 0.00465328 0)
(1.00037 0.0047069 0)
(1.00183 0.0047629 0)
(1.00304 0.00482134 0)
(1.00402 0.0048798 0)
(1.00461 0.00493291 0)
(1.00501 0.00498291 0)
(1.00514 0.00501663 0)
(1.00529 0.00504488 0)
(1.00533 0.00504923 0)
(1.00552 0.00504954 0)
(1.00567 0.0050243 0)
(1.006 0.00499605 0)
(1.00627 0.00494695 0)
(1.00671 0.00489711 0)
(1.00702 0.00484046 0)
(1.00747 0.00478065 0)
(1.00773 0.00471873 0)
(1.00814 0.00465973 0)
(1.00833 0.00459493 0)
(1.00869 0.00453102 0)
(1.00881 0.00446259 0)
(1.00914 0.0043988 0)
(1.00922 0.00432901 0)
(1.00954 0.00427624 0)
(1.0096 0.00421552 0)
(1.00993 0.00416976 0)
(1.00996 0.00410963 0)
(1.0103 0.00406562 0)
(1.01031 0.00404246 0)
(1.01067 0.00403807 0)
(1.00227 0.00319131 0)
(0.999007 0.0032597 0)
(0.997428 0.00333445 0)
(0.99729 0.00341925 0)
(0.998245 0.00350555 0)
(0.999627 0.003597 0)
(1.00113 0.00368642 0)
(1.00237 0.00377719 0)
(1.00335 0.00386453 0)
(1.00392 0.00394949 0)
(1.00428 0.00403171 0)
(1.00436 0.00410906 0)
(1.00445 0.00418581 0)
(1.00444 0.00425406 0)
(1.00458 0.00432215 0)
(1.00468 0.00437843 0)
(1.00499 0.0044339 0)
(1.00523 0.00447596 0)
(1.00565 0.00451258 0)
(1.00594 0.00453743 0)
(1.00637 0.00455306 0)
(1.00663 0.00456212 0)
(1.00703 0.00455593 0)
(1.00722 0.00454797 0)
(1.00757 0.00452446 0)
(1.0077 0.0044986 0)
(1.00802 0.00446687 0)
(1.00811 0.00443314 0)
(1.00844 0.00440439 0)
(1.00851 0.00437306 0)
(1.00884 0.00434313 0)
(1.0089 0.00430228 0)
(1.00925 0.00426156 0)
(1.00928 0.00425002 0)
(1.00964 0.00423816 0)
(1.0027 -0.0029588 0)
(0.999445 -0.00263685 0)
(0.99783 -0.00205366 0)
(0.997582 -0.00134487 0)
(0.998415 -0.000644171 0)
(0.999646 -3.29156e-05 0)
(1.00103 0.000444067 0)
(1.00214 0.000789271 0)
(1.00304 0.00102202 0)
(1.00353 0.00117947 0)
(1.00386 0.00130139 0)
(1.0039 0.00141808 0)
(1.00399 0.0015572 0)
(1.00394 0.00172031 0)
(1.00407 0.00191691 0)
(1.00412 0.00212577 0)
(1.00439 0.00234799 0)
(1.00454 0.00255748 0)
(1.0049 0.00275499 0)
(1.00509 0.00292456 0)
(1.00549 0.00306636 0)
(1.00565 0.0031817 0)
(1.00602 0.00326753 0)
(1.00614 0.00333621 0)
(1.0065 0.00338136 0)
(1.00657 0.00341762 0)
(1.00692 0.00344558 0)
(1.00697 0.00346727 0)
(1.00733 0.00349338 0)
(1.00736 0.0035117 0)
(1.00775 0.0035289 0)
(1.00776 0.00352824 0)
(1.00817 0.00352283 0)
(1.00816 0.00353453 0)
(1.0086 0.00353767 0)
(1.00029 -0.00349818 0)
(1.00368 -0.00319995 0)
(1.00554 -0.0026405 0)
(1.00589 -0.00195535 0)
(1.0053 -0.00127627 0)
(1.00416 -0.000684815 0)
(1.00302 -0.000224154 0)
(1.00202 0.000107611 0)
(1.0014 0.000330619 0)
(1.00105 0.000481458 0)
(1.00106 0.00059986 0)
(1.00116 0.000715085 0)
(1.00147 0.000854488 0)
(1.00169 0.00101906 0)
(1.002 0.00121893 0)
(1.00213 0.00143259 0)
(1.00233 0.00166228 0)
(1.00236 0.00188108 0)
(1.0025 0.00209194 0)
(1.00249 0.00227734 0)
(1.00264 0.00243929 0)
(1.00264 0.00257653 0)
(1.00284 0.00268823 0)
(1.00288 0.00278359 0)
(1.00313 0.00285841 0)
(1.00319 0.00292304 0)
(1.00347 0.00298043 0)
(1.00353 0.00302972 0)
(1.00383 0.00308311 0)
(1.00389 0.00312566 0)
(1.0042 0.00316655 0)
(1.00424 0.00318568 0)
(1.00457 0.00319873 0)
(1.0046 0.00322214 0)
(1.00495 0.0032344 0)
(1.00053 0.00115499 0)
(1.00395 0.0011816 0)
(1.0058 0.00121353 0)
(1.00608 0.00125459 0)
(1.00539 0.00129819 0)
(1.00415 0.00134879 0)
(1.00294 0.00140055 0)
(1.00186 0.00145814 0)
(1.0012 0.00151671 0)
(1.00081 0.00157946 0)
(1.00081 0.00164455 0)
(1.00091 0.00171254 0)
(1.00122 0.00178568 0)
(1.00144 0.00185932 0)
(1.00173 0.00194016 0)
(1.00183 0.0020187 0)
(1.00199 0.00210525 0)
(1.00196 0.0021873 0)
(1.00204 0.00227386 0)
(1.00196 0.00235639 0)
(1.00205 0.00243728 0)
(1.00198 0.00251695 0)
(1.00213 0.00258561 0)
(1.00211 0.00265442 0)
(1.00233 0.00270933 0)
(1.00235 0.00276063 0)
(1.00261 0.00280395 0)
(1.00264 0.00284315 0)
(1.00293 0.00288226 0)
(1.00295 0.00291433 0)
(1.00326 0.00294139 0)
(1.00326 0.00295159 0)
(1.0036 0.00295383 0)
(1.00359 0.00297139 0)
(1.00396 0.00297516 0)
(0.998734 0.000807839 0)
(1.00229 0.000796116 0)
(1.00428 0.000789058 0)
(1.00472 0.000790545 0)
(1.00418 0.000798727 0)
(1.00307 0.000816284 0)
(1.00196 0.000839996 0)
(1.00096 0.000870978 0)
(1.00035 0.000906801 0)
(0.999992 0.0009466 0)
(1 0.000990444 0)
(1.00012 0.00103475 0)
(1.00043 0.00108416 0)
(1.00067 0.00113152 0)
(1.00096 0.00118683 0)
(1.00109 0.00123886 0)
(1.00126 0.00130137 0)
(1.00125 0.0013609 0)
(1.00133 0.00143087 0)
(1.00126 0.00149961 0)
(1.00132 0.00157427 0)
(1.00125 0.00164964 0)
(1.00137 0.00172348 0)
(1.00134 0.00179723 0)
(1.00151 0.00186436 0)
(1.00151 0.00192703 0)
(1.00173 0.00198689 0)
(1.00176 0.00203904 0)
(1.00201 0.002095 0)
(1.00203 0.00214012 0)
(1.0023 0.00218472 0)
(1.00231 0.00220948 0)
(1.00259 0.00223138 0)
(1.0026 0.00225826 0)
(1.00291 0.00227451 0)
(0.998611 0.00106462 0)
(1.00219 0.0010821 0)
(1.00418 0.0010994 0)
(1.00464 0.0011205 0)
(1.0041 0.00114153 0)
(1.00301 0.00116675 0)
(1.00189 0.00119206 0)
(1.00091 0.00122131 0)
(1.00029 0.00125106 0)
(0.99994 0.00128368 0)
(0.99994 0.00131769 0)
(1.00007 0.00135271 0)
(1.00036 0.00139068 0)
(1.0006 0.00142739 0)