/*--------------------------------*- C++ -*----------------------------------*\
| =========                 |                                                 |
| \\      /  F ield         | OpenFOAM: The Open Source CFD Toolbox           |
|  \\    /   O peration     | Version:  5.x                                   |
|   \\  /    A nd           | Web:      www.OpenFOAM.org                      |
|    \\/     M anipulation  |                                                 |
\*---------------------------------------------------------------------------*/
FoamFile
{
    version     2.0;
    format      ascii;
    class       volScalarField;
    location    "0.4";
    object      p;
}
// * * * * * * * * * * * * * * * * * * * * * * * * * * * * * * * * * * * * * //

dimensions      [0 2 -2 0 0 0 0];

internalField   nonuniform List<scalar> 
21600
(
0.018247819
0.015791141
0.012437658
0.0096570895
0.0074626837
0.005529227
0.0037062587
0.0020645531
0.00077586705
-3.7598839e-05
-0.00038906333
-0.00039762073
-0.00021190441
4.7271184e-05
0.0003031765
0.00051678269
0.00067609684
0.00078525499
0.00085532437
0.00089822457
0.00092392126
0.00093968848
0.00095032034
0.00095867257
0.00096624467
0.00097367738
0.00098112425
0.0009885006
0.00099563727
0.0010023641
0.0010085468
0.0010140972
0.0010189704
0.001023157
0.0010266735
0.0010295538
0.0010318415
0.0010335844
0.0010348308
0.0010356263
0.0010360127
0.0010360272
0.0010357022
0.0010350656
0.0010341412
0.0010329494
0.0010315077
0.0010298311
0.0010279328
0.0010258244
0.0010235161
0.0010210175
0.0010183371
0.0010154829
0.0010124622
0.0010092819
0.0010059482
0.0010024672
0.00099884417
0.0009950845
0.00099119287
0.00098717379
0.00098303121
0.00097876901
0.00097439058
0.00096989927
0.00096529798
0.00096058955
0.00095577639
0.00095086089
0.00094584516
0.00094073126
0.00093552097
0.00093021601
0.00092481785
0.00091932791
0.00091374748
0.00090807769
0.00090231962
0.00089647411
0.00089054209
0.0008845242
0.00087842126
0.00087223365
0.00086596206
0.00085960665
0.000853168
0.00084664607
0.00084004134
0.00083335362
0.00082658322
0.0008197299
0.00081279381
0.00080577473
0.00079867253
0.00079148708
0.00078421787
0.00077686491
0.0007694272
0.00076190521
0.00075429726
0.00074660432
0.00073882418
0.00073095827
0.00072300352
0.00071496232
0.00070683046
0.00069861107
0.00069029943
0.00068189904
0.00067340449
0.00066482036
0.00065613992
0.00064736889
0.00063849978
0.00062953861
0.00062047774
0.0006113235
0.00060206766
0.00059271772
0.00058326413
0.00057371634
0.00056406299
0.00055431583
0.00054446164
0.00053451425
0.00052445893
0.00051431124
0.00050405543
0.00049370822
0.00048325378
0.00047270923
0.00046205982
0.00045132207
0.00044048371
0.00042955954
0.00041854101
0.00040744053
0.00039625366
0.00038499099
0.0003736511
0.00036224497
0.00035077145
0.00033924549
0.00032766283
0.00031604605
0.00030438549
0.00029271341
0.00028101438
0.00026932986
0.00025764034
0.00024599322
0.00023436871
0.00022281563
0.0002113187
0.00019992456
0.00018862608
0.00017746605
0.00016644648
0.00015560633
0.000144955
0.00013452895
0.00012434186
0.00011442916
0.00010480634
9.5507697e-05
8.6549578e-05
7.7962217e-05
6.976388e-05
6.1976033e-05
5.4622423e-05
4.7710442e-05
4.1274221e-05
3.5300138e-05
2.9834649e-05
2.4832245e-05
2.0350104e-05
1.6300132e-05
1.2750085e-05
9.5663573e-06
6.8341947e-06
4.3763446e-06
2.3084977e-06
4.0387141e-07
-1.176416e-06
-2.7229294e-06
-4.0095513e-06
-5.3944003e-06
-6.5495601e-06
-7.8905406e-06
-8.9300789e-06
-1.0141169e-05
-1.0833493e-05
-1.1580807e-05
-1.1487583e-05
-1.1324171e-05
-9.978016e-06
-8.5381931e-06
-5.548925e-06
-2.6321845e-06
0.015723906
0.014401535
0.011947637
0.0094684492
0.0073475835
0.0054998246
0.0037987325
0.0022715392
0.001051852
0.00024482342
-0.00014082471
-0.00019526406
-5.2855561e-05
0.00016880103
0.00039474431
0.00058572392
0.00072911477
0.00082767591
0.00089081556
0.00092909493
0.00095155089
0.00096487392
0.00097351657
0.0009801512
0.00098618884
0.00099223243
0.00099841872
0.0010046526
0.0010107561
0.0010165496
0.0010218886
0.0010266743
0.0010308523
0.0010344042
0.001037339
0.0010396838
0.0010414769
0.0010427614
0.0010435815
0.0010439798
0.0010439951
0.0010436623
0.0010430117
0.0010420693
0.0010408574
0.0010393949
0.001037698
0.0010357806
0.0010336546
0.0010313309
0.0010288188
0.001026127
0.0010232633
0.001020235
0.0010170488
0.0010137111
0.0010102275
0.0010066035
0.0010028442
0.00099895449
0.00099493861
0.00099080075
0.00098654456
0.0009821736
0.000977691
0.00097309985
0.00096840283
0.00096360253
0.00095870116
0.00095370093
0.00094860376
0.00094341155
0.00093812592
0.00093274843
0.00092728043
0.00092172319
0.00091607789
0.00091034555
0.00090452714
0.00089862337
0.00089263512
0.0008865629
0.00088040747
0.00087416911
0.00086784845
0.00086144555
0.00085496096
0.00084839456
0.00084174676
0.0008350173
0.00082820647
0.00082131395
0.00081433985
0.0008072839
0.00080014592
0.00079292575
0.00078562282
0.00077823713
0.0007707676
0.00076321471
0.0007555767
0.00074785456
0.00074004598
0.00073215245
0.00072417077
0.0007161034
0.00070794602
0.00069970179
0.00069136595
0.00068294197
0.00067442441
0.00066581786
0.00065711554
0.00064832314
0.00063943322
0.00063045167
0.00062137095
0.00061219726
0.00060292246
0.00059355394
0.00058408222
0.00057451664
0.00056484592
0.0005550817
0.00054521085
0.00053524708
0.00052517577
0.0005150123
0.00050474112
0.00049437867
0.00048390945
0.00047335016
0.00046268649
0.00045193445
0.00044108231
0.00043014426
0.00041911238
0.00040799841
0.00039679853
0.00038552276
0.00037417015
0.00036275128
0.00035126526
0.0003397269
0.00032813196
0.00031650304
0.00030483041
0.00029314638
0.00028143551
0.00026973917
0.00025803804
0.00024637919
0.0002347433
0.00022317856
0.00021167046
0.00020026475
0.00018895526
0.00017778377
0.00016675331
0.00015590183
0.00014523972
0.00013480251
0.00012460477
0.00011468109
0.00010504781
9.573839e-05
8.6770071e-05
7.8172164e-05
6.9963975e-05
6.2165873e-05
5.4802829e-05
4.7880938e-05
4.1435757e-05
3.5452194e-05
2.9978308e-05
2.4966996e-05
2.0477176e-05
1.6419062e-05
1.2862198e-05
9.6712276e-06
6.9332051e-06
4.4690403e-06
2.3963465e-06
4.8634659e-07
-1.0977118e-06
-2.6486033e-06
-3.9379277e-06
-5.3262185e-06
-6.483208e-06
-7.8270473e-06
-8.8679862e-06
-1.0081831e-05
-1.0775554e-05
-1.1525727e-05
-1.1433823e-05
-1.1273107e-05
-9.9275147e-06
-8.4898155e-06
-5.4991877e-06
-2.5841709e-06
0.01405456
0.013274577
0.011495764
0.0093525997
0.0073369437
0.0055694181
0.0040017672
0.002622967
0.0014969667
0.00069847291
0.00025208033
0.00010875224
0.00016857062
0.00032600225
0.00050306497
0.00066001365
0.00078227275
0.00086904141
0.00092603764
0.00096107835
0.00098156125
0.00099333604
0.001000481
0.0010055415
0.0010099232
0.001014276
0.0010187965
0.0010234399
0.0010280631
0.0010325039
0.0010366215
0.0010403125
0.0010435124
0.0010461915
0.0010483465
0.0010499928
0.0010511579
0.0010518756
0.0010521818
0.001052112
0.0010516992
0.0010509734
0.0010499606
0.0010486834
0.0010471612
0.0010454102
0.0010434445
0.0010412762
0.0010389157
0.0010363722
0.0010336539
0.0010307682
0.0010277221
0.0010245218
0.0010211733
0.0010176822
0.0010140535
0.001010292
0.0010064024
0.0010023888
0.00099825531
0.00099400553
0.00098964276
0.00098517021
0.00098059071
0.00097590705
0.00097112163
0.0009662368
0.00096125455
0.00095617687
0.00095100549
0.00094574211
0.00094038821
0.00093494516
0.00092941419
0.00092379641
0.00091809292
0.00091230456
0.00090643224
0.00090047653
0.00089443824
0.00088831775
0.00088211579
0.00087583251
0.0008694685
0.00086302372
0.00085649867
0.00084989315
0.00084320753
0.00083644149
0.00082959525
0.00082266845
0.00081566115
0.00080857305
0.0008014039
0.00079415353
0.00078682127
0.00077940718
0.00077191003
0.0007643304
0.00075666635
0.00074891899
0.00074108582
0.00073316849
0.00072516355
0.00071707367
0.0007088943
0.00070062875
0.00069227206
0.00068382788
0.00067529055
0.00066666482
0.00065794372
0.00064913308
0.0006402253
0.00063122639
0.00062212867
0.00061293844
0.00060364741
0.00059426311
0.00058477587
0.00057519521
0.00056550963
0.00055573098
0.00054584588
0.00053586828
0.00052578328
0.00051560651
0.00050532219
0.00049494691
0.00048446506
0.00047389333
0.00046321752
0.0004524534
0.00044158956
0.00043063974
0.00041959654
0.00040847111
0.00039726022
0.00038597331
0.0003746099
0.00036318023
0.00035168357
0.00034013472
0.00032852925
0.00031689011
0.00030520706
0.000293513
0.00028179186
0.00027008559
0.00025837438
0.00024670564
0.00023505989
0.00022348528
0.00021196752
0.00020055193
0.00018923294
0.00017805161
0.00016701176
0.00015615054
0.00014547913
0.00013503233
0.00012482538
0.00011489229
0.00010524995
9.5931311e-05
8.6954175e-05
7.8347267e-05
7.0130603e-05
6.2323747e-05
5.495265e-05
4.8022297e-05
4.1569559e-05
3.5577919e-05
3.0097098e-05
2.5078258e-05
2.0582278e-05
1.6517362e-05
1.29552e-05
9.7582252e-06
7.0157844e-06
4.5463663e-06
2.470166e-06
5.5561713e-07
-1.0309892e-06
-2.585758e-06
-3.8767819e-06
-5.2684991e-06
-6.4266805e-06
-7.774002e-06
-8.8160697e-06
-1.0033863e-05
-1.0728829e-05
-1.1483322e-05
-1.1392377e-05
-1.1235929e-05
-9.8902886e-06
-8.456548e-06
-5.4647726e-06
-2.5532519e-06
0.012887768
0.012317317
0.010982949
0.0091786269
0.0073324753
0.0056695155
0.0042220016
0.0029744526
0.0019440258
0.0011740327
0.00069067017
0.00047161271
0.00044814775
0.00053409152
0.00065764499
0.0007765548
0.00087256849
0.00094166829
0.00098688671
0.0010139472
0.0010287656
0.0010362244
0.0010398099
0.0010417319
0.0010432286
0.0010448804
0.0010468711
0.0010491752
0.0010516658
0.0010541847
0.0010565831
0.0010587417
0.0010605767
0.0010620381
0.0010631036
0.0010637712
0.001064053
0.0010639698
0.0010635466
0.0010628097
0.0010617845
0.0010604946
0.001058961
0.0010572019
0.0010552328
0.001053067
0.0010507157
0.0010481885
0.0010454936
0.0010426382
0.0010396286
0.0010364708
0.0010331699
0.0010297311
0.0010261589
0.0010224576
0.0010186314
0.0010146841
0.0010106193
0.0010064405
0.001002151
0.00099775372
0.00099325136
0.00098864658
0.0009839417
0.00097913903
0.00097424055
0.00096924822
0.00096416368
0.00095898856
0.00095372431
0.00094837233
0.00094293386
0.00093741
0.00093180179
0.00092611011
0.00092033589
0.00091447976
0.00090854249
0.00090252446
0.00089642639
0.00089024848
0.00088399137
0.00087765504
0.00087124004
0.00086474617
0.00085817388
0.00085152283
0.00084479336
0.00083798501
0.00083109798
0.00082413181
0.00081708649
0.00080996169
0.00080275704
0.0007954724
0.00078810695
0.00078066081
0.00077313257
0.00076552292
0.00075782971
0.00075005419
0.00074219362
0.00073424985
0.00072621913
0.00071810437
0.00070990071
0.00070161172
0.00069323213
0.00068476584
0.00067620686
0.00066756023
0.00065881869
0.00064998824
0.00064106111
0.00063204344
0.00062292735
0.00061371932
0.00060441084
0.00059500963
0.00058550576
0.00057590902
0.00056620758
0.0005564136
0.00054651334
0.0005365211
0.00052642161
0.00051623082
0.00050593263
0.00049554387
0.00048504874
0.00047446399
0.00046377547
0.00045299871
0.00044212269
0.00043116058
0.00042010564
0.00040896827
0.000397746
0.00038644751
0.00037507296
0.0003636321
0.00035212444
0.00034056479
0.00032894841
0.0003172988
0.00030560493
0.00029390063
0.0002821688
0.0002704524
0.00025873072
0.00024705186
0.00023539589
0.0002238111
0.00021228336
0.00020085756
0.00018952875
0.0001783372
0.00016728762
0.00015641626
0.00014573516
0.00013527838
0.00012506179
0.00011511888
0.000105467
9.6138734e-05
8.7152268e-05
7.8535924e-05
7.0310257e-05
6.2494185e-05
5.5114501e-05
4.8175197e-05
4.1714382e-05
3.5714167e-05
3.0225922e-05
2.5199075e-05
2.0696489e-05
1.6624336e-05
1.305645e-05
9.8530796e-06
7.1057929e-06
4.6307495e-06
2.5506113e-06
6.3113764e-07
-9.584536e-07
-2.5175082e-06
-3.8107364e-06
-5.2063885e-06
-6.3664324e-06
-7.7179353e-06
-8.7620183e-06
-9.9846442e-06
-1.0681918e-05
-1.1441677e-05
-1.1352873e-05
-1.1201659e-05
-9.8573573e-06
-8.428543e-06
-5.4385481e-06
-2.5303511e-06
0.011954353
0.011467098
0.010413149
0.0089210847
0.0072891302
0.0057594172
0.0044228114
0.003283172
0.0023379372
0.001605547
0.0011061835
0.00083231742
0.00073902408
0.00076003924
0.00083283026
0.0009147154
0.00098409347
0.0010340368
0.0010655064
0.0010826683
0.0010902151
0.0010920988
0.0010911461
0.0010891398
0.0010870724
0.0010854079
0.0010842928
0.0010837004
0.0010835138
0.0010835802
0.0010837474
0.0010838853
0.0010838943
0.0010837065
0.0010832814
0.0010825997
0.0010816572
0.0010804601
0.0010790204
0.0010773531
0.0010754739
0.0010733979
0.001071139
0.001068709
0.0010661183
0.0010633756
0.0010604878
0.0010574611
0.0010543003
0.00105101
0.001047594
0.0010440558
0.0010403988
0.001036626
0.0010327403
0.0010287447
0.0010246416
0.0010204337
0.0010161234
0.0010117132
0.0010072052
0.0010026016
0.00099790428
0.00099311503
0.0009882355
0.00098326737
0.00097821204
0.00097307087
0.00096784502
0.00096253564
0.00095714376
0.00095167035
0.00094611629
0.00094048231
0.00093476916
0.00092897737
0.00092310764
0.00091716027
0.00091113586
0.00090503449
0.00089885673
0.0008926025
0.00088627236
0.00087986601
0.00087338393
0.00086682567
0.00086019164
0.00085348127
0.00084669485
0.00083983175
0.00083289209
0.00082587529
0.00081878125
0.00081160955
0.00080435971
0.00079703156
0.00078962412
0.00078213754
0.00077457021
0.00076692293
0.00075919329
0.00075138269
0.00074348809
0.00073551158
0.00072744904
0.00071930366
0.00071107022
0.00070275255
0.00069434502
0.00068585185
0.00067726665
0.00066859476
0.00065982859
0.00065097436
0.00064202406
0.00063298399
0.00062384605
0.0006146169
0.00060528778
0.00059586663
0.00058634322
0.00057672764
0.00056700767
0.00055719585
0.00054727801
0.00053726884
0.00052715263
0.00051694573
0.00050663165
0.00049622751
0.00048571727
0.00047511775
0.00046441486
0.00045362385
0.00044273416
0.00043175826
0.00042069025
0.00040953956
0.00039830469
0.00038699337
0.00037560654
0.00036415337
0.00035263364
0.00034106218
0.00032943386
0.00031777286
0.00030606717
0.00029435179
0.00028260831
0.00027088098
0.0002591479
0.00024745811
0.00023579104
0.00022419525
0.00021265667
0.00020121977
0.0001898803
0.0001786776
0.00016761743
0.00015673497
0.00014604324
0.00013557546
0.0001253482
0.00011539442
0.00010573187
9.6392846e-05
8.739581e-05
7.876881e-05
7.0532805e-05
6.2706195e-05
5.5316509e-05
4.8366833e-05
4.1896447e-05
3.5886141e-05
3.0388903e-05
2.5352447e-05
2.0841611e-05
1.6760574e-05
1.3185265e-05
9.9738574e-06
7.2200085e-06
4.7377377e-06
2.6519651e-06
7.2602569e-07
-8.6819498e-07
-2.4329837e-06
-3.7299939e-06
-5.1308986e-06
-6.2943073e-06
-7.651171e-06
-8.6987194e-06
-9.9272595e-06
-1.062836e-05
-1.1394483e-05
-1.1309636e-05
-1.116497e-05
-9.8244527e-06
-8.4020222e-06
-5.4186249e-06
-2.513977e-06
0.011158806
0.010713085
0.0098442441
0.008612683
0.0072063664
0.005829836
0.0046010109
0.0035503884
0.0026767317
0.0019845239
0.0014841764
0.0011734254
0.0010244223
0.00098864677
0.0010141068
0.0010603195
0.0011036768
0.0011346423
0.0011521903
0.0011590793
0.0011589398
0.0011548943
0.0011491437
0.0011430331
0.0011372811
0.0011322052
0.0011278894
0.0011242887
0.0011212885
0.0011187423
0.0011164992
0.0011144238
0.0011124062
0.0011103648
0.0011082443
0.0011060105
0.0011036451
0.0011011408
0.0010984977
0.0010957198
0.0010928133
0.0010897851
0.0010866415
0.0010833884
0.0010800304
0.0010765715
0.0010730145
0.0010693617
0.0010656146
0.0010617746
0.0010578429
0.0010538206
0.0010497087
0.0010455081
0.0010412197
0.0010368447
0.001032384
0.0010278387
0.0010232099
0.0010184988
0.0010137062
0.0010088333
0.0010038809
0.00099885004
0.0009937414
0.0009885559
0.0009832942
0.000977957
0.00097254483
0.00096705824
0.00096149773
0.00095586376
0.00095015679
0.00094437705
0.00093852496
0.00093260059
0.00092660436
0.00092053617
0.00091439639
0.00090818472
0.00090190155
0.00089554645
0.00088911982
0.00088262106
0.00087605052
0.00086940746
0.00086269219
0.00085590388
0.00084904272
0.00084210787
0.00083509936
0.00082801642
0.00082085885
0.00081362609
0.00080631755
0.00079893294
0.00079147116
0.00078393235
0.00077631465
0.00076861894
0.00076084256
0.00075298703
0.00074504898
0.00073703073
0.00072892776
0.00072074352
0.00071247243
0.00070411857
0.00069567592
0.000687149
0.00067853101
0.00066982758
0.00066103079
0.00065214706
0.0006431681
0.00063410042
0.00062493564
0.00061568062
0.00060632631
0.0005968809
0.00058733383
0.00057769547
0.00056795324
0.00055812001
0.00054818118
0.00053815187
0.00052801586
0.00051778997
0.00050745721
0.00049703507
0.00048650723
0.00047589059
0.00046517112
0.00045436374
0.0004434584
0.00043246684
0.000421384
0.0004102183
0.00039896928
0.00038764364
0.00037624317
0.00036477636
0.00035324333
0.0003416589
0.00033001753
0.00031834414
0.00030662561
0.00029489826
0.00028314219
0.00027140309
0.00025965774
0.00024795622
0.00023627722
0.00022466962
0.00021311939
0.00020167056
0.00019031959
0.00017910487
0.0001680332
0.00015713868
0.00014643532
0.00013595548
0.0001257164
0.00011575054
0.00010607598
9.6724801e-05
8.7715644e-05
7.9076371e-05
7.082825e-05
6.2989253e-05
5.5587557e-05
4.8625424e-05
4.2143223e-05
3.6120475e-05
3.0611729e-05
2.5563033e-05
2.1041156e-05
1.6948368e-05
1.336264e-05
1.0140209e-05
7.3767007e-06
4.8842083e-06
2.7897032e-06
8.5438247e-07
-7.47475e-07
-2.3207162e-06
-3.6242964e-06
-5.0327937e-06
-6.2019799e-06
-7.5660304e-06
-8.6190592e-06
-9.854919e-06
-1.0561778e-05
-1.133565e-05
-1.1257217e-05
-1.1120952e-05
-9.7879094e-06
-8.3740392e-06
-5.4043705e-06
-2.5046523e-06
0.010463884
0.010048866
0.0093125095
0.0082886968
0.0070918643
0.0058746863
0.00475456
0.0037829706
0.0029698637
0.002315894
0.0018235986
0.0014905525
0.0012991289
0.0012151374
0.0011972762
0.0012093784
0.0012274716
0.0012399549
0.0012438238
0.0012404068
0.0012323488
0.0012220597
0.0012112076
0.0012007494
0.0011911402
0.0011825381
0.0011749437
0.0011682763
0.0011624115
0.0011572024
0.001152498
0.0011481574
0.0011440606
0.0011401125
0.0011362428
0.0011324022
0.0011285583
0.0011246904
0.0011207863
0.0011168393
0.0011128461
0.0011088051
0.0011047156
0.0011005772
0.0010963893
0.001092151
0.0010878612
0.0010835185
0.0010791215
0.0010746686
0.0010701585
0.0010655898
0.0010609615
0.0010562725
0.001051522
0.0010467093
0.0010418339
0.0010368955
0.0010318937
0.0010268284
0.0010216996
0.0010165072
0.001011251
0.0010059312
0.0010005475
0.00099510014
0.00098958901
0.00098401406
0.00097837523
0.0009726724
0.00096690559
0.00096107463
0.00095517957
0.00094922011
0.00094319628
0.00093710768
0.0009309544
0.00092473592
0.00091845232
0.00091210292
0.00090568788
0.00089920639
0.00089265868
0.00088604378
0.00087936192
0.00087261203
0.00086579429
0.00085890758
0.000851952
0.00084492641
0.00083783078
0.00083066408
0.00082342602
0.00081611587
0.00080873291
0.00080127673
0.00079374606
0.00078614098
0.00077845946
0.00077070237
0.0007628668
0.00075495436
0.00074696137
0.0007388903
0.00073073629
0.00072250297
0.00071418443
0.00070578495
0.00069729815
0.0006887288
0.00068006973
0.00067132678
0.00066249174
0.00065357118
0.00064455658
0.00063545456
0.00062625652
0.00061696949
0.00060758414
0.00059810886
0.00058853279
0.00057886656
0.0005690972
0.00055923795
0.00054927373
0.0005392201
0.00052906034
0.00051881168
0.00050845669
0.00049801319
0.00048746457
0.00047682781
0.00046608894
0.00045526254
0.00044433908
0.00043332951
0.00042222969
0.00041104695
0.00039978191
0.00038844018
0.00037702446
0.00036554251
0.00035399481
0.00034239614
0.00033074054
0.00031905369
0.00030732132
0.00029558107
0.00028381156
0.00027205989
0.0002603015
0.00024858751
0.00023689586
0.00022527574
0.00021371315
0.00020225166
0.00019088847
0.00017966094
0.00016857695
0.00015766944
0.00014695348
0.00013646046
0.00012620834
0.00011622904
0.00010654094
9.7175928e-05
8.8152766e-05
7.9499154e-05
7.1236631e-05
6.3382772e-05
5.5966361e-05
4.8988863e-05
4.2491684e-05
3.6453096e-05
3.0929155e-05
2.5864277e-05
2.1327134e-05
1.7218175e-05
1.361738e-05
1.0379213e-05
7.6011799e-06
5.0936726e-06
2.9855304e-06
1.0361326e-06
-5.7812671e-07
-2.1641801e-06
-3.4786821e-06
-4.8984379e-06
-6.0770112e-06
-7.4509332e-06
-8.5122452e-06
-9.7572799e-06
-1.0472447e-05
-1.1255811e-05
-1.1187169e-05
-1.1061711e-05
-9.7415567e-06
-8.3391496e-06
-5.3931368e-06
-2.5011775e-06
0.0098513231
0.0094647485
0.0088295065
0.0079690397
0.0069532715
0.0058895564
0.0048790944
0.0039831701
0.0032241475
0.0026055256
0.0021261116
0.0017816641
0.0015597004
0.0014363362
0.0013800491
0.0013602117
0.0013540238
0.0013486212
0.001339183
0.0013255717
0.0013094601
0.0012926367
0.0012763451
0.0012612315
0.0012475235
0.0012352219
0.0012242295
0.0012144119
0.0012056203
0.0011976986
0.0011904901
0.0011838467
0.001177637
0.0011717519
0.0011661054
0.0011606326
0.001155286
0.0011500314
0.0011448442
0.0011397068
0.001134606
0.0011295319
0.0011244764
0.0011194326
0.0011143945
0.0011093564
0.0011043131
0.0010992595
0.001094191
0.0010891031
0.0010839919
0.0010788538
0.0010736854
0.0010684839
0.0010632466
0.0010579713
0.0010526559
0.0010472985
0.0010418978
0.0010364524
0.001030961
0.0010254226
0.0010198362
0.0010142008
0.0010085157
0.0010027801
0.00099699331
0.00099115457
0.00098526327
0.00097931865
0.00097332025
0.00096726735
0.00096115958
0.00095499611
0.00094877665
0.00094250032
0.00093616691
0.00092977546
0.00092332583
0.0009168169
0.00091024867
0.00090361991
0.00089693071
0.00089017972
0.00088336707
0.0008764913
0.00086955255
0.00086254933
0.00085548168
0.00084834817
0.00084114868
0.00083388194
0.00082654758
0.00081914463
0.00081167229
0.00080412997
0.0007965163
0.00078883123
0.00078107259
0.00077324118
0.00076533394
0.00075735243
0.00074929276
0.00074115746
0.00073294141
0.00072464833
0.00071627205
0.00070781696
0.0006992764
0.0006906553
0.00068194617
0.00067315502
0.0006642734
0.00065530795
0.00064624997
0.00063710616
0.00062786771
0.00061854178
0.00060911879
0.0005996073
0.00058999618
0.00058029624
0.00057049424
0.00056060365
0.00055060902
0.00054052625
0.00053033817
0.0005200624
0.00050968109
0.00049921233
0.00048863928
0.00047797894
0.00046721742
0.00045636898
0.00044542454
0.00043439433
0.00042327507
0.00041207302
0.00040078988
0.00038943015
0.00037799744
0.00036649874
0.00035493497
0.00034332071
0.00033164978
0.00031994836
0.0003082013
0.00029644728
0.00028466364
0.0002728987
0.0002611267
0.00024939966
0.00023769485
0.00022606167
0.00021448624
0.00020301156
0.00019163561
0.00018039464
0.00016929768
0.0001583764
0.00014764695
0.00013713969
0.00012687333
0.00011687913
0.00010717588
9.7795097e-05
8.8755781e-05
8.0085336e-05
7.1805658e-05
6.393383e-05
5.6499301e-05
4.9502668e-05
4.298639e-05
3.6927434e-05
3.1383358e-05
2.6296926e-05
2.1738729e-05
1.7607454e-05
1.3985125e-05
1.0724573e-05
7.9251638e-06
5.3958046e-06
3.2670692e-06
1.2968612e-06
-3.3657724e-07
-1.9416956e-06
-3.2732874e-06
-4.7095263e-06
-5.9025407e-06
-7.2900794e-06
-8.3635071e-06
-9.6201721e-06
-1.0347059e-05
-1.1142083e-05
-1.10878e-05
-1.0976089e-05
-9.6762892e-06
-8.2890232e-06
-5.3794879e-06
-2.4999994e-06
0.0093087168
0.0089497477
0.0083954224
0.0076632247
0.0067982516
0.0058743254
0.0049717772
0.0041512865
0.0034438401
0.0028585605
0.0023944427
0.002046165
0.0018035703
0.0016494489
0.0015603488
0.001511464
0.0014823136
0.0014596955
0.001437357
0.0014137513
0.0013895734
0.0013660334
0.0013440344
0.001323992
0.0013059546
0.0012897814
0.0012752705
0.0012622193
0.0012504399
0.0012397558
0.0012299991
0.0012210116
0.0012126502
0.0012047912
0.0011973331
0.0011901952
0.0011833149
0.0011766443
0.0011701467
0.0011637933
0.0011575613
0.0011514323
0.0011453906
0.001139423
0.0011335177
0.0011276641
0.0011218527
0.0011160746
0.0011103218
0.0011045869
0.0010988631
0.0010931444
0.0010874252
0.0010817007
0.0010759664
0.0010702181
0.0010644525
0.0010586661
0.0010528562
0.0010470202
0.0010411559
0.0010352609
0.0010293336
0.0010233719
0.0010173743
0.0010113393
0.0010052655
0.00099915139
0.00099299591
0.00098679763
0.00098055564
0.00097426865
0.0009679359
0.00096155604
0.00095512848
0.00094865185
0.00094212571
0.00093554862
0.00092892027
0.0009222391
0.00091550498
0.00090871626
0.00090187293
0.00089497324
0.00088801725
0.00088100315
0.00087393102
0.00086679901
0.00085960716
0.00085235367
0.00084503845
0.00083765989
0.00083021763
0.00082271042
0.00081513744
0.00080749785
0.00079979026
0.00079201442
0.00078416814
0.00077625201
0.00076826294
0.00076020237
0.00075206629
0.00074385718
0.00073556977
0.00072720776
0.00071876486
0.00071024543
0.00070164265
0.0006929615
0.00068419432
0.00067534712
0.00066641135
0.00065739361
0.00064828514
0.00063909259
0.00062980706
0.00062043573
0.00061096889
0.00060141515
0.00059176322
0.00058202399
0.00057218404
0.00056225694
0.00055222705
0.0005421104
0.00053188961
0.00052158244
0.00051117082
0.00050067298
0.00049007194
0.00047938464
0.00046859733
0.00045772388
0.00044675575
0.00043570235
0.00042456133
0.00041333784
0.00040203468
0.00039065518
0.00037920397
0.00036768709
0.00035610611
0.00034447514
0.00033278808
0.00032107127
0.000309309
0.00029754063
0.00028574259
0.000273964
0.00026217828
0.00025043795
0.00023871992
0.00022707355
0.00021548523
0.00020399721
0.0001926084
0.00018135376
0.00017024358
0.00015930806
0.00014856461
0.00013804227
0.00012776074
0.00011775033
0.00010803045
9.8631934e-05
8.9574288e-05
8.0884312e-05
7.2584494e-05
6.4691168e-05
5.7234645e-05
5.0214441e-05
4.3674198e-05
3.7589397e-05
3.2019185e-05
2.6904565e-05
2.2318135e-05
1.8156822e-05
1.4504807e-05
1.1213386e-05
8.3838545e-06
5.8238234e-06
3.6655298e-06
1.6657648e-06
4.3567679e-09
-1.6279823e-06
-2.9846991e-06
-4.4442564e-06
-5.6583286e-06
-7.0643873e-06
-8.1549796e-06
-9.4264375e-06
-1.0169531e-05
-1.0978857e-05
-1.0944886e-05
-1.085036e-05
-9.5805442e-06
-8.2129633e-06
-5.3553988e-06
-2.4953332e-06
0.0088258356
0.0084933085
0.008005357
0.0073752697
0.0066341688
0.0058330785
0.0050330836
0.004287933
0.00363188
0.0030793494
0.0026319472
0.0022848744
0.0020293572
0.0018523026
0.0017362761
0.0016618318
0.0016114298
0.0015723887
0.0015375737
0.0015042241
0.0014720802
0.0014417805
0.0014139286
0.0013887699
0.0013662245
0.0013460361
0.0013279029
0.0013115454
0.0012967243
0.0012832328
0.0012708853
0.001259511
0.0012489546
0.0012390788
0.0012297668
0.0012209227
0.0012124692
0.0012043448
0.0011965007
0.0011888973
0.0011815023
0.0011742886
0.0011672333
0.0011603164
0.0011535205
0.0011468299
0.0011402305
0.0011337096
0.0011272556
0.001120858
0.0011145072
0.0011081946
0.0011019123
0.0010956533
0.0010894112
0.0010831801
0.0010769549
0.0010707307
0.0010645034
0.0010582691
0.0010520244
0.0010457659
0.0010394909
0.0010331964
0.0010268801
0.0010205395
0.0010141728
0.0010077776
0.0010013522
0.00099489459
0.00098840341
0.0009818767
0.00097531339
0.00096871152
0.00096207024
0.00095538762
0.00094866304
0.00094189453
0.00093508165
0.00092822235
0.0009213164
0.00091436169
0.00090735816
0.00090030362
0.00089319812
0.00088603941
0.00087882759
0.00087156042
0.00086423796
0.00085685803
0.00084942061
0.0008419237
0.00083436704
0.00082674898
0.00081906883
0.00081132538
0.00080351735
0.00079564417
0.00078770373
0.00077969636
0.00077161904
0.00076347294
0.00075525411
0.00074696482
0.00073859985
0.00073016267
0.00072164708
0.00071305722
0.00070438632
0.00069563922
0.00068680826
0.00067789931
0.00066890389
0.00065982837
0.00065066412
0.0006414176
0.00063207998
0.00062265828
0.00061314286
0.00060354216
0.00059384499
0.00058406206
0.00057418005
0.00056421234
0.0005541434
0.0005439891
0.00053373213
0.00052339013
0.0005129451
0.0005024151
0.00049178331
0.00048106636
0.00047025087
0.00045935011
0.00044835623
0.00043727774
0.00042611328
0.00041486681
0.00040354234
0.00039214188
0.00038067128
0.00036913537
0.00035753667
0.00034588846
0.00033418514
0.00032245266
0.00031067539
0.00029889266
0.00028708065
0.00027528864
0.00026348976
0.00025173654
0.00024000595
0.00022834688
0.00021674633
0.0002052455
0.00019384442
0.00018257651
0.00017145353
0.0001605039
0.00014974656
0.00013920885
0.0001289118
0.00011888427
0.00010914674
9.9728847e-05
9.065103e-05
8.1938967e-05
7.361618e-05
6.5697783e-05
5.8215329e-05
5.1166849e-05
4.4597454e-05
3.8480803e-05
3.2877845e-05
2.7727582e-05
2.3104821e-05
1.8904632e-05
1.521356e-05
1.1881405e-05
9.0115405e-06
6.4104496e-06
4.2120025e-06
2.1722866e-06
4.724194e-07
-1.1968966e-06
-2.5884208e-06
-4.0795349e-06
-5.3227575e-06
-6.753309e-06
-7.8673828e-06
-9.1575021e-06
-9.9224873e-06
-1.0749223e-05
-1.0742966e-05
-1.0669512e-05
-9.4413228e-06
-8.0989093e-06
-5.3109597e-06
-2.4795766e-06
0.0083939109
0.0080862651
0.0076536998
0.007106499
0.0064672031
0.0057719027
0.0050662337
0.0043946978
0.0037904189
0.0032711217
0.0028417363
0.0024993435
0.0022366696
0.0020433235
0.0019060777
0.0018099212
0.0017403746
0.0016859125
0.0016391128
0.0015963175
0.0015564015
0.0015194309
0.0014857143
0.0014553583
0.0014281964
0.0014038898
0.0013820522
0.001362328
0.0013444198
0.0013280821
0.0013131057
0.0012993044
0.0012865105
0.0012745737
0.0012633636
0.0012527696
0.0012427004
0.0012330813
0.0012238513
0.0012149603
0.0012063666
0.0011980345
0.0011899338
0.0011820379
0.0011743235
0.0011667697
0.001159358
0.0011520715
0.001144895
0.0011378148
0.0011308183
0.0011238943
0.0011170326
0.0011102237
0.0011034595
0.0010967321
0.0010900347
0.0010833609
0.0010767053
0.0010700623
0.0010634276
0.0010567965
0.0010501653
0.00104353
0.0010368876
0.0010302345
0.0010235683
0.0010168857
0.0010101846
0.0010034621
0.00099671652
0.00098994514
0.00098314655
0.00097631817
0.00096945888
0.00096256615
0.00095563917
0.00094867541
0.0009416743
0.00093463326
0.00092755198
0.00092042784
0.00091326075
0.00090604802
0.00089878973
0.00089148315
0.00088412844
0.00087672288
0.00086926663
0.00086175705
0.00085419425
0.00084657577
0.00083890152
0.00083116939
0.00082337886
0.00081552829
0.00080761658
0.00079964276
0.00079160493
0.00078350298
0.00077533413
0.00076709915
0.0007587943
0.00075042147
0.00074197566
0.00073345995
0.0007248684
0.00071620477
0.00070746252
0.00069864616
0.00068974824
0.00068077428
0.00067171608
0.00066257961
0.00065335655
0.00064405296
0.00063466033
0.00062518528
0.00061561849
0.00060596801
0.00059622298
0.00058639367
0.00057646717
0.00056645635
0.00055634614
0.00054615189
0.00053585674
0.00052547784
0.00051499763
0.00050443366
0.00049376962
0.00048302149