/*--------------------------------*- C++ -*----------------------------------*\
| =========                 |                                                 |
| \\      /  F ield         | OpenFOAM: The Open Source CFD Toolbox           |
|  \\    /   O peration     | Version:  5.x                                   |
|   \\  /    A nd           | Web:      www.OpenFOAM.org                      |
|    \\/     M anipulation  |                                                 |
\*---------------------------------------------------------------------------*/
FoamFile
{
    version     2.0;
    format      ascii;
    class       surfaceScalarField;
    location    "0.4";
    object      phi;
}
// * * * * * * * * * * * * * * * * * * * * * * * * * * * * * * * * * * * * * //

dimensions      [0 3 -1 0 0 0 0];

internalField   nonuniform List<scalar> 
42870
(
3.647455e-08
3.0076068e-09
-3.9482157e-08
3.2667009e-08
3.8075416e-09
2.8876287e-08
3.7907221e-09
2.5279916e-08
3.5963706e-09
2.1874509e-08
3.4054071e-09
1.8727625e-08
3.1468837e-09
1.5964914e-08
2.7627113e-09
1.3679562e-08
2.2853522e-09
1.1890457e-08
1.7891045e-09
1.0564371e-08
1.3260866e-09
9.6154608e-09
9.4890995e-10
8.944678e-09
6.7078277e-10
8.4648786e-09
4.7979943e-10
8.1090895e-09
3.5578913e-10
7.8297857e-09
2.7930379e-10
7.5939098e-09
2.3587591e-10
7.3811145e-09
2.1279529e-10
7.1809273e-09
2.0018717e-10
6.9891072e-09
1.918201e-10
6.8046718e-09
1.8443545e-10
6.6279884e-09
1.7668333e-10
6.4597206e-09
1.682678e-10
6.3003407e-09
1.5937996e-10
6.1499769e-09
1.5036382e-10
6.0084306e-09
1.415463e-10
5.8752633e-09
1.3316727e-10
5.7498943e-09
1.25369e-10
5.6316793e-09
1.1821497e-10
5.5199717e-09
1.1170768e-10
5.4141608e-09
1.0581085e-10
5.3136919e-09
1.0046886e-10
5.218072e-09
9.5619909e-11
5.1268687e-09
9.1203354e-11
5.039705e-09
8.7163645e-11
4.9562532e-09
8.3451831e-11
4.8762272e-09
8.002596e-11
4.7993766e-09
7.68506e-11
4.7254805e-09
7.3896188e-11
4.6543423e-09
7.1138108e-11
4.5857864e-09
6.8555898e-11
4.519654e-09
6.6132419e-11
4.4558008e-09
6.3853216e-11
4.3940949e-09
6.1705941e-11
4.334415e-09
5.967989e-11
4.2766493e-09
5.7765688e-11
4.2206943e-09
5.5954971e-11
4.1664541e-09
5.424026e-11
4.1138393e-09
5.2614718e-11
4.0627672e-09
5.1072159e-11
4.0131604e-09
4.9606826e-11
3.9649468e-09
4.8213543e-11
3.9180594e-09
4.6887392e-11
3.8724354e-09
4.562399e-11
3.8280163e-09
4.4419119e-11
3.7847472e-09
4.3269099e-11
3.7425769e-09
4.2170315e-11
3.7014572e-09
4.1119672e-11
3.6613432e-09
4.0114056e-11
3.6221923e-09
3.9150879e-11
3.5839649e-09
3.8227444e-11
3.5466233e-09
3.7341603e-11
3.5101323e-09
3.6490997e-11
3.4744584e-09
3.567384e-11
3.4395704e-09
3.4888063e-11
3.4054382e-09
3.4132178e-11
3.3720338e-09
3.3404353e-11
3.3393305e-09
3.2703342e-11
3.307303e-09
3.2027504e-11
3.2759272e-09
3.1375794e-11
3.2451805e-09
3.0746742e-11
3.215041e-09
3.0139464e-11
3.1854883e-09
2.9552662e-11
3.1565028e-09
2.8985562e-11
3.1280658e-09
2.8437009e-11
3.1001595e-09
2.7906312e-11
3.072767e-09
2.7392478e-11
3.0458721e-09
2.6894875e-11
3.0194594e-09
2.641266e-11
2.9935142e-09
2.5945202e-11
2.9680224e-09
2.5491819e-11
2.9429706e-09
2.5051868e-11
2.9183457e-09
2.4624845e-11
2.8941356e-09
2.4210065e-11
2.8703284e-09
2.3807193e-11
2.846913e-09
2.3415473e-11
2.8238782e-09
2.3034751e-11
2.801214e-09
2.2664215e-11
2.7789101e-09
2.2303865e-11
2.7569573e-09
2.195283e-11
2.7353461e-09
2.1611222e-11
2.7140679e-09
2.1278155e-11
2.6931141e-09
2.0953798e-11
2.6724768e-09
2.0637319e-11
2.652148e-09
2.0328841e-11
2.6321203e-09
2.0027706e-11
2.6123864e-09
1.9733863e-11
2.5929395e-09
1.944696e-11
2.5737728e-09
1.9166604e-11
2.5548799e-09
1.8892926e-11
2.5362549e-09
1.8624978e-11
2.5178913e-09
1.8363592e-11
2.4997843e-09
1.8107056e-11
2.4819272e-09
1.7857085e-11
2.4643162e-09
1.7611027e-11
2.4469445e-09
1.7371692e-11
2.4298092e-09
1.713525e-11
2.4129034e-09
1.6905793e-11
2.3962252e-09
1.6678208e-11
2.3797673e-09
1.6457893e-11
2.3635289e-09
1.6238441e-11
2.3475023e-09
1.6026574e-11
2.3316878e-09
1.5814562e-11
2.3160773e-09
1.5610459e-11
2.300672e-09
1.540528e-11
2.2854638e-09
1.5208263e-11
2.2704544e-09
1.5009333e-11
2.2556356e-09
1.4818803e-11
2.2410101e-09
1.462553e-11
2.2265692e-09
1.4440931e-11
2.2123165e-09
1.4252684e-11
2.198243e-09
1.4073503e-11
2.1843534e-09
1.3889604e-11
2.170638e-09
1.3715355e-11
2.1571029e-09
1.3535109e-11
2.1437376e-09
1.3365331e-11
2.1305495e-09
1.3188082e-11
2.1175272e-09
1.3022288e-11
2.1046798e-09
1.2847475e-11
2.0919947e-09
1.2685072e-11
2.0794824e-09
1.2512294e-11
2.0671299e-09
1.2352504e-11
2.0549484e-09
1.2181515e-11
2.042925e-09
1.2023377e-11
2.0310709e-09
1.1854053e-11
2.0193744e-09
1.1696491e-11
2.0078457e-09
1.1528714e-11
1.996475e-09
1.1370726e-11
1.9852708e-09
1.1204189e-11
1.9742258e-09
1.1045036e-11
1.9633467e-09
1.0879054e-11
1.9526283e-09
1.0718426e-11
1.9420765e-09
1.0551839e-11
1.9316866e-09
1.0389895e-11
1.9214654e-09
1.0221202e-11
1.911407e-09
1.0058375e-11
1.901521e-09
9.8859778e-12
1.8917985e-09
9.7225277e-12
1.8822534e-09
9.5450802e-12
1.8728727e-09
9.380729e-12
1.8636752e-09
9.197513e-12
1.8546438e-09
9.0313617e-12
1.8458012e-09
8.842549e-12
1.8371279e-09
8.6732961e-12
1.8286483e-09
8.4796799e-12
1.8203424e-09
8.305903e-12
1.8122341e-09
8.1082888e-12
1.8043053e-09
7.9287604e-12
1.7965779e-09
7.7274434e-12
1.7890363e-09
7.541523e-12
1.7817001e-09
7.3362671e-12
1.774556e-09
7.144129e-12
1.7676215e-09
6.9344497e-12
1.7608845e-09
6.736958e-12
1.754362e-09
6.5225427e-12
1.7480412e-09
6.3207923e-12
1.7419393e-09
6.1018993e-12
1.7360423e-09
5.897003e-12
1.7303673e-09
5.674974e-12
1.7248992e-09
5.4681198e-12
1.7196539e-09
5.2453158e-12
1.7146163e-09
5.0376156e-12
1.7097996e-09
4.8166791e-12
1.7051909e-09
4.6087419e-12
1.7007987e-09
4.3921409e-12
1.6966139e-09
4.1848602e-12
1.6926377e-09
3.9761323e-12
1.6888652e-09
3.7725035e-12
1.6852879e-09
3.5772997e-12
1.6819051e-09
3.3828555e-12
1.6786976e-09
3.2074951e-12
1.67567e-09
3.0275651e-12
1.6727929e-09
2.8770609e-12
1.6700786e-09
2.7143455e-12
1.6674854e-09
2.5932163e-12
1.6650362e-09
2.4491457e-12
1.6626724e-09
2.3638126e-12
1.6604315e-09
2.240918e-12
1.6582335e-09
2.198019e-12
1.6561372e-09
2.0963142e-12
1.6540402e-09
2.0969513e-12
1.6520346e-09
2.005665e-12
1.6499936e-09
2.0409398e-12
1.6480542e-09
1.939377e-12
1.6460567e-09
1.9975385e-12
1.6441862e-09
1.8704987e-12
1.6422301e-09
1.956095e-12
1.640422e-09
1.8081409e-12
1.6384719e-09
1.9500423e-12
1.6366776e-09
1.7943327e-12
2.068279e-12
4.2101508e-08
2.7425259e-09
-4.1836427e-08
4.1939272e-08
3.9697776e-09
4.1253743e-08
4.476251e-09
4.0291401e-08
4.5587126e-09
3.9151259e-08
4.5455495e-09
3.7828811e-08
4.4693314e-09
3.634155e-08
4.2499723e-09
3.4750251e-08
3.8766506e-09
3.3140884e-08
3.3984717e-09
3.1582913e-08
2.8840578e-09
3.0123146e-08
2.4086774e-09
2.8779899e-08
2.0140297e-09
2.7553242e-08
1.7064563e-09
2.6436636e-08
1.4723946e-09
2.5426602e-08
1.289338e-09
2.4512416e-08
1.1500619e-09
2.3682265e-08
1.0429466e-09
2.2924989e-08
9.5746294e-10
2.223078e-08
8.8602863e-10
2.1591331e-08
8.2388464e-10
2.0999743e-08
7.6827105e-10
2.0450338e-08
7.1767326e-10
1.9938412e-08
6.7130613e-10
1.9460004e-08
6.2877164e-10
1.901171e-08
5.8984042e-10
1.8590559e-08
5.5431806e-10
1.8193932e-08
5.2199577e-10
1.78195e-08
4.9264768e-10
1.746519e-08
4.660176e-10
1.7129165e-08
4.4183517e-10
1.6809801e-08
4.1983326e-10
1.650566e-08
3.9976041e-10
1.6215476e-08
3.8138749e-10
1.5938129e-08
3.6451089e-10
1.5672628e-08
3.4895257e-10
1.5418095e-08
3.34559e-10
1.5173747e-08
3.2119864e-10
1.4938884e-08
3.0875952e-10
1.4712876e-08
2.9714621e-10
1.4495154e-08
2.862774e-10
1.4285203e-08
2.7608333e-10
1.4082553e-08
2.6650384e-10
1.3886772e-08
2.5748656e-10
1.3697467e-08
2.4898551e-10
1.3514272e-08
2.4095997e-10
1.3336854e-08
2.3337352e-10
1.3164901e-08
2.2619345e-10
1.2998125e-08
2.1939005e-10
1.2836261e-08
2.1293642e-10
1.267906e-08
2.0680783e-10
1.2526292e-08
2.0098194e-10
1.2377741e-08
1.9543794e-10
1.2233208e-08
1.9015708e-10
1.2092505e-08
1.851217e-10
1.1955458e-08
1.8031608e-10
1.1821903e-08
1.7572523e-10
1.1691687e-08
1.7133592e-10
1.1564666e-08
1.6713536e-10
1.1440704e-08
1.6311244e-10
1.1319676e-08
1.5925616e-10
1.120146e-08
1.5555717e-10
1.1085945e-08
1.5200594e-10
1.0973024e-08
1.4859459e-10
1.0862598e-08
1.4531485e-10
1.075457e-08
1.4216004e-10
1.0648851e-08
1.3912291e-10
1.0545357e-08
1.3619778e-10
1.0444006e-08
1.3337821e-10
1.0344722e-08
1.3065937e-10
1.0247434e-08
1.2803555e-10
1.0152071e-08
1.2550258e-10
1.0058568e-08
1.2305545e-10
9.9668628e-09
1.2069051e-10
9.8768965e-09
1.184033e-10
9.7886122e-09
1.161906e-10
9.7019562e-09
1.1404853e-10
9.6168769e-09
1.1197419e-10
9.5333253e-09
1.0996421e-10
9.4512546e-09
1.0801589e-10
9.3706201e-09
1.0612636e-10
9.2913789e-09
1.0429304e-10
9.2134902e-09
1.025136e-10
9.1369147e-09
1.007855e-10
9.061615e-09
9.9106889e-11
8.9875553e-09
9.7475184e-11
8.914701e-09
9.5889074e-11
8.8430193e-09
9.4345911e-11
8.7724783e-09
9.2844842e-11
8.703048e-09
9.138315e-11
8.6346989e-09
8.9960325e-11
8.5674034e-09
8.8573667e-11
8.5011343e-09
8.7222892e-11
8.4358661e-09
8.5905465e-11
8.3715739e-09
8.46211e-11
8.3082339e-09
8.336767e-11
8.2458232e-09
8.2144572e-11
8.1843198e-09
8.0950397e-11
8.1237026e-09
7.9783827e-11
8.0639509e-09
7.8644587e-11
8.0050457e-09
7.7530142e-11
7.9469675e-09
7.6441844e-11
7.8896991e-09
7.537544e-11
7.8332218e-09
7.4334395e-11
7.7775206e-09
7.331223e-11
7.7225772e-09
7.2315058e-11
7.6683788e-09
7.1333629e-11
7.6149075e-09
7.0377135e-11
7.5621525e-09
6.9433225e-11
7.510096e-09
6.8514365e-11
7.4587295e-09
6.7604938e-11
7.4080353e-09
6.6720805e-11
7.3580068e-09
6.5842993e-11
7.3086265e-09
6.499077e-11
7.2598899e-09
6.4141942e-11
7.2117792e-09
6.3318922e-11
7.164292e-09
6.2496556e-11
7.1174106e-09
6.1700214e-11
7.0711343e-09
6.0901815e-11
7.0254455e-09
6.0129745e-11
6.9803454e-09
5.935276e-11
6.9358163e-09
5.860266e-11
6.8918614e-09
5.784444e-11
6.8484627e-09
5.7114116e-11
6.8056258e-09
5.6371979e-11
6.7633318e-09
5.5659326e-11
6.7215892e-09
5.4930674e-11
6.6803779e-09
5.4233554e-11
6.6397094e-09
5.3515987e-11
6.5995625e-09
5.2832024e-11
6.5599513e-09
5.2123458e-11
6.520854e-09
5.1449837e-11
6.482287e-09
5.0748534e-11
6.4442284e-09
5.0081961e-11
6.4066959e-09
4.9386478e-11
6.3696691e-09
4.8723332e-11
6.3331655e-09
4.8032283e-11
6.2971673e-09
4.7369001e-11
6.2616908e-09
4.668061e-11
6.2267217e-09
4.6014148e-11
6.192275e-09
4.5325772e-11
6.1583394e-09
4.4654051e-11
6.1249293e-09
4.3961941e-11
6.0920352e-09
4.3284013e-11
6.0596729e-09
4.2583515e-11
6.027832e-09
4.1899185e-11
5.9965328e-09
4.1185209e-11
5.9657613e-09
4.0494056e-11
5.9355444e-09
3.9761937e-11
5.9058626e-09
3.9062516e-11
5.876751e-09
3.8309115e-11
5.8481836e-09
3.759878e-11
5.8202029e-09
3.6823232e-11
5.7927778e-09
3.6098464e-11
5.7659558e-09
3.5301632e-11
5.7397032e-09
3.4558476e-11
5.71407e-09
3.3741536e-11
5.6890224e-09
3.2976394e-11
5.6646101e-09
3.2139732e-11
5.640801e-09
3.1350598e-11
5.6176435e-09
3.0493807e-11
5.5951064e-09
2.9681137e-11
5.5732372e-09
2.8803673e-11
5.5520039e-09
2.7970299e-11
5.531454e-09
2.70724e-11
5.5115522e-09
2.6222621e-11
5.4923476e-09
2.5306472e-11
5.473799e-09
2.4445681e-11
5.4559571e-09
2.3516789e-11
5.4387739e-09
2.2651387e-11
5.4223009e-09
2.1718249e-11
5.4064838e-09
2.0854786e-11
5.3913734e-09
1.992704e-11
5.3769107e-09
1.9071487e-11
5.363143e-09
1.8159756e-11
5.3500073e-09
1.7320645e-11
5.3375429e-09
1.6440522e-11
5.3256818e-09
1.5633571e-11
5.314452e-09
1.4807078e-11
5.3037807e-09
1.4054159e-11
5.2936846e-09
1.3303621e-11
5.2840879e-09
1.2624244e-11
5.2749987e-09
1.1966322e-11
5.2663407e-09
1.1372293e-11
5.2581128e-09
1.0821114e-11
5.2502415e-09
1.032048e-11
5.2427122e-09
9.8930845e-12
5.2354604e-09
9.4927178e-12
5.228458e-09
9.2004432e-12
5.221662e-09
8.8922627e-12
5.2150366e-09
8.7224015e-12
5.2085785e-09
8.4637897e-12
5.2022448e-09
8.3745885e-12
5.196082e-09
8.1021948e-12
5.1900239e-09
8.0556734e-12
5.1841547e-09
7.7396231e-12
5.1783548e-09
7.7560058e-12
5.1727229e-09
7.4400168e-12
5.1670716e-09
7.6014201e-12
5.1614938e-09
7.3721195e-12
7.8621886e-12
4.4022227e-08
2.5880216e-09
-4.3867722e-08
4.4404145e-08
3.5878597e-09
4.4604847e-08
4.275548e-09
4.4654973e-08
4.5085867e-09
4.4621478e-08
4.5790446e-09
4.4500914e-08
4.5898954e-09
4.4238999e-08
4.5118879e-09
4.3814845e-08
4.3008041e-09
4.3248738e-08
3.9645789e-09
4.2576049e-08
3.5567468e-09
4.183846e-08
3.1462663e-09
4.1068251e-08
2.7842387e-09
4.0284908e-08
2.4897994e-09
3.9500577e-08
2.2567253e-09
3.8720675e-08
2.0692401e-09
3.7952237e-08
1.9185001e-09
3.7199317e-08
1.7958669e-09
3.6463846e-08
1.6929339e-09
3.57468e-08
1.6030746e-09
3.5048815e-08
1.5218695e-09
3.4370396e-08
1.4466899e-09
3.3711964e-08
1.3761058e-09
3.3073848e-08
1.309422e-09
3.2456261e-08
1.2463584e-09
3.1859266e-08
1.1868355e-09
3.1282767e-08
1.1308173e-09
3.0726513e-08
1.0782491e-09
3.0190102e-08
1.0290586e-09
2.967301e-08
9.8311036e-10
2.9174616e-08
9.4022871e-10
2.8694235e-08
9.0021461e-10
2.8231135e-08
8.6286064e-10
2.7784561e-08
8.2796107e-10
2.7353753e-08
7.9531884e-10
2.6937957e-08
7.6474909e-10
2.6536434e-08
7.3608136e-10
2.6148473e-08
7.0915989e-10
2.5773389e-08
6.8384355e-10
2.541053e-08
6.6000469e-10
2.505928e-08
6.3752826e-10
2.4719053e-08
6.1631032e-10
2.4389299e-08
5.9625693e-10
2.4069503e-08
5.7728294e-10
2.3759178e-08
5.5931091e-10
2.3457867e-08
5.422703e-10
2.3165144e-08
5.2609655e-10
2.2880607e-08
5.1073062e-10
2.2603879e-08
4.9611814e-10
2.2334606e-08
4.8220926e-10
2.2072456e-08
4.6895783e-10
2.1817116e-08
4.563218e-10
2.1568293e-08
4.4426182e-10
2.1325708e-08
4.327421e-10
2.10891e-08
4.2172895e-10
2.0858224e-08
4.1119197e-10
2.0632847e-08
4.0110222e-10
2.041275e-08
3.9143378e-10
2.0197723e-08
3.8216173e-10
1.9987572e-08
3.7326394e-10
1.9782109e-08
3.647188e-10
1.9581159e-08
3.5650742e-10
1.9384554e-08
3.4861089e-10
1.9192135e-08
3.4101304e-10
1.9003753e-08
3.3369733e-10
1.8819263e-08
3.2664984e-10
1.863853e-08
3.1985602e-10
1.8461424e-08
3.1330382e-10
1.8287822e-08
3.069803e-10
1.8117606e-08
3.0087508e-10
1.7950665e-08
2.949766e-10
1.7786892e-08
2.8927584e-10
1.7626185e-08
2.8376257e-10
1.7468446e-08
2.7842884e-10
1.7313584e-08
2.7326553e-10
1.7161509e-08
2.6826557e-10
1.7012137e-08
2.6342097e-10
1.6865386e-08
2.5872535e-10
1.6721178e-08
2.5417169e-10
1.657944e-08
2.497541e-10
1.64401e-08
2.4546654e-10
1.6303089e-08
2.4130345e-10
1.6168343e-08
2.3725974e-10
1.6035799e-08
2.3333006e-10
1.5905395e-08
2.2951026e-10
1.5777075e-08
2.2579502e-10
1.5650783e-08
2.2218112e-10
1.5526466e-08
2.1866328e-10
1.5404072e-08
2.1523906e-10
1.5283552e-08
2.1190321e-10
1.5164858e-08
2.086539e-10
1.5047946e-08
2.05486e-10
1.4932771e-08
2.023981e-10
1.4819291e-08
1.9938542e-10
1.4707465e-08
1.9644661e-10
1.4597255e-08
1.9357763e-10
1.4488623e-08
1.9077665e-10
1.4381533e-08
1.8804086e-10
1.4275949e-08
1.8536733e-10
1.4171839e-08
1.827551e-10
1.4069169e-08
1.8019935e-10
1.3967909e-08
1.7770177e-10
1.386803e-08
1.7525484e-10
1.3769501e-08
1.7286369e-10
1.3672296e-08
1.7051723e-10
1.3576386e-08
1.6822487e-10
1.3481748e-08
1.6597116e-10
1.3388355e-08
1.6377044e-10
1.3296186e-08
1.6160228e-10
1.3205214e-08
1.5948638e-10
1.3115422e-08
1.5739699e-10
1.3026783e-08
1.553594e-10
1.2939284e-08
1.5334237e-10
1.2852898e-08
1.5137678e-10
1.2767614e-08
1.4942613e-10
1.2683406e-08
1.4752652e-10
1.2600266e-08
1.4563649e-10
1.2518169e-08
1.4379717e-10
1.2437109e-08
1.4196209e-10
1.2357061e-08
1.4017755e-10
1.2278022e-08
1.3839169e-10
1.2199968e-08
1.3665661e-10
1.2122899e-08
1.349141e-10
1.204679e-08
1.3322335e-10
1.1971643e-08
1.3151828e-10
1.1897436e-08
1.298669e-10
1.1824173e-08
1.2819347e-10
1.175183e-08
1.2657645e-10
1.1680417e-08
1.2492914e-10
1.1609908e-08
1.2334106e-10
1.1540316e-08
1.217148e-10
1.1471617e-08
1.2014952e-10
1.1403826e-08
1.185397e-10
1.1336917e-08
1.1699028e-10
1.1270911e-08
1.1539274e-10
1.1205783e-08
1.1385163e-10
1.1141553e-08
1.1226224e-10
1.10782e-08
1.1072193e-10
1.1015745e-08
1.0913591e-10
1.0954169e-08
1.0758958e-10
1.0893494e-08
1.0600076e-10
1.0833705e-08
1.0444307e-10
1.0774824e-08
1.028435e-10
1.0716837e-08
1.0127087e-10
1.0659769e-08
9.9651095e-11
1.0603607e-08
9.8061171e-11
1.0548381e-08
9.6410915e-11
1.0494074e-08
9.4801068e-11
1.0440726e-08
9.311068e-11
1.0388311e-08
9.1476896e-11
1.0336881e-08
8.9739261e-11
1.0286404e-08
8.8075947e-11
1.0236939e-08
8.6287743e-11
1.018845e-08
8.4588129e-11
1.0141002e-08
8.2748971e-11
1.0094555e-08
8.1005665e-11
1.0049181e-08
7.9115922e-11
1.0004835e-08
7.732229e-11
9.9615931e-09
7.5381602e-11
9.9194096e-09
7.3534054e-11
9.8783619e-09
7.154153e-11
9.8384018e-09
6.9641248e-11
9.7996088e-09
6.7596654e-11
9.7619295e-09
6.564968e-11
9.7254469e-09
6.3554953e-11
9.6900985e-09
6.1571013e-11
9.6559726e-09
5.9432369e-11
9.6229938e-09
5.74245e-11
9.5912559e-09
5.5254704e-11
9.5606684e-09
5.3238903e-11
9.5313301e-09
5.1056496e-11
9.5031348e-09
4.9050064e-11
9.4761853e-09
4.6876557e-11
9.4503592e-09
4.4897604e-11
9.4257604e-09
4.2758524e-11
9.4022487e-09
4.0832391e-11
9.3799248e-09
3.8764442e-11
9.3586276e-09
3.6930716e-11
9.3384525e-09
3.4982195e-11
9.3192166e-09
3.3290025e-11
9.3010126e-09
3.1507615e-11
9.2836373e-09
2.9999621e-11
9.2671861e-09
2.8417463e-11
9.251437e-09
2.7121463e-11
9.2364913e-09
2.5766764e-11
9.2221099e-09
2.4701876e-11
9.2084014e-09
2.3601603e-11
9.1951165e-09
2.2777575e-11
9.1823786e-09
2.1938388e-11
9.1699431e-09
2.1327714e-11
9.1579622e-09
2.0703307e-11
9.1462126e-09
2.0213411e-11
9.1348799e-09
1.9707276e-11
9.123761e-09
1.9221081e-11
9.1130564e-09
1.8760283e-11
9.1025521e-09
1.8243988e-11
9.092433e-09
1.7875038e-11
9.0824293e-09
1.7443738e-11
9.0727083e-09
1.7322452e-11
9.06292e-09
1.716043e-11
1.7653524e-11
4.5947939e-08
2.5154272e-09
-4.5875344e-08
4.6260636e-08
3.2751624e-09
4.659496e-08
3.9412244e-09
4.6845844e-08
4.2577024e-09
4.7060819e-08
4.3640699e-09
4.7265384e-08
4.3853304e-09
4.7426244e-08
4.3510281e-09
4.7502587e-08
4.2244603e-09
4.747515e-08
3.9920165e-09
4.7347302e-08
3.6845941e-09
4.7138898e-08
3.3546706e-09
4.6873129e-08
3.0500084e-09
4.6567918e-08
2.7950101e-09
4.6233364e-08
2.5912797e-09
4.5873852e-08
2.4287517e-09
4.5494932e-08
2.2974205e-09
4.5101174e-08
2.1896246e-09
4.4695322e-08
2.0987862e-09
4.4278949e-08
2.0194468e-09
4.3853221e-08
1.9475983e-09
4.3419266e-08
1.8806442e-09
4.2978295e-08
1.8170765e-09
4.2531602e-08
1.756116e-09
4.2080531e-08
1.6974287e-09
4.1626443e-08
1.6409234e-09
4.1170656e-08
1.5866044e-09
4.0714408e-08
1.5344972e-09
4.0258845e-08
1.4846219e-09
3.9805e-08
1.4369553e-09
3.9353792e-08
1.3914364e-09
3.8906029e-08
1.3479778e-09
3.8462411e-08
1.3064785e-09
3.802354e-08
1.2668319e-09
3.7589927e-08
1.2289325e-09
3.7161996e-08
1.1926793e-09
3.67401e-08
1.1579779e-09
3.6324519e-08
1.1247409e-09
3.5915474e-08
1.0928889e-09
3.5513129e-08
1.0623489e-09
3.5117603e-08
1.0330547e-09
3.4728968e-08
1.0049453e-09
3.4347261e-08
9.779642e-10
3.3972485e-08
9.5205899e-10
3.3604615e-08
9.2718034e-10
3.3243604e-08
9.0328171e-10
3.2889381e-08
8.8031876e-10
3.2541863e-08
8.5824935e-10
3.2200948e-08
8.3703294e-10
3.1866526e-08
8.1663086e-10
3.1538478e-08
7.9700572e-10
3.1216678e-08
7.7812232e-10
3.0900994e-08
7.5994621e-10
3.059129e-08
7.4244518e-10
3.0287432e-08
7.2558752e-10
2.998928e-08
7.0934408e-10
2.9696696e-08
6.9368589e-10
2.9409543e-08
6.7858651e-10
2.9127685e-08
6.6401967e-10
2.8850988e-08
6.4996165e-10
2.8579318e-08
6.3638848e-10
2.8312546e-08
6.2327905e-10
2.8050546e-08
6.1061147e-10
2.7793192e-08
5.9836696e-10
2.7540364e-08
5.8652567e-10
2.7291943e-08
5.750709e-10
2.7047814e-08
5.6398462e-10
2.6807866e-08
5.5325191e-10
2.657199e-08
5.4285635e-10
2.634008e-08
5.3278472e-10
2.6112035e-08
5.2302198e-10
2.5887754e-08
5.1355634e-10
2.5667143e-08
5.0437428e-10
2.5450106e-08
4.9546511e-10
2.5236555e-08
4.8681658e-10
2.5026402e-08
4.7841899e-10
2.4819561e-08
4.7026142e-10
2.4615952e-08
4.6233494e-10
2.4415494e-08
4.546298e-10
2.421811e-08
4.4713766e-10
2.4023727e-08
4.3984997e-10
2.3832271e-08
4.3275877e-10
2.3643674e-08
4.2585673e-10
2.3457868e-08
4.1913611e-10
2.3274788e-08
4.125908e-10
2.309437e-08
4.0621311e-10
2.2916553e-08
3.999981e-10
2.2741278e-08
3.9393817e-10
2.2568488e-08
3.8802939e-10
2.2398126e-08
3.8226422e-10
2.2230141e-08
3.766395e-10
2.2064479e-08
3.7114791e-10
2.190109e-08
3.6578679e-10
2.1739926e-08
3.6054938e-10
2.158094e-08
3.5543303e-10
2.1424085e-08
3.5043207e-10
2.1269319e-08
3.4554312e-10
2.1116598e-08
3.4076226e-10
2.096588e-08
3.3608453e-10
2.0817127e-08
3.3150868e-10
2.0670299e-08
3.2702703e-10
2.0525359e-08
3.2264209e-10
2.0382271e-08
3.1834237e-10
2.0241e-08
3.1413523e-10
2.0101513e-08
3.1000417e-10
1.9963775e-08
3.0596256e-10
1.9827759e-08
3.0198778e-10
1.9693429e-08
2.9810011e-10
1.9560761e-08
2.9426996e-10
1.9429722e-08
2.9052515e-10
1.9300291e-08
2.8682855e-10
1.9172434e-08
2.8321591e-10
1.9046134e-08
2.7964235e-10
1.892136e-08
2.7615151e-10
1.8798095e-08
2.7269103e-10
1.8676309e-08
2.6931204e-10
1.8555991e-08
2.6595497e-10
1.843711e-08
2.6267831e-10
1.8319657e-08
2.594151e-10
1.8203603e-08
2.5623145e-10
1.8088942e-08
2.5305245e-10
1.7975646e-08
2.4995274e-10
1.7863712e-08
2.4684804e-10
1.7753112e-08
2.4382342e-10
1.7643847e-08
2.4078302e-10
1.7535889e-08
2.3782482e-10
1.7429244e-08
2.3483881e-10
1.7323882e-08
2.3193825e-10
1.7219814e-08
2.2899702e-10
1.711701e-08
2.2614469e-10
1.7015486e-08
2.2323912e-10
1.6915211e-08
2.2042453e-10
1.6816205e-08
2.1754604e-10
1.6718438e-08
2.147575e-10
1.6621932e-08
2.1189796e-10
1.6526661e-08
2.0912286e-10
1.6432649e-08
2.0627409e-10
1.6339872e-08
2.0349968e-10
1.6248355e-08
2.0065247e-10
1.6158078e-08
1.9786689e-10
1.6069068e-08
1.9501001e-10
1.5981308e-08
1.9220325e-10
1.5894829e-08
1.8932295e-10
1.5809612e-08
1.8648737e-10
1.5725696e-08
1.8356773e-10
1.564306e-08
1.8069728e-10
1.5561749e-08
1.7772115e-10
1.5481741e-08
1.7480948e-10
1.5403091e-08
1.717605e-10
1.5325768e-08
1.6879957e-10
1.5249843e-08
1.65665e-10
1.5175274e-08
1.6264491e-10
1.5102144e-08
1.5941736e-10
1.5030405e-08
1.5632688e-10
1.4960151e-08
1.5300319e-10
1.4891326e-08
1.4983047e-10
1.4824033e-08
1.4640879e-10
1.4758212e-08
1.4314338e-10
1.4693972e-08
1.3962153e-10
1.4631249e-08
1.3625795e-10
1.4570156e-08
1.3263393e-10
1.4510623e-08
1.2917439e-10
1.4452771e-08
1.2544837e-10
1.4396518e-08
1.2190321e-10
1.4341993e-08
1.1807968e-10
1.4289098e-08
1.1446611e-10
1.4237973e-08
1.1055715e-10
1.4188499e-08
1.0689899e-10
1.4140826e-08
1.0292738e-10
1.409481e-08
9.9254483e-11
1.4050614e-08
9.525262e-11
1.4008066e-08
9.1598574e-11
1.3967337e-08
8.7604941e-11
1.3928228e-08
8.4007301e-11
1.3890917e-08
8.0069291e-11
1.385517e-08
7.6579639e-11
1.382117e-08
7.2763852e-11
1.3788644e-08
6.9456593e-11
1.375778e-08
6.5846977e-11
1.372826e-08
6.2809393e-11
1.3700283e-08
5.9485243e-11
1.367349e-08
5.6792457e-11
1.3648096e-08
5.3811543e-11
1.3623702e-08
5.1514687e-11
1.3600549e-08
4.8920558e-11
1.3578197e-08
4.7053749e-11
1.3556917e-08
4.4881495e-11
1.3536239e-08
4.3455013e-11
1.3516481e-08
4.1696777e-11
1.3497156e-08
4.0653216e-11
1.3478647e-08
3.9211702e-11
1.3460467e-08
3.8393953e-11
1.3443073e-08
3.7100733e-11
1.3425964e-08
3.6329931e-11
1.3409653e-08
3.5071621e-11
1.339358e-08
3.431676e-11
1.3378277e-08
3.317788e-11
1.3363082e-08
3.2639114e-11
1.334852e-08
3.1884916e-11
1.3333856e-08
3.1823947e-11
3.209343e-11
4.7965416e-08
2.4578893e-09
-4.7907878e-08
4.8192247e-08
3.0483307e-09
4.8509306e-08
3.6241653e-09
4.8791176e-08
3.9758328e-09
4.9034961e-08
4.1202844e-09
4.9272159e-08
4.1481328e-09
4.9502033e-08
4.1211539e-09
4.969701e-08
4.0294832e-09
4.9831506e-08
3.8575205e-09
4.9895994e-08
3.6201061e-09
4.9898421e-08
3.3522438e-09
4.9855384e-08
3.0930455e-09
4.9781142e-08
2.8692524e-09
4.9684036e-08
2.688385e-09
4.9567753e-08
2.5450354e-09
4.9435172e-08
2.4300006e-09
4.9288943e-08
2.3358542e-09
4.9130687e-08
2.2570418e-09
4.8960995e-08
2.1891393e-09
4.8779895e-08
2.1286978e-09
4.8587285e-08
2.0732548e-09
4.8383139e-08
2.0212222e-09
4.8167589e-08
1.9716657e-09
4.7940931e-08
1.9240867e-09
4.7703607e-08
1.8782476e-09
4.7456163e-08
1.8340483e-09
4.7199215e-08
1.7914456e-09
4.6933425e-08
1.7504119e-09
4.6659475e-08
1.7109051e-09
4.637805e-08
1.6728617e-09
4.6089826e-08
1.6362015e-09
4.5795468e-08
1.6008363e-09
4.5495624e-08
1.5666764e-09
4.519092e-08
1.5336362e-09
4.4881963e-08
1.5016364e-09
4.4569335e-08
1.4706058e-09
4.4253594e-08
1.4404819e-09
4.3935272e-08
1.4112105e-09
4.3614876e-08
1.3827451e-09
4.3292885e-08
1.3550462e-09
4.296975e-08
1.3280802e-09
4.2645896e-08
1.3018182e-09
4.2321719e-08
1.2762354e-09
4.199759e-08
1.2513098e-09
4.167385e-08
1.2270221e-09
4.1350814e-08
1.2033543e-09
4.1028773e-08
1.1802903e-09
4.0707992e-08
1.1578143e-09
4.0388711e-08
1.1359117e-09
4.0071149e-08
1.114568e-09
3.9755501e-08
1.0937697e-09
3.9441945e-08
1.0735029e-09
3.9130635e-08
1.0537548e-09
3.8821711e-08
1.0345117e-09
3.8515293e-08
1.0157615e-09
3.8211489e-08
9.9749063e-10
3.7910388e-08
9.7968735e-10
3.7612069e-08
9.6233861e-10
3.7316597e-08
9.4543311e-10
3.7024028e-08
9.2895793e-10
3.6734404e-08
9.1290244e-10
3.6447762e-08
8.9725382e-10
3.6164127e-08
8.8200198e-10
3.5883518e-08
8.6713446e-10
3.5605948e-08
8.5264169e-10
3.5331421e-08
8.3851161e-10
3.5059937e-08
8.2473504e-10
3.4791494e-08
8.1130025e-10
3.452608e-08
7.9819872e-10
3.4263683e-08
7.85419e-10
3.4004286e-08
7.7295302e-10
3.374787e-08
7.6079002e-10
3.3494413e-08
7.4892222e-10
3.324389e-08
7.3733943e-10
3.2996275e-08
7.2603417e-10
3.2751539e-08
7.1499704e-10
3.2509654e-08
7.0422076e-10
3.2270587e-08
6.9369666e-10
3.2034307e-08
6.8341753e-10
3.1800781e-08
6.7337559e-10
3.1569976e-08
6.6356361e-10
3.1341858e-08
6.5397475e-10
3.1116393e-08
6.4460165e-10
3.0893545e-08
6.3543853e-10
3.067328e-08
6.2647774e-10
3.0455564e-08
6.1771459e-10
3.0240361e-08
6.0914125e-10
3.0027636e-08
6.007539e-10
2.9817356e-08
5.9254465e-10
2.9609485e-08
5.8451026e-10
2.940399e-08
5.7664303e-10
2.9200837e-08
5.6893999e-10
2.8999992e-08
5.613941e-10
2.8801423e-08
5.5400205e-10
2.8605097e-08
5.4675816e-10
2.8410982e-08
5.3965789e-10
2.8219047e-08
5.3269783e-10
2.802926e-08
5.2587106e-10
2.7841591e-08
5.1917768e-10
2.7656011e-08
5.12607e-10
2.7472489e-08
5.0616398e-10
2.7290999e-08
4.9983273e-10
2.711151e-08
4.936246e-10
2.6933997e-08
4.8751695e-10
2.675843e-08
4.8152895e-10
2.6584788e-08
4.7562985e-10
2.6413041e-08
4.6984781e-10
2.6243168e-08
4.6414284e-10
2.607514e-08
4.58553e-10
2.590894e-08
4.5302824e-10
2.5744539e-08
4.4761705e-10
2.5581922e-08
4.4225904e-10
2.5421061e-08
4.3701313e-10
2.5261943e-08
4.318089e-10
2.510454e-08
4.2671531e-10
2.4948843e-08
4.2165202e-10
2.4794823e-08
4.1669809e-10
2.4642475e-08
4.1176293e-10
2.449177e-08
4.0693609e-10
2.4342707e-08
4.0211592e-10
2.4195256e-08
3.9740372e-10
2.4049419e-08
3.9268485e-10
2.3905167e-08
3.8807499e-10
2.3762507e-08
3.8344343e-10
2.3621408e-08
3.7892363e-10
2.3481882e-08
3.7436533e-10
2.3343897e-08
3.6992298e-10
2.320747e-08
3.6542405e-10
2.3072569e-08
3.6104559e-10
2.2939216e-08
3.5659255e-10
2.2807377e-08
3.5226285e-10
2.2677081e-08
3.4784269e-10
2.2548293e-08
3.4354489e-10
2.2421046e-08
3.3914488e-10
2.2295308e-08
3.3486076e-10
2.2171115e-08
3.3046787e-10
2.2048436e-08
3.261788e-10
2.192731e-08
3.2177844e-10
2.180771e-08
3.1746666e-10
2.1689678e-08
3.1304146e-10
2.157319e-08
3.086914e-10
2.1458293e-08
3.0422056e-10
2.1344961e-08
2.9981944e-10
2.1233249e-08
2.9527922e-10
2.112313e-08
2.9081612e-10
2.101467e-08
2.8618106e-10
2.0907835e-08
2.8164468e-10
2.0802705e-08
2.7689021e-10
2.0699238e-08
2.7226718e-10
2.0597529e-08
2.6737334e-10
2.0497526e-08
2.626482e-10
2.0399342e-08
2.5760193e-10
2.0302911e-08
2.5275783e-10
2.0208362e-08
2.4755156e-10
2.0115622e-08
2.4257115e-10
2.0024831e-08
2.3719935e-10
1.9935907e-08
2.3206758e-10
1.9849003e-08
2.2652489e-10
1.9764027e-08
2.2123391e-10
1.9681145e-08
2.155163e-10
1.960025e-08
2.1006937e-10
1.9521522e-08
2.0417696e-10
1.9444835e-08
1.9858942e-10
1.9370385e-08
1.9252957e-10
1.9298024e-08
1.8682767e-10
1.9227962e-08
1.8061937e-10
1.916002e-08
1.7484019e-10
1.909443e-08
1.6851823e-10
1.9030975e-08
1.6270911e-10
1.8969905e-08
1.5632276e-10
1.8910965e-08
1.5053869e-10
1.8854422e-08
1.4414789e-10
1.8799976e-08
1.3845262e-10
1.8747913e-08
1.3213262e-10
1.869788e-08
1.2661242e-10
1.8650177e-08
1.2046704e-10
1.8604393e-08
1.1524094e-10
1.8560842e-08
1.0939802e-10
1.8519049e-08
1.0460186e-10
1.8479353e-08
9.9181427e-11
1.8441213e-08
9.4932734e-11
1.8405001e-08
9.0022903e-11
1.8370112e-08
8.6404193e-11
1.8336964e-08
8.2068736e-11
1.8304884e-08
7.9133884e-11
1.827435e-08
7.5415455e-11
1.824463e-08
7.3175037e-11
1.8216282e-08
7.0044867e-11
1.8188529e-08
6.8405636e-11
1.8162037e-08
6.570405e-11
1.8135996e-08
6.4434998e-11
1.8111186e-08
6.190998e-11
1.8086754e-08
6.0762783e-11
1.8063569e-08
5.8256094e-11
1.8040686e-08
5.7199926e-11
1.8019019e-08
5.4845078e-11
1.7997498e-08
5.4159586e-11
1.7977011e-08
5.2372284e-11
1.7956464e-08
5.2370601e-11
5.209735e-11
5.0049871e-08
2.397521e-09
-4.9989503e-08
5.0224374e-08
2.8738279e-09
5.0496793e-08
3.3517468e-09
5.0772191e-08
3.700434e-09
5.101643e-08
3.8760457e-09
5.1241463e-08
3.9231005e-09
5.1460696e-08
3.9019201e-09
5.1662121e-08
3.8280586e-09
5.1825125e-08
3.6945165e-09
5.1937777e-08
3.5074544e-09
5.2001783e-08
3.2882379e-09
5.2028723e-08
3.0661054e-09
5.2031635e-08
2.8663405e-09
5.2019017e-08
2.7010022e-09
5.1995229e-08
2.5688237e-09
5.1962487e-08
2.4627429e-09
5.1922511e-08
2.37583e-09
5.1876525e-08
2.303028e-09
5.1825011e-08
2.240653e-09
5.1767837e-08
2.1858722e-09
5.1704552e-08
2.136539e-09
5.1634637e-08
2.0911375e-09
5.1557628e-08
2.0486746e-09
5.1473173e-08
2.0085421e-09
5.1381036e-08
1.9703849e-09
5.1281083e-08
1.934001e-09
5.1173263e-08
1.8992655e-09
5.105759e-08
1.8660849e-09
5.0934125e-08
1.8343697e-09
5.0802965e-08
1.8040226e-09
5.0664229e-08
1.7749366e-09
5.0518065e-08
1.7470011e-09
5.0364635e-08
1.7201062e-09
5.0204122e-08
1.6941485e-09
5.0036727e-08
1.6690321e-09
4.9862661e-08
1.6446711e-09
4.9682154e-08
1.6209891e-09
4.9495445e-08
1.59792e-09
4.9302784e-08
1.5754062e-09
4.9104431e-08
1.5533993e-09
4.8900653e-08
1.5318577e-09
4.8691725e-08
1.5107468e-09
4.8477922e-08
1.4900374e-09
4.8259527e-08
1.4697049e-09
4.8036821e-08
1.4497288e-09
4.7810083e-08
1.4300915e-09
4.7579595e-08
1.4107784e-09
4.7345633e-08
1.3917768e-09
4.7108469e-08
1.3730761e-09
4.686837e-08