/*--------------------------------*- C++ -*----------------------------------*\
| =========                 |                                                 |
| \\      /  F ield         | OpenFOAM: The Open Source CFD Toolbox           |
|  \\    /   O peration     | Version:  5.x                                   |
|   \\  /    A nd           | Web:      www.OpenFOAM.org                      |
|    \\/     M anipulation  |                                                 |
\*---------------------------------------------------------------------------*/
FoamFile
{
    version     2.0;
    format      ascii;
    class       volVectorField;
    location    "0.4";
    object      U;
}
// * * * * * * * * * * * * * * * * * * * * * * * * * * * * * * * * * * * * * //

dimensions      [0 1 -1 0 0 0 0];

internalField   nonuniform List<vector> 
21600
(
(0.44557391 0.0096599792 0)
(0.40256192 0.013137654 0)
(0.36163791 0.013389957 0)
(0.32007385 0.012308701 0)
(0.27847481 0.011029131 0)
(0.23872995 0.0096280797 0)
(0.20297936 0.0078996777 0)
(0.1730146 0.0058423014 0)
(0.14932033 0.0036673654 0)
(0.13152069 0.0018299638 0)
(0.11855636 0.00060875946 0)
(0.10924569 -4.4848625e-05 0)
(0.10257189 -0.00031933977 0)
(0.097692899 -0.00036964665 0)
(0.093977112 -0.00030756646 0)
(0.090957324 -0.0001992258 0)
(0.088324125 -8.6897814e-05 0)
(0.085899036 5.9586486e-06 0)
(0.083595192 7.1925695e-05 0)
(0.08138164 0.00011295096 0)
(0.079255414 0.00013458881 0)
(0.077223377 0.0001428348 0)
(0.075292757 0.00014274866 0)
(0.073467381 0.00013804484 0)
(0.071746976 0.00013117196 0)
(0.070127831 0.00012358179 0)
(0.068603967 0.00011605094 0)
(0.067168157 0.00010895707 0)
(0.065812783 0.00010243959 0)
(0.064530429 9.6512422e-05 0)
(0.063314231 9.1134738e-05 0)
(0.062158017 8.624736e-05 0)
(0.061056343 8.1788957e-05 0)
(0.060004449 7.7703184e-05 0)
(0.058998195 7.3940918e-05 0)
(0.058033972 7.0460696e-05 0)
(0.057108629 6.7227905e-05 0)
(0.056219395 6.4213985e-05 0)
(0.055363818 6.1395337e-05 0)
(0.054539708 5.8752502e-05 0)
(0.053745101 5.6269288e-05 0)
(0.052978211 5.3932107e-05 0)
(0.052237416 5.1729378e-05 0)
(0.051521222 4.9651027e-05 0)
(0.05082826 4.7688197e-05 0)
(0.050157259 4.5832874e-05 0)
(0.049507048 4.4077854e-05 0)
(0.048876531 4.2416378e-05 0)
(0.048264698 4.084232e-05 0)
(0.047670602 3.9349865e-05 0)
(0.047093366 3.7933786e-05 0)
(0.046532166 3.6588946e-05 0)
(0.045986241 3.5310818e-05 0)
(0.045454872 3.4094916e-05 0)
(0.044937395 3.293743e-05 0)
(0.044433181 3.1834463e-05 0)
(0.043941646 3.0782809e-05 0)
(0.04346224 2.9779053e-05 0)
(0.042994449 2.8820521e-05 0)
(0.042537785 2.7904231e-05 0)
(0.042091797 2.7027986e-05 0)
(0.041656051 2.6189172e-05 0)
(0.041230145 2.5385981e-05 0)
(0.040813695 2.4616093e-05 0)
(0.040406341 2.3878012e-05 0)
(0.040007741 2.3169666e-05 0)
(0.03961757 2.2489821e-05 0)
(0.039235524 2.1836616e-05 0)
(0.038861309 2.1209026e-05 0)
(0.038494653 2.0605386e-05 0)
(0.03813529 2.0024831e-05 0)
(0.037782974 1.9465885e-05 0)
(0.037437465 1.8927784e-05 0)
(0.037098541 1.8409226e-05 0)
(0.036765984 1.790952e-05 0)
(0.036439592 1.7427569e-05 0)
(0.036119165 1.6962712e-05 0)
(0.035804524 1.651404e-05 0)
(0.035495483 1.6080864e-05 0)
(0.03519188 1.5662481e-05 0)
(0.034893545 1.5258164e-05 0)
(0.034600329 1.4867432e-05 0)
(0.034312078 1.4489479e-05 0)
(0.034028655 1.4124027e-05 0)
(0.033749918 1.3770182e-05 0)
(0.033475743 1.3427883e-05 0)
(0.033205998 1.3096158e-05 0)
(0.032940569 1.277512e-05 0)
(0.032679336 1.2463728e-05 0)
(0.032422193 1.2162219e-05 0)
(0.032169029 1.1869552e-05 0)
(0.031919748 1.1586002e-05 0)
(0.031674245 1.1310608e-05 0)
(0.031432434 1.1043566e-05 0)
(0.031194218 1.0784142e-05 0)
(0.030959516 1.0532304e-05 0)
(0.030728239 1.0287697e-05 0)
(0.030500312 1.004988e-05 0)
(0.030275653 9.819055e-06 0)
(0.030054193 9.5941513e-06 0)
(0.029835853 9.3761546e-06 0)
(0.029620574 9.1631532e-06 0)
(0.029408281 8.9570858e-06 0)
(0.02919892 8.7550558e-06 0)
(0.028992417 8.5601312e-06 0)
(0.02878873 8.3682296e-06 0)
(0.028587784 8.1836915e-06 0)
(0.028389546 8.0011947e-06 0)
(0.028193939 7.8263114e-06 0)
(0.028000942 7.6525508e-06 0)
(0.027810474 7.4866467e-06 0)
(0.027622527 7.3209878e-06 0)
(0.027437014 7.1634204e-06 0)
(0.027253942 7.0053238e-06 0)
(0.027073215 6.8554649e-06 0)
(0.026894857 6.7044378e-06 0)
(0.026718762 6.5617531e-06 0)
(0.026544971 6.4172997e-06 0)
(0.026373368 6.2813274e-06 0)
(0.026204012 6.1429307e-06 0)
(0.026036774 6.013265e-06 0)
(0.025871734 5.8803879e-06 0)
(0.025708748 5.7566579e-06 0)
(0.025547919 5.6287698e-06 0)
(0.025389087 5.5106391e-06 0)
(0.025232377 5.3872758e-06 0)
(0.025077612 5.2743916e-06 0)
(0.024924942 5.1552048e-06 0)
(0.024774173 5.0471428e-06 0)
(0.024625477 4.9319458e-06 0)
(0.024478643 4.8281474e-06 0)
(0.024333867 4.716904e-06 0)
(0.024190925 4.616696e-06 0)
(0.024050027 4.5094677e-06 0)
(0.023910944 4.412133e-06 0)
(0.023773897 4.3089775e-06 0)
(0.023638658 4.2139192e-06 0)
(0.023505446 4.1147289e-06 0)
(0.023374049 4.0216142e-06 0)
(0.023244671 3.9259807e-06 0)
(0.023117129 3.8348454e-06 0)
(0.022991601 3.7420156e-06 0)
(0.022867941 3.65324e-06 0)
(0.022746289 3.5622671e-06 0)
(0.022626554 3.4763994e-06 0)
(0.022508819 3.3863564e-06 0)
(0.022393064 3.3037482e-06 0)
(0.022279303 3.2139822e-06 0)
(0.022167599 3.1345202e-06 0)
(0.022057883 3.0448555e-06 0)
(0.02195032 2.9679345e-06 0)
(0.021844731 2.8787976e-06 0)
(0.02174141 2.8035507e-06 0)
(0.02164004 2.7157228e-06 0)
(0.021541072 2.6412771e-06 0)
(0.021444014 2.5554468e-06 0)
(0.021349521 2.4811329e-06 0)
(0.021256875 2.3975226e-06 0)
(0.021166986 2.323059e-06 0)
(0.021078857 2.2414402e-06 0)
(0.020993712 2.1669882e-06 0)
(0.020910205 2.0868987e-06 0)
(0.020829943 2.0129098e-06 0)
(0.020751155 1.9339495e-06 0)
(0.020675913 1.860818e-06 0)
(0.020601925 1.7828505e-06 0)
(0.020531827 1.710761e-06 0)
(0.020462692 1.6341775e-06 0)
(0.020397837 1.5632018e-06 0)
(0.020333567 1.4888793e-06 0)
(0.020274018 1.4189901e-06 0)
(0.020214577 1.3478378e-06 0)
(0.020160363 1.2786094e-06 0)
(0.020105671 1.2111276e-06 0)
(0.020056792 1.1419854e-06 0)
(0.020006714 1.0788129e-06 0)
(0.019963116 1.0099992e-06 0)
(0.019917418 9.5265405e-07 0)
(0.019878934 8.8575697e-07 0)
(0.019837232 8.3622651e-07 0)
(0.019803568 7.7291967e-07 0)
(0.019765337 7.3275421e-07 0)
(0.019736107 6.7342158e-07 0)
(0.019700719 6.4398148e-07 0)
(0.019675478 5.8838674e-07 0)
(0.019642203 5.7214176e-07 0)
(0.019620423 5.2118059e-07 0)
(0.019588395 5.2150604e-07 0)
(0.019569473 4.7616626e-07 0)
(0.01953775 4.9515944e-07 0)
(0.019521168 4.5246079e-07 0)
(0.019488954 4.8803354e-07 0)
(0.019474546 4.3997675e-07 0)
(0.019441378 4.8721829e-07 0)
(0.019429407 4.2587364e-07 0)
(0.019394959 4.8491903e-07 0)
(0.019385825 4.08056e-07 0)
(0.019349277 4.8991645e-07 0)
(0.019343338 3.9566808e-07 0)
(0.01930229 5.3424273e-07 0)
(0.47648694 0.016891963 0)
(0.47437568 0.0235952 0)
(0.4705827 0.025573899 0)
(0.46342337 0.025282513 0)
(0.45229715 0.024406219 0)
(0.43780512 0.023240901 0)
(0.42103487 0.021515339 0)
(0.40321994 0.019075638 0)
(0.38513733 0.016044936 0)
(0.36743773 0.012844846 0)
(0.35051406 0.0099266474 0)
(0.33458905 0.0075369136 0)
(0.31986174 0.0057116172 0)
(0.30639936 0.0043735689 0)
(0.29422597 0.003440339 0)
(0.28325573 0.0028193317 0)
(0.27334868 0.00241528 0)
(0.26435729 0.0021464519 0)
(0.25614811 0.0019547467 0)
(0.24860883 0.0018044531 0)
(0.24164851 0.0016759433 0)
(0.23519438 0.0015596021 0)
(0.22918775 0.0014514832 0)
(0.22358023 0.0013504967 0)
(0.21833093 0.001256715 0)
(0.21340441 0.0011704344 0)
(0.20876957 0.0010917438 0)
(0.20439873 0.0010204426 0)
(0.2002672 0.00095606513 0)
(0.19635299 0.00089797946 0)
(0.19263657 0.0008454906 0)
(0.18910066 0.00079791555 0)
(0.18572998 0.00075462446 0)
(0.18251103 0.00071506015 0)
(0.17943189 0.00067874221 0)
(0.17648198 0.00064526406 0)
(0.17365192 0.00061428482 0)
(0.17093331 0.00058552029 0)
(0.16831864 0.00055873308 0)
(0.16580111 0.00053372416 0)
(0.1633746 0.00051032501 0)
(0.16103352 0.00048839157 0)
(0.15877277 0.00046779912 0)
(0.15658768 0.00044843832 0)
(0.15447397 0.00043021241 0)
(0.15242764 0.00041303461 0)
(0.15044507 0.00039682689 0)
(0.14852285 0.00038151814 0)
(0.14665785 0.00036704375 0)
(0.14484715 0.00035334419 0)
(0.14308803 0.00034036557 0)
(0.14137798 0.00032805768 0)
(0.13971465 0.0003163752 0)
(0.13809582 0.00030527555 0)
(0.13651947 0.0002947207 0)
(0.13498365 0.00028467447 0)
(0.13348659 0.00027510492 0)
(0.1320266 0.00026598118 0)
(0.13060209 0.00025727641 0)
(0.12921157 0.00024896413 0)
(0.12785366 0.00024102173 0)
(0.12652702 0.00023342637 0)
(0.12523043 0.000226159 0)
(0.12396271 0.0002191998 0)
(0.12272275 0.00021253262 0)
(0.12150951 0.00020614014 0)
(0.12032198 0.0002000086 0)
(0.11915925 0.00019412275 0)
(0.1180204 0.00018847079 0)
(0.11690461 0.00018303927 0)
(0.11581106 0.00017781806 0)
(0.114739 0.00017279532 0)
(0.11368769 0.00016796219 0)
(0.11265646 0.00016330823 0)
(0.11164463 0.00015882561 0)
(0.1106516 0.00015450525 0)
(0.10967675 0.00015034013 0)
(0.10871952 0.0001463224 0)
(0.10777936 0.00014244555 0)
(0.10685576 0.00013870289 0)
(0.10594821 0.00013508828 0)
(0.10505625 0.00013159626 0)
(0.10417941 0.00012822086 0)
(0.10331728 0.00012495769 0)
(0.10246941 0.00012180084 0)
(0.10163543 0.00011874701 0)
(0.10081494 0.00011579033 0)
(0.10000759 0.00011292843 0)
(0.099213007 0.00011015546 0)
(0.098430873 0.00010746973 0)
(0.097660847 0.00010486557 0)
(0.096902634 0.00010234176 0)
(0.096155921 9.9893061e-05 0)
(0.095420435 9.7518257e-05 0)
(0.094695886 9.5212978e-05 0)
(0.093982023 9.2975505e-05 0)
(0.093278578 9.0802811e-05 0)
(0.092585318 8.8692036e-05 0)
(0.091901996 8.6642113e-05 0)
(0.091228396 8.464827e-05 0)
(0.090564289 8.2712145e-05 0)
(0.08990948 8.0826325e-05 0)
(0.089263749 7.899576e-05 0)
(0.088626924 7.7209773e-05 0)
(0.087998792 7.5477322e-05 0)
(0.087379209 7.3783721e-05 0)
(0.086767957 7.2142438e-05 0)
(0.086164927 7.0534509e-05 0)
(0.085569893 6.8977917e-05 0)
(0.084982783 6.7449443e-05 0)
(0.084403355 6.5971542e-05 0)
(0.083831581 6.4516774e-05 0)
(0.083267197 6.3111911e-05 0)
(0.082710222 6.172568e-05 0)
(0.082160367 6.038856e-05 0)
(0.081617703 5.9066059e-05 0)
(0.081081906 5.7791888e-05 0)
(0.080553104 5.652854e-05 0)
(0.080030939 5.5312911e-05 0)
(0.079515595 5.4104267e-05 0)
(0.079006676 5.2943122e-05 0)
(0.078504428 5.178482e-05 0)
(0.078008413 5.0674418e-05 0)
(0.077518941 4.9562263e-05 0)
(0.077035528 4.849915e-05 0)
(0.076558553 4.7429286e-05 0)
(0.076087482 4.6410123e-05 0)
(0.075622766 4.5379164e-05 0)
(0.075163817 4.4400489e-05 0)
(0.074711159 4.3405658e-05 0)
(0.074264155 4.2463665e-05 0)
(0.073823395 4.150278e-05 0)
(0.073388202 4.0593329e-05 0)
(0.072959219 3.9664681e-05 0)
(0.07253575 3.8783517e-05 0)
(0.072118465 3.7885546e-05 0)
(0.071706678 3.702879e-05 0)
(0.071301051 3.6159564e-05 0)
(0.070900952 3.5324217e-05 0)
(0.070506988 3.448093e-05 0)
(0.070118631 3.3665283e-05 0)
(0.069736381 3.2844071e-05 0)
(0.069359863 3.2047748e-05 0)
(0.068989422 3.1244047e-05 0)
(0.068624885 3.0467463e-05 0)
(0.068266397 2.9676627e-05 0)
(0.067914028 2.891985e-05 0)
(0.067567685 2.8138041e-05 0)
(0.067227721 2.7399935e-05 0)
(0.066893757 2.6625077e-05 0)
(0.066566481 2.5903183e-05 0)
(0.066245167 2.5135516e-05 0)
(0.065930903 2.4426574e-05 0)
(0.06562253 2.3667898e-05 0)
(0.065321638 2.2968461e-05 0)
(0.065026516 2.2220622e-05 0)
(0.064739388 2.15278e-05 0)
(0.06445784 2.0791535e-05 0)
(0.0641849 2.0103952e-05 0)
(0.063917259 1.9378905e-05 0)
(0.063658946 1.86972e-05 0)
(0.063405533 1.7982587e-05 0)
(0.063162283 1.7309049e-05 0)
(0.062923389 1.6604529e-05 0)
(0.062695609 1.5942041e-05 0)
(0.062471465 1.5248576e-05 0)
(0.06225951 1.4600137e-05 0)
(0.06205025 1.3921001e-05 0)
(0.061854386 1.3289727e-05 0)
(0.06166001 1.263013e-05 0)
(0.061480393 1.2018749e-05 0)
(0.061300744 1.1384158e-05 0)
(0.061137411 1.0794238e-05 0)
(0.060972168 1.0189701e-05 0)
(0.060825018 9.6236129e-06 0)
(0.060673628 9.0564714e-06 0)
(0.060542335 8.5208946e-06 0)
(0.060403908 8.0023003e-06 0)
(0.060287815 7.5081473e-06 0)
(0.060161054 7.0493437e-06 0)
(0.060059184 6.6058869e-06 0)
(0.059942435 6.2142647e-06 0)
(0.059853591 5.8250584e-06 0)
(0.059744932 5.5063302e-06 0)
(0.05966777 5.1723326e-06 0)
(0.059565024 4.9349651e-06 0)
(0.05949807 4.6581633e-06 0)
(0.05939884 4.5091612e-06 0)
(0.059340651 4.2850669e-06 0)
(0.059242598 4.2191058e-06 0)
(0.059192227 4.0232914e-06 0)
(0.059093555 4.0174849e-06 0)
(0.059051022 3.8111233e-06 0)
(0.058950646 3.8416478e-06 0)
(0.058916823 3.6015729e-06 0)
(0.058813623 3.6764109e-06 0)
(0.058789432 3.4179534e-06 0)
(0.058680776 3.5831231e-06 0)
(0.05866697 3.3412672e-06 0)
(0.058546837 3.7017142e-06 0)
(0.47974719 0.015744766 0)
(0.48106556 0.021483452 0)
(0.48386775 0.024574355 0)
(0.48654196 0.025585251 0)
(0.48780605 0.025701174 0)
(0.48722542 0.025400506 0)
(0.48484411 0.024567053 0)
(0.48087458 0.02299922 0)
(0.4755027 0.020774888 0)
(0.46893036 0.018207099 0)
(0.46141381 0.015684667 0)
(0.45320602 0.013475294 0)
(0.4446084 0.011671882 0)
(0.4358563 0.010232955 0)
(0.4271574 0.009095527 0)
(0.41861195 0.0081919788 0)
(0.41026025 0.0074594447 0)
(0.40211594 0.0068464005 0)
(0.39418268 0.0063159525 0)
(0.38646135 0.0058444748 0)
(0.37895317 0.0054178833 0)
(0.37166049 0.0050280751 0)
(0.36458645 0.0046704339 0)
(0.35773399 0.0043422342 0)
(0.35110502 0.004041647 0)
(0.34469975 0.0037671367 0)
(0.33851666 0.0035171682 0)
(0.3325524 0.0032900227 0)
(0.32680203 0.0030838066 0)
(0.32125936 0.0028965471 0)
(0.31591726 0.0027262939 0)
(0.31076795 0.0025711991 0)
(0.30580329 0.0024295621 0)
(0.30101497 0.0022998529 0)
(0.29639468 0.0021807141 0)
(0.29193424 0.0020709565 0)
(0.28762571 0.0019695452 0)
(0.28346145 0.001875585 0)
(0.27943417 0.0017883023 0)
(0.27553691 0.0017070291 0)
(0.27176312 0.0016311864 0)
(0.2681066 0.0015602709 0)
(0.26456155 0.001493842 0)
(0.26112247 0.0014315124 0)
(0.25778424 0.0013729392 0)
(0.25454203 0.001317817 0)
(0.25139134 0.0012658729 0)
(0.24832789 0.0012168609 0)
(0.24534773 0.0011705597 0)
(0.2424471 0.0011267682 0)
(0.23962249 0.0010853046 0)
(0.23687058 0.0010460023 0)
(0.23418827 0.001008711 0)
(0.23157261 0.00097329161 0)
(0.22902084 0.00093961904 0)
(0.22653035 0.00090757661 0)
(0.22409867 0.00087705974 0)
(0.22172347 0.00084796984 0)
(0.21940255 0.00082021909 0)
(0.21713381 0.00079372354 0)
(0.21491529 0.00076840908 0)
(0.2127451 0.00074420377 0)
(0.21062147 0.0007210448 0)
(0.20854271 0.00069887016 0)
(0.20650722 0.00067762639 0)
(0.20451348 0.00065725962 0)
(0.20256003 0.00063772408 0)
(0.2006455 0.00061897266 0)
(0.19876857 0.00060096593 0)
(0.196928 0.00058366261 0)
(0.19512259 0.0005670286 0)
(0.1933512 0.00055102765 0)
(0.19161275 0.00053563 0)
(0.1899062 0.00052080374 0)
(0.18823055 0.00050652267 0)
(0.18658488 0.00049275887 0)
(0.18496826 0.00047948907 0)
(0.18337983 0.00046668888 0)
(0.18181876 0.00045433717 0)
(0.18028426 0.00044241285 0)
(0.17877556 0.00043089651 0)
(0.17729195 0.0004197702 0)
(0.17583269 0.00040901576 0)
(0.17439716 0.00039861808 0)
(0.17298467 0.00038855991 0)
(0.17159464 0.00037882881 0)
(0.17022644 0.00036940831 0)
(0.16887953 0.0003602883 0)
(0.16755333 0.00035145294 0)
(0.16624735 0.00034289395 0)
(0.16496105 0.00033459632 0)
(0.16369396 0.00032655311 0)
(0.16244561 0.00031875055 0)
(0.16121554 0.00031118226 0)
(0.16000332 0.00030383636 0)
(0.15880853 0.00029670598 0)
(0.15763077 0.00028978199 0)
(0.15646966 0.00028305583 0)
(0.15532481 0.0002765222 0)
(0.15419586 0.00027016943 0)
(0.15308248 0.00026399738 0)
(0.15198433 0.00025798985 0)
(0.15090108 0.00025215305 0)
(0.14983244 0.00024646495 0)
(0.14877809 0.00024093943 0)
(0.14773777 0.00023554721 0)
(0.14671116 0.00023031078 0)
(0.14569806 0.00022519295 0)
(0.14469813 0.00022022507 0)
(0.14371124 0.00021536177 0)
(0.14273701 0.00021064335 0)
(0.14177539 0.00020601626 0)
(0.14082596 0.00020152947 0)
(0.13988874 0.00019712185 0)
(0.13896328 0.00019285009 0)
(0.13804968 0.00018864639 0)
(0.13714742 0.00018457438 0)
(0.13625672 0.00018055991 0)
(0.13537698 0.00017667347 0)
(0.13450852 0.00017283417 0)
(0.13365068 0.00016912008 0)
(0.13280387 0.00016544242 0)
(0.13196738 0.00016188844 0)
(0.13114171 0.00015835951 0)
(0.13032607 0.00015495425 0)
(0.12952109 0.00015156201 0)
(0.12872589 0.00014829462 0)
(0.1279412 0.00014502809 0)
(0.12716609 0.00014188777 0)
(0.12640139 0.00013873722 0)
(0.12564608 0.00013571272 0)
(0.12490109 0.00013266972 0)
(0.12416537 0.00012974935 0)
(0.12343992 0.00012680655 0)
(0.12272366 0.00012397852 0)
(0.12201762 0.00012112912 0)
(0.12132076 0.00011838235 0)
(0.12063407 0.00011561916 0)
(0.11995664 0.00011294422 0)
(0.11928932 0.00011025871 0)
(0.11863142 0.00010764867 0)
(0.11798357 0.00010503056 0)
(0.11734539 0.0001024812 0)
(0.11671718 9.9918977e-05 0)
(0.11609897 9.7427884e-05 0)
(0.11549065 9.4909763e-05 0)
(0.11489276 9.2474378e-05 0)
(0.11430468 8.9990042e-05 0)
(0.11372751 8.7606248e-05 0)
(0.11316007 8.5148938e-05 0)
(0.11260413 8.2810852e-05 0)
(0.11205781 8.0378562e-05 0)
(0.11152366 7.8079132e-05 0)
(0.11099898 7.5673279e-05 0)
(0.11048724 7.3405047e-05 0)
(0.10998474 7.1027745e-05 0)
(0.10949612 6.8784356e-05 0)
(0.10901637 6.6436543e-05 0)
(0.10855162 6.4214986e-05 0)
(0.10809519 6.1896557e-05 0)
(0.10765509 5.9698583e-05 0)
(0.10722253 5.7409553e-05 0)
(0.10680784 5.5241254e-05 0)
(0.10639966 5.2983219e-05 0)
(0.10601108 5.0853305e-05 0)
(0.10562768 4.8631302e-05 0)
(0.10526582 4.6550319e-05 0)
(0.10490742 4.4374753e-05 0)
(0.10457275 4.2354563e-05 0)
(0.10423935 4.0240082e-05 0)
(0.10393215 3.8292164e-05 0)
(0.10362347 3.6254498e-05 0)
(0.10334379 3.4389123e-05 0)
(0.10305925 3.2445343e-05 0)
(0.10280689 3.0677009e-05 0)
(0.10254546 2.8851634e-05 0)
(0.1023198 2.7205286e-05 0)
(0.10207989 2.5530831e-05 0)
(0.10187979 2.4038112e-05 0)
(0.10165917 2.2544084e-05 0)
(0.10148299 2.122969e-05 0)
(0.10127888 1.993394e-05 0)
(0.10112467 1.8809048e-05 0)
(0.10093388 1.7723546e-05 0)
(0.10079947 1.6792341e-05 0)
(0.10061844 1.5930377e-05 0)
(0.10050158 1.5192076e-05 0)
(0.10032655 1.4554078e-05 0)
(0.10022525 1.3982778e-05 0)
(0.10005275 1.3532033e-05 0)
(0.099965953 1.3054881e-05 0)
(0.099793401 1.2718587e-05 0)
(0.099721477 1.2244486e-05 0)
(0.099547174 1.1966319e-05 0)
(0.099491559 1.146323e-05 0)
(0.099313482 1.1272091e-05 0)
(0.099275487 1.0812518e-05 0)
(0.099089372 1.081039e-05 0)
(0.099069833 1.0522495e-05 0)
(0.098867682 1.0936019e-05 0)
(0.48220946 0.014727275 0)
(0.48324064 0.019050598 0)
(0.48583862 0.022165086 0)
(0.48933998 0.023690142 0)
(0.49275776 0.024191439 0)
(0.4955242 0.024154808 0)
(0.49748261 0.023668112 0)
(0.49860598 0.022634881 0)
(0.49885848 0.021070747 0)
(0.49818488 0.019165043 0)
(0.49659794 0.017193302 0)
(0.49419013 0.015392415 0)
(0.49113893 0.013879085 0)
(0.48763549 0.012661432 0)
(0.48384497 0.011683357 0)
(0.47986934 0.010883377 0)
(0.47575931 0.010212253 0)
(0.47153701 0.0096329827 0)
(0.46721212 0.0091184687 0)
(0.46279069 0.0086497612 0)
(0.45827958 0.0082144266 0)
(0.4536881 0.007804887 0)
(0.44902823 0.0074169375 0)
(0.44431368 0.0070485227 0)
(0.43955907 0.0066988018 0)
(0.43477887 0.0063674657 0)
(0.42998699 0.0060543326 0)
(0.42519622 0.0057590687 0)
(0.42041818 0.0054811136 0)
(0.41566322 0.0052197174 0)
(0.41094047 0.0049740086 0)
(0.40625785 0.004743062 0)
(0.40162223 0.0045259451 0)
(0.3970394 0.0043217507 0)
(0.39251429 0.0041296118 0)
(0.38805093 0.0039487124 0)
(0.38365262 0.0037782895 0)
(0.37932195 0.0036176345 0)
(0.37506095 0.0034660903 0)
(0.37087107 0.0033230489 0)
(0.36675329 0.0031879467 0)
(0.36270816 0.0030602616 0)
(0.35873591 0.0029395083 0)
(0.35483637 0.0028252358 0)
(0.35100918 0.0027170243 0)
(0.34725369 0.0026144823 0)
(0.3435691 0.0025172459 0)
(0.3399544 0.0024249748 0)
(0.33640852 0.002337354 0)
(0.33293021 0.0022540884 0)
(0.3295182 0.0021749051 0)
(0.32617111 0.0020995482 0)
(0.32288756 0.0020277818 0)
(0.3196661 0.0019593844 0)
(0.3165053 0.0018941528 0)
(0.3134037 0.0018318956 0)
(0.31035986 0.0017724381 0)
(0.30737233 0.0017156144 0)
(0.3044397 0.0016612745 0)
(0.30156056 0.0016092744 0)
(0.29873353 0.0015594848 0)
(0.29595727 0.0015117804 0)
(0.29323045 0.0014660496 0)
(0.29055178 0.001422183 0)
(0.28792002 0.0013800841 0)
(0.28533392 0.0013396568 0)
(0.28279231 0.0013008174 0)
(0.28029403 0.0012634814 0)
(0.27783794 0.0012275757 0)
(0.27542297 0.0011930256 0)
(0.27304804 0.0011597674 0)
(0.27071215 0.0011277349 0)
(0.26841427 0.0010968721 0)
(0.26615348 0.0010671204 0)
(0.26392881 0.00103843 0)
(0.26173938 0.0010107494 0)
(0.25958429 0.00098403413 0)
(0.25746273 0.00095823878 0)
(0.25537383 0.000933323 0)
(0.25331684 0.00090924715 0)
(0.25129096 0.00088597423 0)
(0.24929547 0.00086346995 0)
(0.24732962 0.00084169999 0)
(0.24539276 0.00082063489 0)
(0.24348416 0.00080024241 0)
(0.24160321 0.00078049759 0)
(0.23974925 0.00076137 0)
(0.23792169 0.00074283861 0)
(0.23611992 0.00072487455 0)
(0.23434338 0.00070745992 0)
(0.2325915 0.00069056762 0)
(0.23086376 0.00067418208 0)
(0.22915964 0.00065827863 0)
(0.22747863 0.00064284281 0)
(0.22582025 0.0006278532 0)
(0.22418401 0.00061329494 0)
(0.22256949 0.00059915111 0)
(0.2209762 0.00058540456 0)
(0.21940377 0.00057204446 0)
(0.21785173 0.0005590493 0)
(0.21631975 0.00054641615 0)
(0.21480737 0.00053411711 0)
(0.21331428 0.00052215897 0)
(0.21184007 0.00051050528 0)
(0.21038443 0.00049917452 0)
(0.208947 0.00048811977 0)
(0.20752746 0.00047737236 0)
(0.20612552 0.00046687388 0)
(0.20474083 0.00045666904 0)
(0.20337318 0.00044668728 0)
(0.20202216 0.00043698706 0)
(0.20068768 0.00042748557 0)
(0.19936926 0.00041825445 0)
(0.19806691 0.00040919965 0)
(0.19678011 0.00040040464 0)
(0.19550895 0.00039176516 0)
(0.19425283 0.00038337572 0)
(0.19301199 0.00037512201 0)
(0.19178574 0.00036710956 0)
(0.19057442 0.00035921348 0)
(0.18937728 0.00035155129 0)
(0.18819479 0.00034398581 0)
(0.18702609 0.00033664899 0)
(0.18587179 0.00032938837 0)
(0.18473096 0.00032235367 0)
(0.18360431 0.00031537376 0)
(0.18249083 0.000308619 0)
(0.18139137 0.00030189746 0)
(0.18030483 0.00029540081 0)
(0.17923218 0.00028891732 0)
(0.17817224 0.00028265655 0)
(0.1771261 0.00027639286 0)
(0.17609254 0.00027034529 0)
(0.1750727 0.00026428494 0)
(0.17406538 0.00025842794 0)
(0.17307171 0.00025255548 0)
(0.17209061 0.00024686757 0)
(0.17112308 0.00024116717 0)
(0.17016828 0.00023562945 0)
(0.16922694 0.00023008354 0)
(0.16829864 0.00022468089 0)
(0.16738366 0.00021926964 0)
(0.16648216 0.00021399115 0)
(0.1655938 0.00020869308 0)
(0.1647195 0.00020353075 0)
(0.16385816 0.00019832411 0)
(0.16301156 0.00019327016 0)
(0.16217774 0.0001881356 0)
(0.16135947 0.00018318061 0)
(0.16055378 0.00017810444 0)
(0.15976456 0.00017323718 0)
(0.1589877 0.00016821319 0)
(0.15822837 0.00016342126 0)
(0.15748108 0.00015844872 0)
(0.15675257 0.00015371953 0)
(0.15603565 0.00014879938 0)
(0.15533901 0.00014412248 0)
(0.15465329 0.00013925493 0)
(0.15398961 0.00013462579 0)
(0.15333594 0.00012981083 0)
(0.15270639 0.00012523328 0)
(0.15208557 0.00012047254 0)
(0.15149127 0.0001159584 0)
(0.15090405 0.00011125727 0)
(0.15034608 0.00010682411 0)
(0.14979304 0.00010219466 0)
(0.14927234 9.786477e-05 0)
(0.14875385 9.3328541e-05 0)
(0.14827116 8.9127748e-05 0)
(0.14778727 8.4713641e-05 0)
(0.14734306 8.0668459e-05 0)
(0.14689344 7.6408369e-05 0)
(0.14648789 7.2545666e-05 0)
(0.14607175 6.8476376e-05 0)
(0.14570464 6.483273e-05 0)
(0.14532056 6.1005286e-05 0)
(0.14499108 5.7634914e-05 0)
(0.14463685 5.4112354e-05 0)
(0.14434353 5.1077394e-05 0)
(0.1440161 4.791428e-05 0)
(0.14375682 4.526186e-05 0)
(0.14345238 4.2490175e-05 0)
(0.1432246 4.0243148e-05 0)
(0.1429388 3.7881364e-05 0)
(0.14273971 3.604731e-05 0)
(0.14246774 3.4108192e-05 0)
(0.1422945 3.267682e-05 0)
(0.14203141 3.114007e-05 0)
(0.14188167 3.0048567e-05 0)
(0.14162295 2.8824148e-05 0)
(0.14149566 2.7932289e-05 0)
(0.14123794 2.6877128e-05 0)
(0.14113381 2.6031997e-05 0)
(0.14087471 2.5050908e-05 0)
(0.14079563 2.4221088e-05 0)
(0.14053224 2.3374179e-05 0)
(0.14047981 2.2711514e-05 0)
(0.1402067 2.21815e-05 0)
(0.14018143 2.1898186e-05 0)
(0.13989012 2.2125353e-05 0)
(0.4841851 0.014150609 0)
(0.48507814 0.017534405 0)
(0.48713187 0.020378171 0)
(0.49010219 0.022083566 0)
(0.49336331 0.022764491 0)
(0.49639216 0.022794424 0)
(0.49898042 0.022381521 0)
(0.50109464 0.021557675 0)
(0.50271927 0.020338689 0)
(0.50379782 0.018833057 0)
(0.50428132 0.017226709 0)
(0.50418084 0.015710273 0)
(0.503586 0.014403098 0)
(0.50262781 0.013337683 0)
(0.50143025 0.012481225 0)
(0.50007796 0.011782993 0)
(0.49861351 0.011199523 0)
(0.49705053 0.01069873 0)
(0.49538776 0.010257198 0)
(0.49361866 0.009857773 0)
(0.49173681 0.009488247 0)
(0.48973829 0.0091404352 0)
(0.48762232 0.0088092746 0)
(0.48539087 0.0084919401 0)
(0.48304799 0.008187045 0)
(0.48059909 0.0078939976 0)
(0.47805047 0.0076125258 0)
(0.47540882 0.0073424228 0)
(0.47268113 0.0070834142 0)
(0.46987437 0.0068351292 0)
(0.46699552 0.0065971196 0)
(0.46405138 0.0063689006 0)
(0.46104865 0.0061499804 0)
(0.45799375 0.0059398841 0)
(0.45489295 0.0057381637 0)
(0.45175221 0.0055444047 0)
(0.44857732 0.0053582253 0)
(0.44537376 0.0051792774 0)
(0.44214679 0.0050072417 0)
(0.43890136 0.0048418257 0)
(0.4356422 0.0046827589 0)
(0.43237369 0.0045297897 0)
(0.42910002 0.0043826811 0)
(0.42582502 0.0042412085 0)
(0.42255232 0.0041051571 0)
(0.41928519 0.0039743197 0)
(0.41602674 0.0038484968 0)
(0.41277971 0.0037274936 0)
(0.40954671 0.0036111228 0)
(0.40633001 0.0034992005 0)
(0.40313173 0.0033915496 0)
(0.39995372 0.003287996 0)
(0.39679768 0.0031883731 0)
(0.39366507 0.0030925166 0)
(0.39055722 0.003000271 0)
(0.38747526 0.0029114825 0)
(0.3844202 0.002826007 0)
(0.38139286 0.0027437012 0)
(0.37839399 0.0026644325 0)
(0.37542418 0.0025880681 0)
(0.37248394 0.0025144866 0)
(0.36957364 0.0024435652 0)
(0.36669362 0.0023751933 0)
(0.36384408 0.0023092581 0)
(0.36102519 0.002245659 0)
(0.35823702 0.0021842925 0)
(0.35547961 0.0021250675 0)
(0.35275294 0.002067889 0)
(0.35005692 0.0020126744 0)
(0.34739146 0.0019593372 0)
(0.34475638 0.0019078027 0)
(0.34215153 0.001857992 0)
(0.33957667 0.0018098372 0)
(0.33703159 0.0017632665 0)
(0.334516 0.001718218 0)
(0.33202965 0.0016746271 0)
(0.32957223 0.0016324369 0)
(0.32714346 0.0015915895 0)
(0.32474297 0.0015520321 0)
(0.3223705 0.0015137132 0)
(0.32002566 0.0014765835 0)
(0.31770814 0.0014405974 0)
(0.31541757 0.0014057088 0)
(0.31315363 0.0013718777 0)
(0.31091595 0.0013390604 0)
(0.30870419 0.001307222 0)
(0.30651799 0.0012763211 0)
(0.30435699 0.0012463277 0)
(0.30222086 0.0012172021 0)
(0.30010922 0.0011889182 0)
(0.29802178 0.0011614387 0)
(0.29595813 0.0011347402 0)
(0.293918 0.0011087887 0)
(0.29190097 0.0010835619 0)
(0.28990682 0.0010590303 0)
(0.28793509 0.0010351708 0)
(0.28598561 0.0010119601 0)
(0.2840579 0.00098937181 0)
(0.28215183 0.00096739105 0)
(0.28026691 0.00094598521 0)
(0.27840303 0.00092515031 0)
(0.27655969 0.00090484496 0)
(0.27473682 0.00088507845 0)
(0.27293394 0.0008657978 0)
(0.27115096 0.00084702808 0)
(0.26938744 0.00082870226 0)
(0.26764328 0.00081086273 0)
(0.26591809 0.000793427 0)
(0.26421173 0.00077645564 0)
(0.26252389 0.00075984965 0)
(0.26085437 0.00074368829 0)
(0.25920295 0.00072785605 0)
(0.25756938 0.00071245005 0)
(0.25595353 0.00069733949 0)
(0.25435506 0.00068263789 0)
(0.25277397 0.00066820011 0)
(0.25120984 0.0006541553 0)
(0.24966277 0.00064034411 0)
(0.24813227 0.00062691128 0)
(0.24661854 0.00061368245 0)
(0.24512103 0.00060081945 0)
(0.24364005 0.00058813043 0)
(0.24217496 0.00057579772 0)
(0.2407262 0.0005636078 0)
(0.23929305 0.00055176816 0)
(0.23787605 0.00054003891 0)
(0.23647442 0.00052865676 0)
(0.23508883 0.00051735225 0)
(0.2337184 0.00050639251 0)
(0.23236391 0.00049547958 0)
(0.23102445 0.00048490687 0)
(0.22970087 0.0004743551 0)
(0.22839225 0.00046413349 0)
(0.22709945 0.0004539149 0)
(0.22582167 0.00044400862 0)
(0.22455962 0.0004340966 0)
(0.22331278 0.00042447153 0)
(0.22208155 0.00041483903 0)
(0.2208659 0.00040546448 0)
(0.21966567 0.00039608231 0)
(0.21848156 0.00038693269 0)
(0.21731262 0.00037776883 0)
(0.21616053 0.00036882424 0)
(0.21502332 0.00035984467 0)
(0.21390387 0.00035108923 0)
(0.21279894 0.00034225981 0)
(0.21171287 0.00033367832 0)
(0.21064094 0.00032496831 0)
(0.2095891 0.000316544 0)
(0.20855101 0.00030793063 0)
(0.20753441 0.00029964505 0)
(0.2065311 0.00029111593 0)
(0.20555088 0.00028294988 0)
(0.20458337 0.00027450036 0)
(0.20364081 0.00026643498 0)
(0.20271017 0.00025806329 0)
(0.20180669 0.0002500834 0)
(0.20091403 0.00024178796 0)
(0.20005115 0.00023388746 0)
(0.1991976 0.00022566795 0)
(0.19837689 0.00021785352 0)
(0.19756355 0.00020971362 0)
(0.1967866 0.00020200449 0)
(0.19601449 0.00019395481 0)
(0.19528278 0.00018638013 0)
(0.19455276 0.00017844229 0)
(0.19386765 0.00017103988 0)
(0.19318028 0.00016325002 0)
(0.1925429 0.00015606468 0)
(0.19189837 0.00014847055 0)
(0.19130954 0.00014155018 0)
(0.19070758 0.00013420572 0)
(0.19016774 0.00012760174 0)
(0.18960748 0.00012057087 0)
(0.18911658 0.00011435156 0)
(0.18859636 0.00010772049 0)
(0.18815367 0.00010197986 0)
(0.18767086 9.5850905e-05 0)
(0.18727483 9.0691552e-05 0)
(0.18682577 8.5151612e-05 0)
(0.18647407 8.0651089e-05 0)
(0.1860542 7.5750914e-05 0)
(0.18574397 7.1948819e-05 0)
(0.18534799 6.7714321e-05 0)
(0.18507605 6.4622494e-05 0)
(0.18469812 6.1061436e-05 0)
(0.18446132 5.8654806e-05 0)
(0.18409543 5.5714624e-05 0)
(0.18389122 5.3881515e-05 0)
(0.1835319 5.1401761e-05 0)
(0.18335923 4.991991e-05 0)
(0.18300226 4.7671387e-05 0)
(0.18286208 4.6316797e-05 0)
(0.18250429 4.4159888e-05 0)
(0.1823988 4.2902828e-05 0)
(0.18203651 4.0939352e-05 0)
(0.18196746 4.0011856e-05 0)
(0.18159461 3.8545447e-05 0)
(0.181562 3.8206926e-05 0)
(0.18117025 3.796067e-05 0)
(0.48584306 0.013717203 0)
(0.48667411 0.016481154 0)
(0.48836433 0.018953025 0)
(0.49080753 0.020648763 0)
(0.49362525 0.021447768 0)
(0.49639292 0.021559559 0)
(0.4988648 0.021211274 0)
(0.50097417 0.020515341 0)
(0.50271871 0.019516055 0)
(0.5040815 0.018280386 0)
(0.50503293 0.01693035 0)
(0.50556971 0.01561324 0)
(0.50574206 0.014441887 0)
(0.50564289 0.013463945 0)