/*--------------------------------*- C++ -*----------------------------------*\
| =========                 |                                                 |
| \\      /  F ield         | OpenFOAM: The Open Source CFD Toolbox           |
|  \\    /   O peration     | Version:  5.x                                   |
|   \\  /    A nd           | Web:      www.OpenFOAM.org                      |
|    \\/     M anipulation  |                                                 |
\*---------------------------------------------------------------------------*/
FoamFile
{
    version     2.0;
    format      ascii;
    class       volScalarField;
    location    "0.7";
    object      p;
}
// * * * * * * * * * * * * * * * * * * * * * * * * * * * * * * * * * * * * * //

dimensions      [0 2 -2 0 0 0 0];

internalField   nonuniform List<scalar> 
10800
(
0.036195
0.0320078
0.025923
0.0203669
0.0152984
0.0102993
0.00534404
0.000996346
-0.00184464
-0.00279285
-0.00228487
-0.00112458
9.20611e-05
0.00107979
0.00175978
0.00216352
0.00236509
0.00243999
0.0024491
0.00243468
0.00242095
0.00241694
0.00242123
0.00242792
0.00243248
0.00243327
0.00242985
0.00242159
0.00240867
0.00239264
0.00237557
0.0023583
0.00233999
0.00231927
0.00229555
0.00226892
0.00223965
0.00220803
0.0021747
0.00214057
0.00210611
0.00207101
0.0020344
0.00199639
0.00195785
0.00191931
0.0018811
0.00184413
0.00180847
0.00177354
0.00173861
0.00170345
0.00166786
0.00163233
0.0015969
0.00156137
0.00152479
0.0014871
0.00144848
0.00140993
0.0013718
0.00133436
0.00129706
0.00126019
0.00122338
0.0011872
0.00115138
0.00111552
0.00107845
0.00104071
0.00100249
0.000964489
0.00092599
0.000887388
0.000848908
0.000811469
0.000774124
0.000736566
0.000698588
0.000660708
0.000622279
0.000583329
0.000544504
0.000505991
0.000468066
0.000430154
0.00039319
0.000355716
0.000319252
0.000281783
0.000246599
0.000210175
0.000177773
0.00014341
0.000114936
8.28161e-05
6.00632e-05
3.12825e-05
1.86424e-05
-5.00661e-06
0.0330417
0.0306468
0.0254774
0.0201012
0.0151048
0.0102651
0.00552059
0.00134948
-0.00145839
-0.00249106
-0.00207941
-0.000980737
0.000195488
0.00115417
0.00181444
0.00220605
0.00240034
0.00247065
0.0024765
0.00245941
0.00244336
0.00243729
0.0024398
0.00244494
0.00244813
0.00244773
0.00244326
0.00243405
0.00242027
0.00240345
0.00238568
0.00236779
0.00234893
0.0023277
0.0023035
0.00227643
0.00224675
0.00221474
0.00218104
0.00214658
0.00211181
0.00207644
0.00203956
0.0020013
0.00196252
0.00192376
0.00188534
0.00184817
0.00181233
0.00177723
0.00174214
0.00170683
0.00167109
0.00163542
0.00159986
0.00156421
0.00152752
0.00148972
0.00145099
0.00141232
0.0013741
0.00133657
0.00129919
0.00126223
0.00122534
0.00118909
0.0011532
0.00111727
0.00108014
0.00104234
0.00100405
0.000965992
0.000927446
0.000888783
0.000850258
0.000812763
0.000775382
0.000737772
0.00069976
0.000661831
0.000623374
0.000584376
0.000545525
0.000506966
0.00046902
0.000431064
0.000394084
0.000356567
0.00032009
0.000282578
0.000247385
0.000210919
0.000178513
0.000144109
0.000115635
8.34745e-05
6.07266e-05
3.19058e-05
1.92741e-05
-4.39762e-06
0.0306243
0.0293672
0.0250874
0.0199445
0.0150031
0.010325
0.00587566
0.00198922
-0.000738507
-0.00191424
-0.00171361
-0.000765926
0.000324141
0.00123183
0.00186427
0.00224274
0.00243179
0.00250045
0.0025058
0.00248807
0.00247067
0.00246258
0.00246272
0.00246549
0.00246651
0.00246423
0.00245815
0.00244757
0.00243259
0.00241472
0.00239603
0.00237735
0.00235779
0.00233595
0.00231119
0.00228363
0.0022535
0.00222107
0.00218699
0.00215216
0.00211707
0.0020814
0.00204425
0.00200573
0.00196672
0.00192774
0.00188911
0.00185175
0.00181575
0.00178049
0.00174525
0.00170979
0.00167392
0.00163812
0.00160244
0.00156668
0.00152989
0.00149199
0.00145316
0.0014144
0.00137609
0.00133848
0.00130102
0.00126398
0.00122703
0.00119071
0.00115476
0.00111877
0.00108159
0.00104372
0.00100539
0.000967275
0.000928685
0.000889969
0.000851402
0.000813862
0.00077645
0.000738797
0.000700753
0.000662784
0.000624301
0.000585261
0.000546386
0.000507788
0.000469824
0.00043183
0.000394836
0.000357283
0.000320795
0.000283246
0.000248045
0.000211541
0.000179131
0.000144691
0.000116217
8.40191e-05
6.12745e-05
3.24166e-05
1.97806e-05
-3.92716e-06
0.0287781
0.0281086
0.0246033
0.0197968
0.0149633
0.0104476
0.00628718
0.00269056
7.68146e-05
-0.00121078
-0.00123376
-0.00047692
0.000499277
0.00134716
0.00194743
0.00230767
0.00248604
0.00254858
0.0025505
0.00253036
0.0025103
0.00249887
0.00249524
0.00249429
0.00249204
0.00248697
0.00247856
0.00246599
0.00244932
0.00242998
0.00240997
0.00239011
0.0023695
0.00234672
0.00232115
0.00229289
0.00226215
0.00222916
0.00219456
0.00215923
0.00212367
0.00208756
0.00205001
0.00201112
0.00197178
0.0019325
0.0018936
0.00185599
0.00181976
0.00178428
0.00174885
0.00171321
0.00167717
0.00164122
0.00160539
0.00156949
0.00153256
0.00149453
0.00145558
0.0014167
0.00137829
0.00134058
0.00130303
0.0012659
0.00122887
0.00119247
0.00115645
0.0011204
0.00108315
0.00104522
0.00100683
0.000968649
0.000930008
0.000891233
0.000852619
0.000815029
0.00077758
0.00073988
0.000701801
0.000663788
0.000625275
0.00058619
0.000547286
0.000508648
0.00047066
0.000432628
0.000395615
0.000358026
0.000321522
0.000283935
0.000248721
0.00021218
0.00017976
0.000145284
0.000116803
8.45704e-05
6.18182e-05
3.29293e-05
2.02544e-05
-3.48298e-06
0.0272448
0.0268541
0.0239812
0.0195958
0.0149512
0.0106063
0.00669585
0.00335466
0.000863429
-0.000497768
-0.00071984
-0.000157311
0.000695381
0.00148052
0.0020492
0.00239098
0.00255708
0.00261156
0.00260864
0.00258531
0.00256212
0.00254675
0.00253854
0.00253301
0.00252665
0.00251803
0.00250654
0.00249132
0.00247239
0.00245104
0.0024292
0.00240764
0.0023855
0.00236135
0.0023346
0.00230532
0.00227373
0.00224001
0.00220473
0.00216873
0.00213251
0.00209579
0.00205769
0.0020183
0.00197851
0.0019388
0.0018995
0.00186153
0.00182496
0.00178917
0.00175346
0.00171758
0.00168132
0.00164516
0.00160912
0.00157302
0.00153591
0.0014977
0.00145859
0.00141956
0.001381
0.00134315
0.00130548
0.00126824
0.0012311
0.0011946
0.00115849
0.00112235
0.00108501
0.001047
0.00100853
0.000970272
0.000931561
0.000892716
0.000854041
0.000816391
0.000778892
0.000741136
0.00070301
0.000664946
0.000626391
0.000587254
0.000548311
0.000509626
0.000471608
0.000433531
0.000396493
0.000358863
0.000322335
0.000284706
0.00024947
0.000212889
0.00018045
0.000145938
0.000117438
8.51708e-05
6.23925e-05
3.34821e-05
2.07135e-05
-3.03266e-06
0.0259032
0.0256319
0.0232544
0.0193367
0.014957
0.0107967
0.00709482
0.00396666
0.00159642
0.000194364
-0.000194909
0.000181252
0.000904694
0.00162244
0.0021591
0.00248331
0.00263733
0.00268316
0.00267459
0.00264751
0.00262095
0.00260154
0.00258863
0.00257838
0.00256772
0.00255533
0.00254052
0.0025224
0.00250094
0.00247731
0.00245333
0.00242974
0.00240571
0.00237987
0.00235161
0.00232105
0.00228839
0.00225377
0.00221767
0.00218087
0.00214384
0.00210635
0.00206757
0.00202758
0.00198722
0.00194697
0.00190717
0.00186872
0.00183168
0.00179545
0.00175935
0.00172315
0.0016866
0.00165018
0.00161388
0.00157751
0.00154016
0.00150173
0.00146241
0.00142318
0.00138442
0.00134638
0.00130854
0.00127115
0.00123387
0.00119725
0.00116101
0.00112475
0.0010873
0.00104918
0.00101061
0.00097225
0.000933445
0.000894513
0.000855759
0.000818031
0.000780463
0.000742638
0.000704451
0.000666322
0.00062771
0.00058851
0.000549516
0.000510775
0.000472713
0.000434585
0.000397509
0.000359831
0.000323268
0.000285591
0.000250322
0.000213695
0.000181226
0.000146674
0.000118139
8.58375e-05
6.30057e-05
3.40886e-05
2.11489e-05
-2.56719e-06
0.0246944
0.0244728
0.0224813
0.0190295
0.0149699
0.0110131
0.0074881
0.00453252
0.00227456
0.000858232
0.000334307
0.000537482
0.00112807
0.0017723
0.00227484
0.00258205
0.0027247
0.00276169
0.00274659
0.00271482
0.00268423
0.00266044
0.00264267
0.0026276
0.0026126
0.00259637
0.00257816
0.00255706
0.00253298
0.00250697
0.00248073
0.00245497
0.00242893
0.00240124
0.00237134
0.00233935
0.00230551
0.00226989
0.00223288
0.00219519
0.00215727
0.00211894
0.00207943
0.0020388
0.00199782
0.00195698
0.00191661
0.0018776
0.00183998
0.0018032
0.00176661
0.00173
0.00169311
0.00165636
0.00161973
0.00158304
0.00154541
0.00150674
0.00146718
0.00142771
0.00138869
0.00135041
0.00131235
0.00127476
0.00123731
0.00120052
0.00116412
0.00112771
0.00109013
0.00105188
0.00101318
0.00097469
0.00093576
0.000896717
0.000857861
0.000820033
0.000782375
0.000744465
0.0007062
0.000667989
0.000629301
0.000590024
0.000550963
0.000512151
0.000474031
0.00043584
0.000398714
0.000360976
0.000324365
0.00028663
0.000251315
0.000214635
0.000182118
0.000147521
0.000118929
8.65949e-05
6.3672e-05
3.47684e-05
2.15579e-05
-2.06438e-06
0.0235882
0.023393
0.021706
0.0186865
0.0149747
0.0112419
0.00787724
0.00506132
0.00290145
0.00148889
0.000860972
0.000908815
0.00136627
0.00193085
0.00239603
0.00268633
0.00281854
0.0028468
0.00282437
0.00278674
0.00275118
0.00272245
0.00269957
0.00267952
0.00266008
0.00263992
0.00261823
0.00259405
0.00256726
0.00253878
0.0025102
0.00248222
0.00245412
0.00242452
0.00239289
0.0023594
0.00232432
0.00228764
0.00224966
0.00221103
0.00217218
0.00213297
0.00209272
0.00205146
0.00200988
0.00196843
0.00192749
0.0018879
0.00184966
0.00181226
0.00177512
0.00173803
0.00170073
0.0016636
0.00162659
0.00158953
0.00155159
0.00151266
0.00147287
0.00143313
0.00139384
0.00135529
0.00131696
0.00127912
0.00124146
0.00120447
0.00116787
0.00113127
0.00109354
0.00105516
0.00101631
0.000977658
0.000938578
0.000899402
0.000860419
0.000822461
0.000784688
0.000746678
0.00070832
0.000670008
0.000631229
0.000591856
0.000552711
0.000513809
0.000475616
0.000437347
0.000400158
0.000362347
0.000325674
0.000287868
0.00025249
0.000215746
0.000183164
0.000148515
0.00011984
8.74737e-05
6.44126e-05
3.55466e-05
2.19494e-05
-1.49276e-06
0.0225665
0.0223966
0.0209547
0.0183205
0.0149599
0.0114672
0.00825907
0.00555946
0.00348122
0.00208256
0.00137817
0.00129161
0.00161977
0.00209959
0.00252322
0.00279574
0.00291808
0.00293787
0.00290755
0.00286302
0.00282149
0.0027872
0.00275887
0.00273367
0.00270968
0.00268551
0.00266025
0.00263286
0.00260326
0.00257219
0.00254121
0.00251095
0.00248074
0.00244918
0.00241577
0.00238071
0.00234433
0.00230653
0.00226754
0.00222792
0.0021881
0.002148
0.00210701
0.00206511
0.00202293
0.00198089
0.00193938
0.00189921
0.00186035
0.00182232
0.00178459
0.00174698
0.00170924
0.00167169
0.00163426
0.00159679
0.00155852
0.00151933
0.0014793
0.00143932
0.00139974
0.00136091
0.0013223
0.00128419
0.00124628
0.00120906
0.00117222
0.0011354
0.00109751
0.00105898
0.00101997
0.000981153
0.000941912
0.000902583
0.000863455
0.000825335
0.000787426
0.000749293
0.000710833
0.000672404
0.000633524
0.000594041
0.0005548
0.000515785
0.000477505
0.000439139
0.000401875
0.000363975
0.00032723
0.000289337
0.000253884
0.00021706
0.000184395
0.000149685
0.0001209
8.85016e-05
6.5249e-05
3.64456e-05
2.23398e-05
-8.25674e-07
0.0216153
0.0214795
0.0202417
0.0179447
0.0149208
0.0116756
0.00862719
0.0060311
0.00402005
0.00263953
0.00188145
0.00168226
0.00188839
0.00227978
0.00265696
0.00290972
0.00302231
0.00303403
0.00299568
0.00294356
0.00289518
0.00285463
0.00282049
0.00278997
0.00276129
0.00273303
0.00270409
0.00267339
0.00264083
0.00260709
0.0025736
0.002541
0.00250862
0.00247503
0.00243976
0.00240308
0.00236533
0.00232635
0.0022863
0.00224564
0.00220483
0.0021638
0.00212205
0.0020795
0.0020367
0.00199407
0.001952
0.00191125
0.00187176
0.00183309
0.00179476
0.00175662
0.00171842
0.00168041
0.00164253
0.00160463
0.00156601
0.00152655
0.00148629
0.00144607
0.00140623
0.00136711
0.00132824
0.00128983
0.00125167
0.00121419
0.00117708
0.00114001
0.00110195
0.00106326
0.0010241
0.000985103
0.000945707
0.000906217
0.000866939
0.000828629
0.000790566
0.000752285
0.000713718
0.000675153
0.000636174
0.000596569
0.00055723
0.000518081
0.000479705
0.000441219
0.000403874
0.000365867
0.000329047
0.000291052
0.000255513
0.000218593
0.000185829
0.000151046
0.000122124
8.96955e-05
6.61968e-05
3.74787e-05
2.27492e-05
-5.31756e-08
0.0207248
0.0206358
0.0195756
0.0175703
0.0148571
0.0118586
0.00897517
0.00647912
0.00452534
0.00316275
0.00236734
0.00207567
0.00216966
0.0024713
0.00279739
0.00302786
0.0031305
0.0031347
0.00308856
0.00302855
0.0029726
0.00292505
0.00288459
0.00284848
0.00281496
0.0027825
0.00274979
0.00271567
0.00268003
0.00264348
0.00260738
0.00257233
0.0025377
0.00250202
0.00246483
0.00242644
0.00238726
0.00234705
0.00230588
0.00226414
0.00222229
0.0021803
0.00213775
0.00209453
0.0020511
0.00200784
0.00196521
0.00192386
0.00188375
0.00184442
0.00180549
0.00176679
0.00172811
0.00168963
0.00165129
0.00161292
0.00157394
0.00153419
0.00149371
0.00145324
0.00141314
0.00137375
0.00133462
0.00129592
0.0012575
0.00121974
0.00118235
0.001145
0.00110675
0.00106789
0.00102859
0.000989412
0.000949874
0.000910224
0.000870801
0.000832283
0.000794056
0.000755603
0.000716921
0.000678203
0.000639131
0.000599398
0.000559969
0.000520671
0.000482195
0.000443566
0.000406135
0.000368002
0.000331109
0.000292999
0.000257372
0.000220341
0.000187462
0.000152595
0.000123512
9.10564e-05
6.72607e-05
3.86462e-05
2.31957e-05
8.12176e-07
0.0198919
0.0198633
0.0189612
0.0172063
0.0147729
0.0120128
0.00929822
0.00690427
0.00500219
0.00365454
0.00283217
0.00246585
0.00245983
0.00267344
0.00294484
0.00315012
0.00324217
0.00323924
0.00318569
0.0031178
0.00305383
0.00299855
0.00295116
0.00290915
0.00287061
0.00283383
0.0027973
0.00275967
0.0027208
0.0026813
0.00264248
0.00260491
0.00256796
0.00253013
0.00249094
0.00245078
0.0024101
0.00236861
0.00232627
0.0022834
0.00224046
0.00219748
0.0021541
0.00211017
0.00206608
0.00202218
0.00197895
0.001937
0.00189625
0.00185625
0.00181669
0.00177743
0.00173824
0.00169928
0.00166045
0.00162161
0.00158225
0.00154219
0.00150148
0.00146075
0.0014204
0.00138074
0.00134135
0.00130236
0.00126367
0.00122563
0.00118795
0.0011503
0.00111186
0.0010728
0.00103337
0.000994
0.00095433
0.000914521
0.000874964
0.000836229
0.000797834
0.000759189
0.000720387
0.000681497
0.000642338
0.000602471
0.000562964
0.000523509
0.000484937
0.000446144
0.000408623
0.000370346
0.000333382
0.000295149
0.000259436
0.000222284
0.000189279
0.000154317
0.000125049
9.25704e-05
6.84329e-05
3.99357e-05
2.36919e-05
1.73855e-06
0.0191236
0.0191651
0.0184046
0.0168634
0.014677
0.0121399
0.00959361
0.00730547
0.00545391
0.00411834
0.00327513
0.0028496
0.00275684
0.0028865
0.00310058
0.00327729
0.0033574
0.00334738
0.00328667
0.00321103
0.00313884
0.00307526
0.00302026
0.00297191
0.00292818
0.00288697
0.00284652
0.00280532
0.0027631
0.00272052
0.00267887
0.00263871
0.00259936
0.00255932
0.00251807
0.00247607
0.00243383
0.00239101
0.00234744
0.00230339
0.00225933
0.00221532
0.00217108
0.00212641
0.00208162
0.00203705
0.0019932
0.00195063
0.00190922
0.00186854
0.00182834
0.00178849
0.00174879
0.00170933
0.00166999
0.00163066
0.00159091
0.00155054
0.00150957
0.00146858
0.00142797
0.00138802
0.00134839
0.00130909
0.00127014
0.0012318
0.00119383
0.00115587
0.00111721
0.00107796
0.00103838
0.000998819
0.000959022
0.000919052
0.000879369
0.000840411
0.000801847
0.000762997
0.000724069
0.000684992
0.000645746
0.000605739
0.000566164
0.000526548
0.000487885
0.000448918
0.000411301
0.000372864
0.000335828
0.000297466
0.000261668
0.000224394
0.00019125
0.00015619
0.000126711
9.42152e-05
6.96967e-05
4.13256e-05
2.42434e-05
2.68582e-06
0.0184262
0.0185438
0.0179118
0.0165505
0.0145766
0.012242
0.00985842
0.0076798
0.00588216
0.00455864
0.00369844
0.00322581
0.00305959
0.00311107
0.00326626
0.00341087
0.00347712
0.0034597
0.00339193
0.00330863
0.00322821
0.00315593
0.0030926
0.00303732
0.0029881
0.00294232
0.00289779
0.0028529
0.00280723
0.0027614
0.00271678
0.00267392
0.00263208
0.00258973
0.00254635
0.00250243
0.00245856
0.00241433
0.00236946
0.00232418
0.00227894
0.00223388
0.00218874
0.00214329
0.00209777
0.00205249
0.00200798
0.00196476
0.00192267
0.0018813
0.00184043
0.00179998
0.00175975
0.00171977
0.00167992
0.00164007
0.00159992
0.00155921
0.00151798
0.00147671
0.00143583
0.0013956
0.0013557
0.00131609
0.00127687
0.00123824
0.00119996
0.00116168
0.00112281
0.00108334
0.00104361
0.00100385
0.000963921
0.000923787
0.000883978
0.000844795
0.000806059
0.000766995
0.000727936
0.00068866
0.000649324
0.000609172
0.000569532
0.000529754
0.000491002
0.000451854
0.000414136
0.00037553
0.000338415
0.000299923
0.000264036
0.000226644
0.000193348
0.000158192
0.000128473
9.59684e-05
7.10328e-05
4.2791e-05
2.48495e-05
3.61781e-06
0.0177815
0.0179927
0.0174821
0.0162686
0.0144708
0.012315
0.0100859
0.00801981
0.00628228
0.00497376
0.00410022
0.00359032
0.0033629
0.00334355
0.0034402
0.00354987
0.00360021
0.00357501
0.00350038
0.00340959
0.00332118
0.00324025
0.00316815
0.00310529
0.00305022
0.00299973
0.00295101
0.00290231
0.00285309
0.00280392
0.00275617
0.00271051
0.0026661
0.00262138
0.00257577
0.00252987
0.00248428
0.0024386
0.00239238
0.00234581
0.00229935
0.00225318
0.0022071
0.00216083
0.00211453
0.00206851
0.00202332
0.00197942
0.00193664
0.00189455
0.001853
0.00181192
0.00177113
0.00173061
0.00169023
0.00164986
0.00160929
0.00156823
0.00152671
0.00148515
0.00144399
0.00140347
0.0013633
0.00132336
0.00128386
0.00124492
0.00120634
0.00116772
0.00112863
0.00108894
0.00104904
0.00100908
0.000969018
0.000928713
0.000888776
0.000849363
0.000810451
0.000771169
0.000731971
0.000692491
0.000653057
0.000612757
0.000573047
0.000533108
0.000494262
0.000454934
0.000417104
0.000378328
0.00034112
0.000302502
0.000266513
0.000229014
0.000195548
0.000160305
0.000130317
9.78123e-05
7.24263e-05
4.43097e-05
2.55069e-05
4.50942e-06
0.0172033
0.0175255
0.0171244
0.0160247
0.0143649
0.0123618
0.0102757
0.00832226
0.00665107
0.0053627
0.00447966
0.00394035
0.00366279
0.00358066
0.0036207
0.00369337
0.00372565
0.00369207
0.00361074
0.00351264
0.00341656
0.00332738
0.0032464
0.00317537
0.00311396
0.00305862
0.00300566
0.00295306
0.00290026
0.00284772
0.00279677
0.00274822
0.00270122
0.00265407
0.00260618
0.00255824
0.00251089
0.00246369
0.00241609
0.00236818
0.00232046
0.00227316
0.00222611
0.00217899
0.00213188
0.00208508
0.00203918
0.00199459
0.00195109
0.00190827
0.00186601
0.00182429
0.00178293
0.00174186
0.00170093
0.00166003
0.00161901
0.0015776
0.00153578
0.00149391
0.00145245
0.00141162
0.00137118
0.00133091
0.00129111
0.00125186
0.00121296
0.00117401
0.00113468
0.00109476
0.00105469
0.00101452
0.00097431
0.00093383
0.000893757
0.000854111
0.000815017
0.000775512
0.000736168
0.00069648
0.000656938
0.000616488
0.000576701
0.0005366
0.000497654
0.000458147
0.000420194
0.00038125
0.000343932
0.000305194
0.000269087
0.000231492
0.000197835
0.000162516
0.00013223
9.97343e-05
7.38688e-05
4.58646e-05
2.62122e-05
5.34736e-06
0.0167318
0.0171704
0.0168552
0.0158351
0.0142775
0.0124005
0.0104416
0.00859566
0.00699447
0.0057322
0.00484353
0.00427997
0.00396085
0.00382376
0.00381007
0.00384433
0.00385611
0.00381294
0.00372474
0.00361922
0.00351546
0.00341831
0.00332849
0.0032487
0.0031802
0.00311966
0.00306236
0.00300573
0.00294923
0.00289325
0.002839
0.00278742
0.00273772
0.00268807
0.0026378
0.00258773
0.00253856
0.00248978
0.00244073
0.00239142
0.00234238
0.00229391
0.00224585
0.00219783
0.00214987
0.00210226
0.00205561
0.0020103
0.00196606
0.00192249
0.00187951
0.00183712
0.00179518
0.00175353
0.00171204
0.00167058
0.00162912
0.00158732
0.00154519
0.00150299
0.00146122
0.00142008
0.00137934
0.00133873
0.00129863
0.00125906
0.00121984
0.00118054
0.00114096
0.00110081
0.00106056
0.00102017
0.000979803
0.000939141
0.000898924
0.000859041
0.000819757
0.000780027
0.000740526
0.000700628
0.000660968
0.000620367
0.00058049
0.000540231
0.000501171
0.00046149
0.000423399
0.000384292
0.000346848
0.000307997
0.00027175
0.000234073
0.0002002
0.000164819
0.000134206
0.000101726
7.53581e-05
4.74441e-05
2.69635e-05
6.12716e-06
0.0163367
0.0169038
0.0166607
0.0156959
0.0142106
0.0124336
0.0105853
0.00883943
0.00730994
0.00608007
0.00519089
0.00460805
0.00425512
0.00407095
0.00400749
0.00400291
0.00399192
0.00393763
0.0038423
0.00372933
0.00361773
0.00351274
0.00341435
0.00332555
0.00324925
0.00318301
0.00312128
0.00306052
0.00300015
0.00294063
0.00288301
0.00282824
0.00277572
0.0027235
0.00267076
0.00261845
0.00256737
0.00251695
0.00246637
0.0024156
0.0023652
0.00231549
0.00226638
0.00221742
0.00216856
0.0021201
0.00207266
0.00202659
0.0019816
0.00193725
0.00189352
0.00185043
0.00180789
0.00176565
0.00172357
0.00168155
0.00163962
0.00159743
0.00155496
0.00151241
0.00147032
0.00142886
0.00138781
0.00134684
0.00130643
0.00126653
0.00122698
0.00118733
0.00114749
0.00110709
0.00106665
0.00102603
0.000985501
0.000944651
0.00090428
0.000864157
0.000824674
0.000784716
0.000745049
0.000704941
0.00066515
0.000624398
0.000584417
0.000544002
0.000504815
0.000464964
0.000426719
0.000387457
0.000349865
0.000310912
0.000274502
0.000236753
0.00020264
0.000167209
0.000136244
0.000103782
7.68956e-05
4.90403e-05
2.77597e-05
6.84979e-06
0.0159626
0.0166654
0.0165
0.0155865
0.014158
0.0124598
0.0107049
0.00905025
0.0075923
0.00640059
0.00551734
0.00492077
0.004541
0.00431733
0.00420901
0.00416655
0.00413131
0.00406436
0.00396157
0.00384131
0.00372178
0.00360904
0.00350267
0.00340517
0.00332066
0.00324813
0.00318177
0.00311691
0.00305254
0.00298935
0.00292835
0.00287038
0.00281493
0.00276008
0.00270484
0.0026502
0.00259716
0.00254505
0.00249289
0.00244061
0.0023888
0.00233784
0.00228763
0.00223769
0.0021879
0.00213854
0.00209029
0.00204343
0.00199767
0.00195252
0.00190802
0.00186423
0.00182106
0.00177821
0.00173553
0.00169293
0.00165051
0.00160791
0.00156509
0.00152218
0.00147975
0.00143795
0.00139659
0.00135525
0.00131452
0.00127428
0.00123438
0.00119437
0.00115427
0.00111362
0.00107297
0.00103212
0.000991411
0.000950368
0.000909831
0.000869466
0.000829773
0.000789587
0.000749741
0.000709422
0.000669486
0.000628585
0.000588485
0.000547916
0.000508586
0.000468572
0.000430156
0.000390746
0.000352986
0.00031394
0.000277344
0.000239535
0.000205158
0.000169685
0.000138346
0.000105897
7.84846e-05
5.06482e-05
2.86002e-05
7.51914e-06
0.0155957
0.0164365
0.0163573
0.0154994
0.0141206
0.0124848
0.0108065
0.00923212
0.00784268
0.00669301
0.00582222
0.00521786
0.00481758
0.00456164
0.00441388
0.00433538
0.00427491
0.00419362
0.00408268
0.00395533
0.00382793
0.00370738
0.00359345
0.0034878
0.00339489
0.00331531
0.00324389
0.00317493
0.00310655
0.00303953
0.0029751
0.00291394
0.0028555
0.00279791
0.00274012
0.00268308
0.00262798
0.00257415
0.00252036
0.0024665
0.00241323
0.00236097
0.00230963
0.00225867
0.00220791
0.00215763
0.00210852
0.00206085
0.00201429
0.00196833
0.00192304
0.00187852
0.00183471
0.00179122
0.00174793
0.00170473
0.00166182
0.00161879
0.00157559
0.0015323
0.00148953
0.00144737
0.00140568
0.00136397
0.0013229
0.00128231
0.00124206
0.00120169
0.00116131
0.00112039
0.00107953
0.00103844
0.00099754
0.000956298
0.000915582
0.000874973
0.000835059
0.000794644
0.000754608
0.000714078
0.000673983
0.000632933
0.000592698
0.00055198
0.00051249
0.000472319
0.000433713
0.000394163
0.000356215
0.000317084
0.000280279
0.000242417
0.000207755
0.000172244
0.000140515
0.000108067
8.0129e-05
5.22648e-05
2.94841e-05
8.14062e-06
0.0152353
0.0162138
0.0162269
0.0154304
0.0140992
0.0125146
0.0108978
0.00939154
0.00806518
0.006959
0.0061061
0.00549982
0.00508496
0.00480339
0.00462174
0.00450957
0.00442345
0.00432623
0.00420612
0.00407175
0.00393666
0.00380808
0.00368666
0.00357337
0.00347219
0.00338495
0.00330784
0.00323473
0.00316243
0.00309144
0.00302341
0.00295906
0.00289759
0.00283715
0.00277672
0.00271722
0.00265997
0.00260432
0.00254887
0.00249337
0.00243859
0.00238497
0.00233245
0.00228042
0.00222865
0.0021774
0.0021274
0.00207889
0.00203151
0.00198471
0.0019386
0.00189332
0.00184886
0.00180472
0.00176079
0.00171698
0.00167355
0.00163008
0.00158649
0.0015428
0.00149966
0.00145714
0.0014151
0.001373
0.00133158
0.00129063
0.00125003
0.00120929
0.00116861
0.00112742
0.00108634
0.001045
0.00100389
0.000962448
0.000921542
0.000880687
0.000840538
0.000799895
0.000759655
0.000718914
0.000678646
0.000637449
0.000597062
0.000556196
0.00051653
0.000476207
0.000437395
0.000397711
0.000359555
0.000320345
0.000283311
0.000245401
0.000210436
0.000174885
0.000142757
0.00011029
8.18323e-05
5.38884e-05
3.04095e-05
8.72036e-06
0.0148833
0.0159983
0.0161075
0.0153766
0.0140928
0.0125519
0.0109842
0.00953392
0.00826364
0.00720027
0.00636891
0.00576597
0.00534223
0.00504118
0.00483097
0.004688
0.00457658
0.00446235
0.00433189
0.00419028
0.00404772
0.00391092
0.00378179
0.00366133
0.00355241
0.00345727
0.00337376
0.00329622
0.00322016
0.00314514
0.00307325
0.00300563
0.00294119
0.0028778
0.0028146
0.0027526
0.00269311
0.00263556
0.00257839
0.0025212
0.00246485
0.00240984
0.00235609
0.00230295
0.00225012
0.00219786
0.00214694
0.00209756
0.00204933
0.00200166
0.00195471
0.00190866
0.00186352
0.00181871
0.00177412
0.00172969
0.00168572
0.00164179
0.00159778
0.00155368
0.00151015
0.00146726
0.00142485
0.00138236
0.00134058
0.00129926
0.00125829
0.00121717
0.00117619
0.00113473
0.0010934
0.00105181
0.00101048
0.000968827
0.000927715
0.000886613
0.000846218
0.000805345
0.000764888
0.000723937
0.00068348
0.000642136
0.00060158
0.00056057
0.000520711
0.00048024
0.000441204
0.000401393
0.000363011
0.000323725
0.000286445
0.000248487
0.000213206
0.000177607
0.000145076
0.000112564
8.35974e-05
5.55188e-05
3.13738e-05
9.2647e-06
0.0145421
0.015792
0.0159991
0.0153358
0.0140993
0.012597
0.0110688
0.0096631
0.00844086
0.00741794
0.00661
0.00601468
0.00558753
0.00527291
0.00503949
0.00486916
0.00473369
0.004602
0.00446001
0.0043105
0.00416064
0.00401565
0.00387858
0.0037512
0.00363526
0.00353234
0.00344177
0.00335926
0.0032795
0.00320055
0.00312457
0.0030535
0.00298614
0.00291983
0.00285373
0.00278915
0.00272742
0.00266786
0.00260889
0.00255
0.00249203
0.00243557
0.00238054
0.00232625
0.00227234
0.00221901
0.00216712
0.00211684
0.00206775
0.0020192
0.00197138
0.00192454
0.0018787
0.0018332
0.00178794
0.00174287
0.00169834
0.00165393
0.00160949
0.00156494
0.00152102
0.00147775
0.00143495
0.00139206
0.0013499
0.00130821
0.00126686
0.00122536
0.00118405
0.0011423
0.00110072
0.00105887
0.00101731
0.000975441
0.00093411
0.000892758
0.000852103
0.000811002
0.000770314
0.000729153
0.000688491
0.000647
0.000606259
0.000565106
0.000525038
0.000484423
0.000445148
0.000405212
0.000366588
0.000327226
0.000289686
0.000251675
0.00021607
0.000180408
0.000147476
0.000114885
8.5426e-05
5.71571e-05
3.23736e-05
9.77979e-06
0.0142143
0.015597
0.015902
0.015306
0.0141154
0.0126481
0.0111522
0.00978141
0.0085989
0.00761311
0.00682935
0.00624478
0.00581923
0.00549699
0.00524584
0.00505197
0.00489422
0.00474512
0.00459055
0.00443218
0.00427501
0.00412215
0.00397697
0.00384261
0.00372023
0.00360997
0.00351194
0.00342378
0.00334022
0.00325759
0.00317743
0.00310264
0.00303239
0.00296327
0.00289417
0.00282688
0.00276289
0.00270128
0.00264041
0.00257975
0.00252012
0.00246216
0.00240582
0.00235034
0.0022953
0.00224088
0.00218797
0.00213677
0.00208679
0.00203733
0.00198863
0.00194097
0.00189441
0.00184821
0.00180225
0.00175651
0.00171142
0.00166652
0.00162162
0.00157662
0.00153227
0.00148861
0.00144541
0.0014021
0.00135955
0.00131747
0.00127573
0.00123385
0.0011922
0.00115016
0.00110831
0.0010662
0.00102439
0.000982298
0.000940733
0.000899129
0.000858202
0.000816871
0.000775938
0.000734567
0.000693686
0.000652047
0.000611104
0.000569809
0.000529517
0.000488759
0.000449231
0.00040917
0.000370291
0.00033085
0.000293039
0.000254964
0.000219032
0.000183288
0.00014996
0.000117254
8.73188e-05
5.88051e-05
3.34053e-05
1.02714e-05
0.0139016
0.015414
0.0158153
0.0152848
0.0141379
0.0127023
0.0112337
0.00989051
0.00874022
0.00778778
0.00702821
0.00645635
0.00603635
0.00571217
0.00544884
0.00523526
0.0050571
0.00489112
0.00472342
0.00455526
0.00439059
0.00423022
0.00407688
0.00393526
0.00380678
0.00368988
0.00358439
0.00348993
0.00340225
0.00331619
0.00323196
0.00315317
0.00307989
0.0030081
0.00293601
0.00286581
0.00279949
0.00273582
0.00267296
0.00261048
0.00254917
0.00248964
0.00243193
0.00237524
0.00231903
0.00226348
0.00220952
0.00215736
0.00210647
0.00205608
0.00200646
0.00195797
0.00191066
0.00186375
0.00181707
0.00177066
0.00172497
0.00167956
0.00163418
0.0015887
0.00154393
0.00149985
0.00145623
0.00141251
0.00136954
0.00132707
0.00128493
0.00124266
0.00120065
0.00115832
0.00111618
0.0010738
0.00103172
0.000989406
0.000947593
0.000905734
0.000864521
0.000822959
0.000781768
0.000740185
0.00069907
0.000657282
0.000616123
0.000574683
0.000534154
0.000493251
0.000453458
0.000413269
0.000374127
0.000334596
0.000296509
0.000258356
0.000222097
0.000186245
0.000152532
0.000119671
8.92752e-05
6.04654e-05
3.44651e-05
1.07448e-05
0.013604
0.0152419
0.015737
0.0152698
0.014164
0.0127572
0.0113126
0.00999224
0.00886781
0.00794432
0.00720822
0.00665014
0.00623829
0.00591697
0.00564688
0.00541747
0.00522098
0.00503921
0.00485859
0.00467992
0.00450722
0.00433958
0.00417823
0.00402903
0.00389457
0.00377178
0.00365917
0.00355793
0.0034656
0.00337623
0.00328819
0.00320518
0.00312856
0.00305417
0.00297922
0.00290598
0.00283716
0.00277146
0.00270659
0.0026422
0.00257919
0.00251805
0.00245891
0.00240097
0.00234354
0.0022868
0.00223177
0.00217863
0.0021268
0.00207545
0.00202489
0.00197555
0.00192748
0.00187983
0.00183241
0.00178531
0.00173901
0.00169307
0.00164719
0.00160121
0.00155599
0.0015115
0.00146743
0.00142328
0.00137989
0.00133701
0.00129446
0.00125179
0.00120941
0.00116678
0.00112434
0.00108168
0.00103932
0.000996772
0.000954696
0.000912579
0.000871069
0.000829272
0.000787812
0.000746012
0.000704651
0.000662709
0.00062132
0.000579731
0.000538955
0.000497902
0.000457837
0.000417511
0.0003781
0.000338467
0.000300101
0.00026185
0.000225269
0.000189281
0.000155192
0.000122136
9.1294e-05
6.21412e-05
3.55492e-05
1.12044e-05
0.0133208
0.0150786
0.0156647
0.0152589
0.0141925
0.0128122
0.0113889
0.0100878
0.00898387
0.00808456
0.00737072
0.0068271
0.00642479
0.0061098
0.00583809
0.00559717
0.00538481
0.00518872
0.0049959
0.00480629
0.00462483
0.00445003
0.00428095