/*--------------------------------*- C++ -*----------------------------------*\
| =========                 |                                                 |
| \\      /  F ield         | OpenFOAM: The Open Source CFD Toolbox           |
|  \\    /   O peration     | Version:  5.x                                   |
|   \\  /    A nd           | Web:      www.OpenFOAM.org                      |
|    \\/     M anipulation  |                                                 |
\*---------------------------------------------------------------------------*/
FoamFile
{
    version     2.0;
    format      ascii;
    class       surfaceScalarField;
    location    "0.7";
    object      phi;
}
// * * * * * * * * * * * * * * * * * * * * * * * * * * * * * * * * * * * * * //

dimensions      [0 3 -1 0 0 0 0];

internalField   nonuniform List<scalar> 
21390
(
7.40985e-08
6.85827e-09
-8.09568e-08
6.56719e-08
8.4266e-09
5.73914e-08
8.28048e-09
4.93722e-08
8.01925e-09
4.16345e-08
7.73768e-09
3.44794e-08
7.15505e-09
2.83799e-08
6.09951e-09
2.37299e-08
4.64999e-09
2.05908e-08
3.13913e-09
1.86203e-08
1.97051e-09
1.73635e-08
1.25678e-09
1.6507e-08
8.56533e-10
1.58714e-08
6.35622e-10
1.53474e-08
5.2401e-10
1.48705e-08
4.76893e-10
1.44119e-08
4.58563e-10
1.39637e-08
4.48227e-10
1.35278e-08
4.35832e-10
1.31101e-08
4.17735e-10
1.27158e-08
3.94329e-10
1.23478e-08
3.68007e-10
1.20061e-08
3.41629e-10
1.16888e-08
3.1738e-10
1.13926e-08
2.96148e-10
1.11149e-08
2.7768e-10
1.08535e-08
2.61396e-10
1.06065e-08
2.46993e-10
1.03723e-08
2.3421e-10
1.01496e-08
2.22708e-10
9.93757e-09
2.12054e-10
9.73546e-09
2.02112e-10
9.54255e-09
1.92908e-10
9.35791e-09
1.84637e-10
9.18078e-09
1.77134e-10
9.01048e-09
1.70299e-10
8.84659e-09
1.63886e-10
8.68864e-09
1.5795e-10
8.53635e-09
1.52292e-10
8.3894e-09
1.46951e-10
8.24765e-09
1.41747e-10
8.11074e-09
1.36912e-10
7.97836e-09
1.32384e-10
7.84998e-09
1.28383e-10
7.72549e-09
1.24489e-10
7.60464e-09
1.20843e-10
7.48738e-09
1.17264e-10
7.37343e-09
1.13947e-10
7.26291e-09
1.10527e-10
7.15548e-09
1.07421e-10
7.05112e-09
1.04369e-10
6.94942e-09
1.01696e-10
6.85043e-09
9.89937e-11
6.75382e-09
9.66047e-11
6.6598e-09
9.40251e-11
6.56804e-09
9.17511e-11
6.47867e-09
8.93725e-11
6.3912e-09
8.7469e-11
6.3058e-09
8.5405e-11
6.22212e-09
8.36785e-11
6.1405e-09
8.16211e-11
6.06059e-09
7.99112e-11
5.98265e-09
7.79409e-11
5.9062e-09
7.64511e-11
5.83158e-09
7.46144e-11
5.75831e-09
7.32672e-11
5.68684e-09
7.14697e-11
5.61668e-09
7.01684e-11
5.54816e-09
6.85159e-11
5.48063e-09
6.75268e-11
5.41464e-09
6.59911e-11
5.34963e-09
6.50082e-11
5.2862e-09
6.34327e-11
5.22359e-09
6.26097e-11
5.16243e-09
6.11579e-11
5.10206e-09
6.03724e-11
5.04325e-09
5.8809e-11
4.9851e-09
5.81522e-11
4.92834e-09
5.67603e-11
4.87211e-09
5.62298e-11
4.81733e-09
5.47799e-11
4.76293e-09
5.43967e-11
4.70989e-09
5.30388e-11
4.65719e-09
5.27005e-11
4.60592e-09
5.12701e-11
4.55488e-09
5.10444e-11
4.50524e-09
4.96373e-11
4.45574e-09
4.95005e-11
4.40762e-09
4.81251e-11
4.35948e-09
4.8136e-11
4.31269e-09
4.67914e-11
4.26583e-09
4.68614e-11
4.22027e-09
4.55599e-11
4.1746e-09
4.56706e-11
4.13012e-09
4.44758e-11
4.08548e-09
4.46405e-11
4.04177e-09
4.37106e-11
3.99797e-09
4.38053e-11
3.95455e-09
4.34195e-11
3.9115e-09
4.30454e-11
4.52493e-11
8.53852e-08
6.39123e-09
-8.49181e-08
8.44531e-08
9.35868e-09
8.25577e-08
1.01759e-08
8.0132e-08
1.04449e-08
7.71891e-08
1.06806e-08
7.37583e-08
1.05859e-08
6.99829e-08
9.87486e-09
6.61185e-08
8.51439e-09
6.24732e-08
6.78449e-09
5.9238e-08
5.20565e-09
5.63939e-08
4.10095e-09
5.38471e-08
3.40326e-09
5.15445e-08
2.93826e-09
4.94599e-08
2.60862e-09
4.75641e-08
2.37268e-09
4.58314e-08
2.19126e-09
4.42399e-08
2.03971e-09
4.27722e-08
1.90358e-09
4.14153e-08
1.77457e-09
4.016e-08
1.64965e-09
3.89979e-08
1.53014e-09
3.79202e-08
1.41936e-09
3.69173e-08
1.32025e-09
3.59801e-08
1.23334e-09
3.51005e-08
1.15728e-09
3.42719e-08
1.09e-09
3.34887e-08
1.03021e-09
3.27463e-08
9.76566e-10
3.2041e-08
9.27984e-10
3.13699e-08
8.83211e-10
3.073e-08
8.42007e-10
3.01188e-08
8.04109e-10
2.95336e-08
7.69834e-10
2.89723e-08
7.38457e-10
2.84328e-08
7.09775e-10
2.79138e-08
6.82867e-10
2.74139e-08
6.57839e-10
2.69323e-08
6.33897e-10
2.64679e-08
6.11355e-10
2.602e-08
5.89633e-10
2.55874e-08
5.69562e-10
2.51691e-08
5.50671e-10
2.47639e-08
5.33616e-10
2.43713e-08
5.17086e-10
2.39904e-08
5.01734e-10
2.36209e-08
4.86721e-10
2.3262e-08
4.72839e-10
2.29137e-08
4.58886e-10
2.25748e-08
4.46237e-10
2.22454e-08
4.33784e-10
2.19244e-08
4.22702e-10
2.1612e-08
4.11466e-10
2.13072e-08
4.01379e-10
2.10105e-08
3.90738e-10
2.07209e-08
3.81354e-10
2.04386e-08
3.71629e-10
2.01626e-08
3.63521e-10
1.98932e-08
3.54777e-10
1.96295e-08
3.47332e-10
1.93723e-08
3.38837e-10
1.91204e-08
3.31779e-10
1.88746e-08
3.23779e-10
1.86335e-08
3.17515e-10
1.83981e-08
3.10009e-10
1.81671e-08
3.04293e-10
1.79416e-08
2.97013e-10
1.772e-08
2.91699e-10
1.75036e-08
2.8498e-10
1.72905e-08
2.8059e-10
1.70823e-08
2.74182e-10
1.68773e-08
2.69997e-10
1.66771e-08
2.63637e-10
1.64797e-08
2.60058e-10
1.62868e-08
2.54009e-10
1.60965e-08
2.50676e-10
1.59109e-08
2.44462e-10
1.57273e-08
2.41707e-10
1.55482e-08
2.3591e-10
1.53708e-08
2.33623e-10
1.51978e-08
2.27716e-10
1.50262e-08
2.26016e-10
1.4859e-08
2.20259e-10
1.46928e-08
2.18871e-10
1.45312e-08
2.1291e-10
1.43702e-08
2.12062e-10
1.42137e-08
2.06071e-10
1.40575e-08
2.05734e-10
1.39059e-08
1.99712e-10
1.3754e-08
2.00041e-10
1.36069e-08
1.93909e-10
1.3459e-08
1.94749e-10
1.33161e-08
1.88511e-10
1.31718e-08
1.89896e-10
1.30326e-08
1.83685e-10
1.28915e-08
1.85728e-10
1.27554e-08
1.79881e-10
1.26168e-08
1.82371e-10
1.24826e-08
1.77613e-10
1.23462e-08
1.7951e-10
1.82115e-10
8.92189e-08
5.98787e-09
-8.88156e-08
8.96299e-08
8.9477e-09
8.95685e-08
1.02373e-08
8.9318e-08
1.06954e-08
8.89436e-08
1.10549e-08
8.83155e-08
1.12141e-08
8.7317e-08
1.08733e-08
8.5943e-08
9.88841e-09
8.43117e-08
8.41576e-09
8.2604e-08
6.91343e-09
8.09166e-08
5.7883e-09
7.92425e-08
5.07733e-09
7.75639e-08
4.61692e-09
7.58866e-08
4.28588e-09
7.42231e-08
4.03616e-09
7.25803e-08
3.83405e-09
7.09625e-08
3.65756e-09
6.93735e-08
3.49257e-09
6.7818e-08
3.33003e-09
6.63019e-08
3.16582e-09
6.48306e-08
3.00147e-09
6.34083e-08
2.84162e-09
6.20371e-08
2.69146e-09
6.07175e-08
2.55297e-09
5.94487e-08
2.42601e-09
5.82297e-08
2.309e-09
5.70584e-08
2.20155e-09
5.59326e-08
2.10233e-09
5.48501e-08
2.01052e-09
5.38088e-08
1.92444e-09
5.28065e-08
1.84435e-09
5.18408e-08
1.76979e-09
5.09091e-08
1.70154e-09
5.00093e-08
1.63824e-09
4.91391e-08
1.57997e-09
4.82971e-08
1.52493e-09
4.74815e-08
1.47343e-09
4.66917e-08
1.42368e-09
4.59266e-08
1.37651e-09
4.51855e-08
1.33066e-09
4.44671e-08
1.28797e-09
4.37705e-08
1.24728e-09
4.30941e-08
1.21008e-09
4.24373e-08
1.17385e-09
4.17988e-08
1.14025e-09
4.11782e-08
1.10733e-09
4.0574e-08
1.07698e-09
3.99863e-08
1.04666e-09
3.94133e-08
1.01922e-09
3.8855e-08
9.92098e-10
3.83098e-08
9.67868e-10
3.77781e-08
9.43158e-10
3.72586e-08
9.20855e-10
3.6752e-08
8.97341e-10
3.62568e-08
8.76549e-10
3.57736e-08
8.54909e-10
3.53005e-08
8.36579e-10
3.48385e-08
8.16775e-10
3.4386e-08
7.99859e-10
3.3944e-08
7.80811e-10
3.35107e-08
7.65048e-10
3.30873e-08
7.472e-10
3.26717e-08
7.33095e-10
3.22655e-08
7.16278e-10
3.18664e-08
7.03339e-10
3.14764e-08
6.87025e-10
3.1093e-08
6.75091e-10
3.07181e-08
6.59898e-10
3.0349e-08
6.49686e-10
2.99881e-08
6.35058e-10
2.96326e-08
6.25503e-10
2.92851e-08
6.11154e-10
2.89423e-08
6.02904e-10
2.86072e-08
5.89074e-10
2.82764e-08
5.81489e-10
2.79533e-08
5.67508e-10
2.76338e-08
5.61204e-10
2.73219e-08
5.47859e-10
2.70129e-08
5.42603e-10
2.67115e-08
5.29101e-10
2.64124e-08
5.25153e-10
2.61209e-08
5.11781e-10
2.5831e-08
5.08701e-10
2.5549e-08
4.9491e-10
2.5268e-08
4.93123e-10
2.49949e-08
4.79107e-10
2.4722e-08
4.78631e-10
2.44574e-08
4.64338e-10
2.4192e-08
4.65466e-10
2.39352e-08
4.50668e-10
2.36767e-08
4.53256e-10
2.34273e-08
4.37887e-10
2.31751e-08
4.42109e-10
2.29325e-08
4.2632e-10
2.26857e-08
4.3249e-10
2.24489e-08
4.16759e-10
2.22066e-08
4.24655e-10
2.19739e-08
4.10297e-10
2.17354e-08
4.17947e-10
4.16732e-10
9.30179e-08
5.82849e-09
-9.28585e-08
9.35309e-08
8.43473e-09
9.38012e-08
9.96699e-09
9.39706e-08
1.0526e-08
9.42066e-08
1.0819e-08
9.44446e-08
1.0976e-08
9.45378e-08
1.07801e-08
9.43813e-08
1.00449e-08
9.39619e-08
8.83514e-09
9.33749e-08
7.50047e-09
9.27244e-08
6.43882e-09
9.20351e-08
5.76658e-09
9.12914e-08
5.36061e-09
9.04905e-08
5.08681e-09
8.96423e-08
4.88435e-09
8.87536e-08
4.72278e-09
8.7827e-08
4.58413e-09
8.68642e-08
4.4554e-09
8.58672e-08
4.32704e-09
8.48399e-08
4.1931e-09
8.37875e-08
4.05387e-09
8.2716e-08
3.91307e-09
8.16311e-08
3.77639e-09
8.05382e-08
3.64588e-09
7.94421e-08
3.52207e-09
7.83477e-08
3.40349e-09
7.72583e-08
3.29087e-09
7.61775e-08
3.18319e-09
7.51073e-08
3.08074e-09
7.40498e-08
2.98186e-09
7.30062e-08
2.88803e-09
7.19772e-08
2.79876e-09
7.09628e-08
2.71591e-09
6.99634e-08
2.63761e-09
6.89786e-08
2.56485e-09
6.80085e-08
2.49495e-09
6.7053e-08
2.42891e-09
6.6113e-08
2.36367e-09
6.51887e-08
2.30088e-09
6.42812e-08
2.23813e-09
6.33906e-08
2.17862e-09
6.25177e-08
2.12016e-09
6.16621e-08
2.06566e-09
6.08247e-08
2.01124e-09
6.00046e-08
1.96031e-09
5.92024e-08
1.90957e-09
5.84166e-08
1.86274e-09
5.76477e-08
1.8156e-09
5.68938e-08
1.77313e-09
5.61551e-08
1.73076e-09
5.54298e-08
1.69314e-09
5.47187e-08
1.65432e-09
5.40201e-08
1.61941e-09
5.33355e-08
1.582e-09
5.26631e-08
1.54893e-09
5.20042e-08
1.51377e-09
5.1357e-08
1.48383e-09
5.07229e-08
1.45086e-09
5.01e-08
1.4228e-09
4.94899e-08
1.3909e-09
4.88901e-08
1.36482e-09
4.83024e-08
1.33492e-09
4.7724e-08
1.31151e-09
4.7157e-08
1.28325e-09
4.65986e-08
1.26173e-09
4.60515e-08
1.23414e-09
4.55124e-08
1.2142e-09
4.49841e-08
1.18817e-09
4.44631e-08
1.17069e-09
4.39528e-08
1.14531e-09
4.34493e-08
1.12903e-09
4.29563e-08
1.10419e-09
4.24691e-08
1.0901e-09
4.19922e-08
1.06595e-09
4.15206e-08
1.05309e-09
4.10593e-08
1.02877e-09
4.06025e-08
1.01804e-09
4.01559e-08
9.94416e-10
3.97131e-08
9.85449e-10
3.92806e-08
9.61555e-10
3.8851e-08
9.54835e-10
3.84318e-08
9.30923e-10
3.80146e-08
9.25888e-10
3.76083e-08
9.0121e-10
3.7203e-08
8.98483e-10
3.68089e-08
8.73178e-10
3.64146e-08
8.72883e-10
3.60322e-08
8.46827e-10
3.56482e-08
8.49454e-10
3.52766e-08
8.22225e-10
3.49022e-08
8.27705e-10
3.45409e-08
7.99105e-10
3.41752e-08
8.07819e-10
3.38236e-08
7.77975e-10
3.34656e-08
7.90503e-10
3.31223e-08
7.60046e-10
3.27708e-08
7.76143e-10
3.24339e-08
7.47224e-10
3.20881e-08
7.6366e-10
7.53935e-10
9.70489e-08
5.7808e-09
-9.70012e-08
9.75055e-08
7.97815e-09
9.78694e-08
9.60309e-09
9.81115e-08
1.02839e-08
9.8408e-08
1.05224e-08
9.87758e-08
1.06082e-08
9.91151e-08
1.04408e-08
9.93145e-08
9.84553e-09
9.93199e-08
8.82977e-09
9.91763e-08
7.64411e-09
9.89746e-08
6.6405e-09
9.87558e-08
5.98539e-09
9.85105e-08
5.60583e-09
9.82283e-08
5.36906e-09
9.79118e-08
5.20086e-09
9.7565e-08
5.06955e-09
9.71879e-08
4.9612e-09
9.67782e-08
4.86513e-09
9.63326e-08
4.77267e-09
9.58492e-08
4.67648e-09
9.53275e-08
4.5756e-09
9.47687e-08
4.47184e-09
9.41747e-08
4.37041e-09
9.35482e-08
4.27238e-09
9.28919e-08
4.17836e-09
9.22094e-08
4.08603e-09
9.15035e-08
3.9967e-09
9.07779e-08
3.90884e-09
9.00349e-08
3.82376e-09
8.92773e-08
3.73941e-09
8.85068e-08
3.65853e-09
8.77253e-08
3.58024e-09
8.69335e-08
3.50772e-09
8.61327e-08
3.4384e-09
8.5323e-08
3.37461e-09
8.45053e-08
3.31269e-09
8.36794e-08
3.25475e-09
8.28469e-08
3.19617e-09
8.20081e-08
3.13972e-09
8.1165e-08
3.08117e-09
8.03186e-08
3.02502e-09
7.94715e-08
2.96724e-09
7.86249e-08
2.91229e-09
7.77819e-08
2.85427e-09
7.69433e-08
2.79886e-09
7.61118e-08
2.74108e-09
7.52873e-08
2.68732e-09
7.44714e-08
2.63145e-09
7.3663e-08
2.58152e-09
7.28632e-08
2.53059e-09
7.207e-08
2.48636e-09
7.12846e-08
2.43971e-09
7.05052e-08
2.39877e-09
6.97338e-08
2.35341e-09
6.89688e-08
2.31397e-09
6.82124e-08
2.2701e-09
6.74632e-08
2.23309e-09
6.67239e-08
2.19015e-09
6.59927e-08
2.15397e-09
6.52725e-08
2.11106e-09
6.45607e-08
2.0767e-09
6.38597e-08
2.03592e-09
6.31662e-08
2.00495e-09
6.24832e-08
1.96629e-09
6.18069e-08
1.93803e-09
6.1141e-08
1.90005e-09
6.04815e-08
1.87371e-09
5.98324e-08
1.83723e-09
5.91895e-08
1.81357e-09
5.85577e-08
1.77718e-09
5.79319e-08
1.75482e-09
5.73172e-08
1.71881e-09
5.67079e-08
1.69944e-09
5.61097e-08
1.66413e-09
5.55162e-08
1.6466e-09
5.4934e-08
1.61098e-09
5.43556e-08
1.59644e-09
5.37888e-08
1.56122e-09
5.32252e-08
1.54904e-09
5.26736e-08
1.51313e-09
5.21243e-08
1.50415e-09
5.15874e-08
1.46782e-09
5.10518e-08
1.46149e-09
5.05292e-08
1.42386e-09
5.00066e-08
1.42101e-09
4.94978e-08
1.38205e-09
4.89878e-08
1.3829e-09
4.84922e-08
1.3424e-09
4.79939e-08
1.34773e-09
4.75111e-08
1.30507e-09
4.70238e-08
1.31497e-09
4.65531e-08
1.2698e-09
4.6076e-08
1.28487e-09
4.56167e-08
1.23728e-09
4.51488e-08
1.25839e-09
4.46997e-08
1.20921e-09
4.42398e-08
1.23607e-09
4.37985e-08
1.18849e-09
4.33457e-08
1.2165e-09
1.19366e-09
1.01257e-07
5.77038e-09
-1.01246e-07
1.01631e-07
7.60411e-09
1.02031e-07
9.2029e-09
1.02319e-07
9.99562e-09
1.02607e-07
1.02349e-08
1.02955e-07
1.02594e-08
1.03315e-07
1.00811e-08
1.03586e-07
9.57462e-09
1.03705e-07
8.71113e-09
1.03689e-07
7.65978e-09
1.03619e-07
6.7106e-09
1.03546e-07
6.05805e-09
1.03473e-07
5.67898e-09
1.03387e-07
5.45507e-09
1.03286e-07
5.3017e-09
1.03174e-07
5.18183e-09
1.03051e-07
5.08418e-09
1.02915e-07
5.00081e-09
1.02763e-07
4.92533e-09
1.02589e-07
4.84989e-09
1.02392e-07
4.77302e-09
1.02169e-07
4.69457e-09
1.0192e-07
4.61942e-09
1.01645e-07
4.5473e-09
1.01344e-07
4.47914e-09
1.01019e-07
4.41141e-09
1.0067e-07
4.34601e-09
1.00298e-07
4.28035e-09
9.99052e-08
4.21678e-09
9.94922e-08
4.15236e-09
9.90596e-08
4.09113e-09
9.86087e-08
4.03121e-09
9.81391e-08
3.97724e-09
9.76519e-08
3.9256e-09
9.71462e-08
3.88037e-09
9.66222e-08
3.83666e-09
9.60787e-08
3.79827e-09
9.5516e-08
3.75886e-09
9.49329e-08
3.72284e-09
9.43302e-08
3.6838e-09
9.37076e-08
3.64771e-09
9.30669e-08
3.60788e-09
9.24089e-08
3.57033e-09
9.1737e-08
3.5261e-09
9.10528e-08
3.4831e-09
9.03602e-08
3.4337e-09
8.96601e-08
3.38739e-09
8.89561e-08
3.3355e-09
8.82476e-08
3.28998e-09
8.75371e-08
3.24114e-09
8.68226e-08
3.20077e-09
8.61061e-08
3.15628e-09
8.53849e-08
3.11991e-09
8.46612e-08
3.07717e-09
8.39325e-08
3.04265e-09
8.32017e-08
3.00089e-09
8.24671e-08
2.96771e-09
8.17328e-08
2.92443e-09
8.09975e-08
2.88926e-09
8.02659e-08
2.84273e-09
7.95356e-08
2.80696e-09
7.88108e-08
2.76071e-09
7.80881e-08
2.72769e-09
7.73711e-08
2.68325e-09
7.66555e-08
2.65368e-09
7.59454e-08
2.6101e-09
7.52362e-08
2.58295e-09
7.45328e-08
2.54058e-09
7.38306e-08
2.51584e-09
7.31358e-08
2.47197e-09
7.24431e-08
2.44751e-09
7.17593e-08
2.40264e-09
7.10776e-08
2.38113e-09
7.04053e-08
2.33639e-09
6.97347e-08
2.31721e-09
6.90738e-08
2.27189e-09
6.84136e-08
2.2566e-09
6.77637e-08
2.21109e-09
6.71144e-08
2.1984e-09
6.64764e-08
2.15111e-09
6.58384e-08
2.14215e-09
6.52128e-08
2.09346e-09
6.45863e-08
2.08799e-09
6.39729e-08
2.03721e-09
6.33575e-08
2.03644e-09
6.27562e-08
1.98331e-09
6.21517e-08
1.98747e-09
6.15625e-08
1.93155e-09
6.09686e-08
1.94165e-09
6.03915e-08
1.88222e-09
5.98077e-08
1.89869e-09
5.92422e-08
1.83531e-09
5.86681e-08
1.859e-09
5.81137e-08
1.79166e-09
5.75484e-08
1.82367e-09
5.70041e-08
1.75351e-09
5.64467e-08
1.79348e-09
5.59103e-08
1.72491e-09
5.53598e-08
1.76701e-09
1.72774e-09
1.05602e-07
5.76211e-09
-1.05594e-07
1.05899e-07
7.30724e-09
1.063e-07
8.80197e-09
1.06629e-07
9.66653e-09
1.06918e-07
9.94577e-09
1.07239e-07
9.93852e-09
1.0758e-07
9.74063e-09
1.0786e-07
9.29426e-09
1.08014e-07
8.55732e-09
1.0804e-07
7.63372e-09
1.08004e-07
6.74693e-09
1.07964e-07
6.09804e-09
1.07934e-07
5.70879e-09
1.07904e-07
5.48508e-09
1.07868e-07
5.33744e-09
1.07829e-07
5.2207e-09
1.0779e-07
5.12389e-09
1.07749e-07
5.04125e-09
1.07705e-07
4.96959e-09
1.07654e-07
4.90104e-09
1.07592e-07
4.83447e-09
1.07519e-07
4.76777e-09
1.07433e-07
4.70588e-09
1.07333e-07
4.64702e-09
1.07219e-07
4.59296e-09
1.07092e-07
4.53878e-09
1.0695e-07
4.48739e-09
1.06796e-07
4.43489e-09
1.06627e-07
4.38501e-09
1.06446e-07
4.33352e-09
1.06251e-07
4.28597e-09
1.06044e-07
4.23899e-09
1.05822e-07
4.19888e-09
1.05587e-07
4.16052e-09
1.05337e-07
4.13007e-09
1.05073e-07
4.10109e-09
1.04792e-07
4.07967e-09
1.04493e-07
4.0576e-09
1.04174e-07
4.04161e-09
1.03835e-07
4.02297e-09
1.03473e-07
4.0098e-09
1.03088e-07
3.99229e-09
1.0268e-07
3.97852e-09
1.02251e-07
3.9557e-09
1.018e-07
3.93402e-09
1.01331e-07
3.90209e-09
1.00846e-07
3.87261e-09
1.00348e-07
3.83345e-09
9.98373e-08
3.80084e-09
9.93168e-08
3.76168e-09
9.87849e-08
3.73264e-09
9.82439e-08
3.69727e-09
9.76909e-08
3.67298e-09
9.71274e-08
3.64065e-09
9.65498e-08
3.6202e-09
9.59603e-08
3.59039e-09
9.53558e-08
3.57227e-09
9.47402e-08
3.53997e-09
9.4112e-08
3.5175e-09
9.34768e-08
3.47791e-09
9.28331e-08
3.45068e-09
9.21866e-08
3.40718e-09
9.15344e-08
3.37986e-09
9.08816e-08
3.33609e-09
9.02232e-08
3.3121e-09
8.95638e-08
3.26944e-09
8.88976e-08
3.24917e-09
8.82298e-08
3.20835e-09
8.75548e-08
3.1909e-09
8.68798e-08
3.14696e-09
8.61993e-08
3.12796e-09
8.55219e-08
3.08005e-09
8.48408e-08
3.06225e-09
8.41648e-08
3.01242e-09
8.34853e-08
2.99666e-09
8.28115e-08
2.94574e-09
8.2133e-08
2.93505e-09
8.14606e-08
2.88357e-09
8.07832e-08
2.87573e-09
8.01135e-08
2.8208e-09
7.94393e-08
2.8164e-09
7.87747e-08
2.75805e-09
7.81054e-08
2.75725e-09
7.74471e-08
2.69556e-09
7.67829e-08
2.70064e-09
7.61307e-08
2.63548e-09
7.54715e-08
2.64663e-09
7.48261e-08
2.57699e-09
7.41727e-08
2.59506e-09
7.35349e-08
2.51999e-09
7.28877e-08
2.54592e-09
7.22578e-08
2.46524e-09
7.16165e-08
2.5003e-09
7.09941e-08
2.41399e-09
7.03585e-08
2.45932e-09
6.97433e-08
2.36872e-09
6.91129e-08
2.42384e-09
6.85031e-08
2.33476e-09
6.78772e-08
2.3929e-09
2.33674e-09
1.10069e-07
5.74355e-09
-1.10051e-07
1.10305e-07
7.07201e-09
1.10684e-07
8.42231e-09
1.1104e-07
9.31053e-09
1.11342e-07
9.64365e-09
1.11647e-07
9.63432e-09
1.11963e-07
9.42369e-09
1.1224e-07
9.01798e-09
1.12412e-07
8.38501e-09
1.12465e-07
7.58121e-09
1.12444e-07
6.76709e-09
1.12412e-07
6.13031e-09
1.12391e-07
5.72956e-09
1.12377e-07
5.49993e-09
1.12359e-07
5.35471e-09
1.1234e-07
5.23962e-09
1.12323e-07
5.14164e-09
1.12308e-07
5.05591e-09
1.12295e-07
4.98285e-09
1.12281e-07
4.91477e-09
1.12264e-07
4.85164e-09
1.12242e-07
4.78934e-09
1.12215e-07
4.73325e-09
1.12182e-07
4.67976e-09
1.12143e-07
4.63188e-09
1.12099e-07
4.58311e-09
1.12048e-07
4.53781e-09
1.11993e-07
4.49052e-09
1.11931e-07
4.44676e-09
1.11864e-07
4.40069e-09
1.1179e-07
4.35972e-09
1.11711e-07
4.31849e-09
1.11624e-07
4.28531e-09
1.11532e-07
4.25301e-09
1.11432e-07
4.23018e-09
1.11324e-07
4.20835e-09
1.11208e-07
4.19636e-09
1.11081e-07
4.18381e-09
1.10943e-07
4.18044e-09
1.10791e-07
4.17497e-09
1.10622e-07
4.17843e-09
1.10436e-07
4.17772e-09
1.10231e-07
4.18373e-09
1.10007e-07
4.17953e-09
1.09763e-07
4.17804e-09
1.09502e-07
4.16334e-09
1.09223e-07
4.15156e-09
1.0893e-07
4.12626e-09
1.08623e-07
4.10813e-09
1.08305e-07
4.07989e-09
1.07974e-07
4.06355e-09
1.07633e-07
4.0382e-09
1.07279e-07
4.02711e-09
1.06913e-07
4.00623e-09
1.06532e-07
4.00186e-09
1.06135e-07
3.98682e-09
1.05719e-07
3.98846e-09
1.05286e-07
3.97313e-09
1.04832e-07
3.97096e-09
1.04364e-07
3.94621e-09
1.03879e-07
3.93575e-09
1.03384e-07
3.90229e-09
1.02876e-07
3.88746e-09
1.02363e-07
3.84985e-09
1.01838e-07
3.83665e-09
1.01308e-07
3.79963e-09
1.00765e-07
3.79182e-09
1.00215e-07
3.75871e-09
9.96496e-08
3.75621e-09
9.90762e-08
3.72031e-09
9.84887e-08
3.71552e-09
9.78962e-08
3.67247e-09
9.72927e-08
3.66576e-09
9.66883e-08
3.61682e-09
9.60749e-08
3.61014e-09
9.5462e-08
3.55858e-09
9.48389e-08
3.55816e-09
9.42159e-08
3.50655e-09
9.35813e-08
3.51031e-09
9.2948e-08
3.45417e-09
9.23036e-08
3.46073e-09
9.16636e-08
3.3981e-09
9.10139e-08
3.40698e-09
9.03707e-08
3.33871e-09
8.97172e-08
3.35418e-09
8.90711e-08
3.28158e-09
8.84132e-08
3.30451e-09
8.77643e-08
3.2259e-09
8.71032e-08
3.25618e-09
8.64536e-08
3.16956e-09
8.57913e-08
3.20823e-09
8.51424e-08
3.1141e-09
8.44793e-08
3.16346e-09
8.38309e-08
3.06232e-09
8.31669e-08
3.12333e-09
8.25192e-08
3.01644e-09
8.1855e-08
3.08808e-09
8.1207e-08
2.98275e-09
8.05421e-08
3.05775e-09
2.98833e-09
1.14658e-07
5.71443e-09
-1.14629e-07
1.1485e-07
6.88021e-09
1.15197e-07
8.07591e-09
1.15563e-07
8.94439e-09
1.15882e-07
9.32475e-09
1.1618e-07
9.33629e-09
1.16476e-07
9.12758e-09
1.16742e-07
8.75157e-09
1.16926e-07
8.20137e-09
1.17002e-07
7.50534e-09
1.16998e-07
6.77099e-09
1.16971e-07
6.15669e-09
1.16953e-07
5.74778e-09
1.16944e-07
5.50895e-09
1.16935e-07
5.36393e-09
1.16924e-07
5.25077e-09
1.16913e-07
5.15253e-09
1.16905e-07
5.0635e-09
1.169e-07
4.9877e-09
1.16898e-07
4.9177e-09
1.16894e-07
4.85526e-09
1.16889e-07
4.79425e-09
1.16881e-07
4.74088e-09
1.16872e-07
4.68936e-09
1.16859e-07
4.64424e-09
1.16845e-07
4.59717e-09
1.16829e-07
4.55432e-09
1.16811e-07
4.50833e-09
1.16791e-07
4.46694e-09
1.16769e-07
4.42229e-09
1.16745e-07
4.38401e-09
1.16719e-07
4.34436e-09
1.1669e-07
4.31397e-09
1.1666e-07
4.28314e-09
1.16627e-07
4.26321e-09
1.16592e-07
4.24316e-09
1.16554e-07
4.23491e-09
1.16512e-07
4.22541e-09
1.16465e-07
4.22786e-09
1.16412e-07
4.22807e-09
1.1635e-07
4.24064e-09
1.16278e-07
4.24896e-09
1.16195e-07
4.26745e-09
1.16099e-07
4.27495e-09
1.15989e-07
4.28772e-09
1.15868e-07
4.28496e-09
1.15733e-07
4.28664e-09
1.15588e-07
4.2714e-09
1.15431e-07
4.26464e-09
1.15267e-07
4.24427e-09
1.15093e-07
4.23782e-09
1.14911e-07
4.21933e-09
1.1472e-07
4.21822e-09
1.14521e-07
4.20506e-09
1.1431e-07
4.21309e-09
1.14088e-07
4.20927e-09
1.13848e-07
4.22813e-09
1.13593e-07
4.22847e-09
1.13317e-07
4.24702e-09
1.13024e-07
4.23879e-09
1.12712e-07
4.2478e-09
1.12387e-07
4.22736e-09
1.12046e-07
4.22808e-09
1.11697e-07
4.19914e-09
1.11335e-07
4.19857e-09
1.10966e-07
4.16838e-09
1.10584e-07
4.1741e-09
1.10192e-07
4.15041e-09
1.09783e-07
4.16576e-09
1.09361e-07
4.14237e-09
1.08919e-07
4.15747e-09
1.08466e-07
4.12579e-09
1.07995e-07
4.13641e-09
1.07518e-07
4.09411e-09
1.07027e-07
4.10097e-09
1.06533e-07
4.05281e-09
1.06025e-07
4.06605e-09
1.05512e-07
4.01889e-09
1.04983e-07
4.03922e-09
1.04449e-07
3.98854e-09
1.03897e-07
4.01234e-09
1.03343e-07
3.95238e-09
1.02774e-07
3.97601e-09
1.02206e-07
3.90667e-09
1.01624e-07
3.93615e-09
1.01044e-07
3.86165e-09
1.00448e-07
3.90052e-09
9.98542e-08
3.81982e-09
9.92437e-08
3.86666e-09
9.8638e-08
3.77531e-09
9.80165e-08
3.82964e-09
9.74023e-08
3.72837e-09
9.67717e-08
3.79403e-09
9.61488e-08
3.68524e-09
9.55086e-08
3.76356e-09
9.48767e-08
3.64825e-09
9.42281e-08
3.73668e-09
9.35878e-08
3.62309e-09
9.29315e-08
3.71408e-09
3.63932e-09
1.19384e-07
5.67924e-09
-1.19349e-07
1.19547e-07
6.71748e-09
1.19857e-07
7.76625e-09
1.20218e-07
8.58257e-09
1.20552e-07
8.99158e-09
1.2085e-07
9.03781e-09
1.2113e-07
8.84721e-09
1.21384e-07
8.49799e-09
1.21573e-07
8.01281e-09
1.21668e-07
7.40967e-09
1.21682e-07
6.75694e-09
1.21664e-07
6.17511e-09
1.21648e-07
5.76379e-09
1.21642e-07
5.51449e-09
1.21639e-07
5.36729e-09
1.21634e-07
5.25594e-09
1.21627e-07
5.15891e-09
1.21623e-07
5.06754e-09
1.21622e-07
4.9891e-09
1.21623e-07
4.91631e-09
1.21625e-07
4.85334e-09
1.21627e-07
4.79215e-09
1.21628e-07
4.74021e-09
1.21628e-07
4.68934e-09
1.21627e-07
4.64579e-09
1.21625e-07
4.59911e-09
1.21621e-07
4.55757e-09
1.21618e-07
4.51163e-09
1.21614e-07
4.47144e-09
1.21609e-07
4.42689e-09
1.21603e-07
4.39005e-09
1.21597e-07
4.3505e-09
1.21589e-07
4.32145e-09
1.21582e-07
4.29039e-09
1.21574e-07
4.27155e-09
1.21566e-07
4.25104e-09
1.21557e-07
4.244e-09
1.21548e-07
4.23436e-09
1.21537e-07
4.23893e-09
1.21524e-07
4.24036e-09
1.21508e-07
4.25703e-09
1.21488e-07
4.26871e-09
1.21462e-07
4.29377e-09
1.2143e-07
4.30687e-09
1.2139e-07
4.32807e-09
1.21343e-07
4.3317e-09
1.21288e-07
4.34185e-09
1.21227e-07
4.33211e-09
1.21159e-07
4.33266e-09
1.21087e-07
4.31632e-09
1.21009e-07
4.31611e-09
1.20927e-07
4.30074e-09
1.2084e-07
4.30562e-09
1.20749e-07
4.29568e-09
1.20651e-07
4.311e-09
1.20548e-07
4.31276e-09
1.20433e-07
4.34299e-09
1.20308e-07
4.3536e-09
1.20167e-07
4.38822e-09
1.20012e-07
4.3931e-09
1.19841e-07
4.41907e-09
1.19658e-07
4.4102e-09
1.19461e-07
4.42533e-09
1.19256e-07
4.40443e-09
1.19039e-07
4.41527e-09
1.18817e-07
4.39044e-09
1.18584e-07
4.40711e-09
1.18344e-07
4.39053e-09
1.18088e-07
4.42138e-09
1.17821e-07
4.40993e-09
1.17533e-07
4.44504e-09
1.17232e-07
4.42707e-09
1.16911e-07
4.45736e-09
1.1658e-07
4.42524e-09
1.16233e-07
4.44751e-09
1.15881e-07
4.40496e-09
1.15515e-07
4.43191e-09
1.15143e-07
4.39079e-09
1.14754e-07
4.42841e-09
1.14355e-07
4.38717e-09
1.13936e-07
4.43138e-09
1.13508e-07
4.38033e-09
1.13062e-07
4.42212e-09
1.12612e-07
4.35717e-09
1.12146e-07
4.40204e-09
1.11677e-07
4.33036e-09
1.11191e-07
4.38643e-09
1.10701e-07
4.31034e-09
1.10191e-07
4.37639e-09
1.09678e-07
4.28844e-09
1.09147e-07
4.36006e-09
1.08617e-07
4.25921e-09
1.0807e-07
4.341e-09
1.07522e-07
4.23308e-09
1.06957e-07
4.32854e-09
1.0639e-07
4.21505e-09
1.05808e-07
4.31915e-09
1.05223e-07
4.20776e-09
1.04625e-07
4.31188e-09
4.24239e-09
1.24265e-07
5.64575e-09
-1.24231e-07
1.24408e-07
6.57434e-09
1.24684e-07
7.48996e-09
1.25033e-07
8.23445e-09
1.25373e-07
8.65108e-09
1.25675e-07
8.73556e-09
1.25945e-07
8.57717e-09
1.26186e-07
8.25766e-09
1.26374e-07
7.82474e-09
1.26484e-07
7.29901e-09
1.26517e-07
6.7244e-09
1.26509e-07
6.18335e-09
1.26496e-07
5.77648e-09
1.26493e-07
5.51757e-09
1.26494e-07
5.36588e-09
1.26495e-07
5.25551e-09
1.26493e-07
5.16085e-09
1.26492e-07
5.0684e-09
1.26493e-07
4.98797e-09
1.26497e-07
4.91228e-09
1.26502e-07
4.84811e-09
1.26509e-07
4.78583e-09
1.26514e-07
4.73456e-09
1.2652e-07
4.68372e-09
1.26524e-07
4.64128e-09
1.26529e-07
4.59461e-09
1.26532e-07
4.55412e-09
1.26536e-07
4.50802e-09
1.26539e-07
4.46888e-09
1.26541e-07
4.42428e-09
1.26543e-07
4.38872e-09
1.26544e-07
4.34908e-09
1.26544e-07
4.32116e-09
1.26545e-07
4.28962e-09
1.26545e-07
4.27157e-09
1.26546e-07
4.25017e-09
1.26546e-07
4.24371e-09
1.26547e-07
4.23302e-09
1.26548e-07
4.23835e-09
1.26549e-07
4.23913e-09
1.26549e-07
4.25745e-09
1.26548e-07
4.2695e-09
1.26544e-07
4.29758e-09
1.26539e-07
4.31248e-09
1.26529e-07
4.33814e-09
1.26516e-07
4.3444e-09
1.26498e-07
4.35939e-09
1.26478e-07
4.35203e-09
1.26454e-07
4.3569e-09
1.26429e-07
4.34203e-09
1.26399e-07
4.34545e-09
1.26369e-07
4.33084e-09
1.26336e-07
4.33897e-09
1.26302e-07
4.3294e-09
1.26265e-07
4.34823e-09
1.26226e-07
4.35131e-09
1.26182e-07
4.3875e-09
1.26132e-07
4.40289e-09
1.26073e-07
4.44761e-09
1.26006e-07
4.46054e-09
1.25926e-07
4.49848e-09
1.25839e-07
4.49753e-09
1.25741e-07
4.52348e-09
1.25637e-07
4.50834e-09
1.25524e-07
4.52775e-09
1.25409e-07
4.50607e-09
1.25286e-07
4.52978e-09
1.2516e-07
4.51672e-09
1.25023e-07
4.558e-09
1.24878e-07
4.55479e-09
1.24718e-07
4.60558e-09
1.24545e-07
4.59958e-09
1.24355e-07
4.64739e-09
1.24155e-07
4.62597e-09
1.2394e-07
4.66247e-09
1.23718e-07
4.62603e-09
1.23486e-07
4.66407e-09
1.23249e-07
4.62822e-09
1.22998e-07
4.67966e-09
1.22737e-07
4.64818e-09
1.22457e-07
4.71129e-09
1.22164e-07
4.67253e-09
1.21854e-07
4.73273e-09
1.21535e-07
4.67642e-09
1.21201e-07
4.73539e-09
1.20862e-07
4.66954e-09
1.20508e-07
4.74026e-09
1.20146e-07
4.67308e-09
1.19764e-07
4.75753e-09
1.19373e-07
4.68021e-09
1.18964e-07
4.76857e-09
1.18548e-07
4.67551e-09
1.18118e-07
4.77055e-09
1.1768e-07
4.67102e-09
1.17228e-07
4.78072e-09
1.16764e-07
4.67902e-09
1.16287e-07
4.79622e-09
1.15797e-07
4.69777e-09
1.15299e-07
4.81041e-09
4.75649e-09
1.29316e-07
5.62385e-09
-1.29294e-07
1.29447e-07
6.44303e-09
1.29697e-07
7.24067e-09
1.30027e-07
7.90434e-09
1.30366e-07
8.31137e-09
1.30673e-07
8.42944e-09
1.30937e-07
8.31276e-09
1.31166e-07
8.02878e-09
1.3135e-07
7.64062e-09
1.31471e-07
7.17832e-09
1.31521e-07
6.67434e-09
1.31525e-07
6.17955e-09
1.31517e-07
5.78444e-09
1.31516e-07
5.51851e-09
1.31521e-07
5.36066e-09
1.31526e-07
5.24997e-09
1.31529e-07
5.15822e-09
1.31531e-07
5.06597e-09
1.31535e-07
4.98446e-09
1.31541e-07
4.90622e-09
1.31549e-07
4.8406e-09
1.31558e-07
4.7767e-09
1.31567e-07
4.72545e-09
1.31576e-07
4.6743e-09
1.31585e-07
4.63273e-09
1.31593e-07
4.586e-09
1.31601e-07
4.54647e-09
1.31609e-07
4.50034e-09
1.31615e-07
4.46229e-09
1.31622e-07
4.41781e-09
1.31627e-07
4.38359e-09
1.31632e-07
4.34408e-09
1.31636e-07
4.31735e-09
1.3164e-07
4.28557e-09
1.31643e-07
4.26838e-09
1.31647e-07
4.24635e-09
1.3165e-07
4.24047e-09
1.31654e-07
4.2288e-09
1.31658e-07
4.23453e-09
1.31663e-07
4.23421e-09
1.31667e-07
4.25309e-09
1.31673e-07
4.26428e-09
1.31677e-07
4.29345e-09
1.31681e-07
4.30825e-09
1.31683e-07
4.33599e-09
1.31685e-07
4.3429e-09
1.31683e-07
4.36057e-09
1.31681e-07
4.35403e-09
1.31677e-07
4.36152e-09
1.31672e-07
4.34707e-09
1.31664e-07
4.35275e-09
1.31657e-07
4.3381e-09
1.31648e-07
4.34813e-09
1.31639e-07
4.33799e-09
1.31629e-07
4.35839e-09
1.3162e-07
4.36086e-09
1.31608e-07
4.39951e-09
1.31594e-07
4.41615e-09
1.31576e-07
4.46607e-09
1.31554e-07
4.48285e-09
1.31524e-07
4.52784e-09
1.3149e-07
4.53132e-09
1.3145e-07
4.56406e-09
1.31406e-07
4.5524e-09
1.31356e-07
4.57738e-09
1.31305e-07
4.55731e-09
1.3125e-07
4.58474e-09
1.31194e-07
4.57257e-09
1.31133e-07
4.61927e-09
1.31067e-07
4.62042e-09
1.30992e-07
4.68093e-09
1.30908e-07
4.68326e-09
1.30812e-07
4.74358e-09
1.30707e-07
4.73122e-09
1.30591e-07
4.77851e-09
1.30469e-07
4.74767e-09
1.3034e-07
4.79296e-09
1.30208e-07
4.76089e-09
1.30066e-07
4.82071e-09
1.29918e-07
4.79696e-09
1.29755e-07
4.87377e-09
1.2958e-07
4.84744e-09
1.2939e-07
4.92283e-09
1.29189e-07
4.87739e-09
1.28978e-07
4.94708e-09
1.28759e-07
4.88852e-09
1.2853e-07
4.96867e-09
1.28292e-07
4.91172e-09
1.28039e-07
5.01009e-09
1.27771e-07
4.94774e-09
1.2749e-07
5.04984e-09
1.27195e-07
4.97027e-09
1.26892e-07
5.07377e-09
1.26576e-07
4.98747e-09
1.2625e-07
5.10604e-09
1.25906e-07
5.02294e-09
1.25553e-07
5.14936e-09
1.25179e-07
5.07244e-09
1.24801e-07
5.18833e-09
5.15687e-09
1.34556e-07
5.5921e-09
-1.34524e-07
1.3468e-07
6.31904e-09
1.34907e-07
7.0132e-09
1.35219e-07
7.59228e-09
1.35552e-07
7.97864e-09
1.35859e-07
8.12241e-09
1.36121e-07
8.05066e-09
1.36342e-07
7.80816e-09
1.36521e-07
7.4616e-09
1.36648e-07
7.05171e-09
1.36713e-07
6.60937e-09
1.3673e-07
6.1625e-09
1.36728e-07
5.78628e-09
1.36729e-07
5.51704e-09
1.36737e-07
5.35244e-09
1.36747e-07
5.24007e-09
1.36755e-07
5.15106e-09
1.3676e-07
5.06017e-09
1.36766e-07
4.97858e-09
1.36774e-07
4.89851e-09
1.36783e-07
4.83153e-09
1.36794e-07
4.76583e-09
1.36805e-07
4.71405e-09
1.36817e-07