/*--------------------------------*- C++ -*----------------------------------*\
| =========                 |                                                 |
| \\      /  F ield         | OpenFOAM: The Open Source CFD Toolbox           |
|  \\    /   O peration     | Version:  5.x                                   |
|   \\  /    A nd           | Web:      www.OpenFOAM.org                      |
|    \\/     M anipulation  |                                                 |
\*---------------------------------------------------------------------------*/
FoamFile
{
    version     2.0;
    format      ascii;
    class       volVectorField;
    location    "0.7";
    object      U;
}
// * * * * * * * * * * * * * * * * * * * * * * * * * * * * * * * * * * * * * //

dimensions      [0 1 -1 0 0 0 0];

internalField   nonuniform List<vector> 
10800
(
(0.913219 0.0110363 0)
(0.81848 0.0143881 0)
(0.724581 0.0141047 0)
(0.6301 0.0129524 0)
(0.536276 0.011778 0)
(0.446271 0.0101834 0)
(0.365734 0.00789054 0)
(0.301596 0.00474244 0)
(0.257535 0.00172965 0)
(0.229802 -1.89178e-06 0)
(0.211842 -0.000531174 0)
(0.199598 -0.000563248 0)
(0.190848 -0.000449381 0)
(0.184052 -0.000286074 0)
(0.178181 -0.000121722 0)
(0.17269 7.4724e-06 0)
(0.167366 9.16743e-05 0)
(0.162163 0.000136699 0)
(0.157139 0.000153747 0)
(0.152352 0.000154072 0)
(0.147865 0.000146157 0)
(0.143682 0.000135427 0)
(0.139804 0.000124732 0)
(0.136187 0.000115138 0)
(0.13281 0.000106664 0)
(0.12963 9.91549e-05 0)
(0.126638 9.25626e-05 0)
(0.123797 8.67863e-05 0)
(0.121108 8.15387e-05 0)
(0.11854 7.65441e-05 0)
(0.116104 7.17613e-05 0)
(0.113769 6.73285e-05 0)
(0.111549 6.33926e-05 0)
(0.109409 5.98723e-05 0)
(0.107367 5.6685e-05 0)
(0.105388 5.37288e-05 0)
(0.103497 5.10195e-05 0)
(0.101658 4.84536e-05 0)
(0.0999021 4.60065e-05 0)
(0.0981896 4.36048e-05 0)
(0.096556 4.13662e-05 0)
(0.0949566 3.93132e-05 0)
(0.0934294 3.75351e-05 0)
(0.0919254 3.58157e-05 0)
(0.0904906 3.41949e-05 0)
(0.0890721 3.26304e-05 0)
(0.0877222 3.11685e-05 0)
(0.0863825 2.96611e-05 0)
(0.0851127 2.82885e-05 0)
(0.0838458 2.69759e-05 0)
(0.0826481 2.58311e-05 0)
(0.0814443 2.47117e-05 0)
(0.0803106 2.37164e-05 0)
(0.0791639 2.26601e-05 0)
(0.0780909 2.17088e-05 0)
(0.0769974 2.07512e-05 0)
(0.0759799 1.99829e-05 0)
(0.0749319 1.91922e-05 0)
(0.0739634 1.85089e-05 0)
(0.0729566 1.77266e-05 0)
(0.0720366 1.70429e-05 0)
(0.0710697 1.63075e-05 0)
(0.0701961 1.57241e-05 0)
(0.0692646 1.50609e-05 0)
(0.0684342 1.45414e-05 0)
(0.067535 1.39078e-05 0)
(0.066747 1.34e-05 0)
(0.0658776 1.28371e-05 0)
(0.0651288 1.24606e-05 0)
(0.0642831 1.19639e-05 0)
(0.0635712 1.15865e-05 0)
(0.062748 1.10856e-05 0)
(0.0620735 1.07659e-05 0)
(0.061269 1.03319e-05 0)
(0.0606305 1.00233e-05 0)
(0.0598432 9.56072e-06 0)
(0.0592424 9.28868e-06 0)
(0.0584686 8.90651e-06 0)
(0.0579037 8.67317e-06 0)
(0.0571396 8.28784e-06 0)
(0.0566116 8.09404e-06 0)
(0.055853 7.76213e-06 0)
(0.055362 7.573e-06 0)
(0.0546058 7.23736e-06 0)
(0.0541547 7.069e-06 0)
(0.0533967 6.763e-06 0)
(0.0529873 6.60439e-06 0)
(0.0522223 6.33075e-06 0)
(0.051857 6.19655e-06 0)
(0.0510784 5.95787e-06 0)
(0.0507608 5.81743e-06 0)
(0.0499618 5.61644e-06 0)
(0.049697 5.45959e-06 0)
(0.0488694 5.31089e-06 0)
(0.0486632 5.13635e-06 0)
(0.0477956 5.07689e-06 0)
(0.0476545 4.84879e-06 0)
(0.0467323 4.93441e-06 0)
(0.0466653 4.56463e-06 0)
(0.0456671 5.12045e-06 0)
(0.968042 0.0191426 0)
(0.960467 0.0266102 0)
(0.946904 0.0279205 0)
(0.925393 0.0274477 0)
(0.895387 0.0268189 0)
(0.857768 0.0255908 0)
(0.815063 0.0232305 0)
(0.770839 0.0192644 0)
(0.728943 0.0143659 0)
(0.691148 0.00997363 0)
(0.656963 0.006917 0)
(0.625904 0.00497098 0)
(0.597889 0.00372036 0)
(0.572743 0.00294539 0)
(0.550102 0.00248226 0)
(0.529553 0.00219757 0)
(0.510788 0.00200258 0)
(0.49351 0.00184521 0)
(0.477563 0.00169851 0)
(0.462783 0.00155409 0)
(0.449114 0.00141454 0)
(0.436424 0.00128597 0)
(0.424653 0.00117277 0)
(0.413652 0.00107531 0)
(0.403372 0.00099104 0)
(0.393679 0.000917018 0)
(0.384558 0.000851545 0)
(0.375894 0.000793248 0)
(0.367703 0.000740866 0)
(0.359882 0.000692975 0)
(0.352466 0.000649052 0)
(0.345353 0.000608857 0)
(0.338588 0.000572647 0)
(0.332064 0.000539709 0)
(0.325842 0.00050965 0)
(0.319814 0.000481674 0)
(0.314059 0.00045586 0)
(0.308463 0.000431593 0)
(0.303124 0.000408989 0)
(0.297919 0.000387528 0)
(0.292955 0.000367744 0)
(0.288094 0.000349313 0)
(0.283457 0.000332659 0)
(0.278892 0.000316743 0)
(0.274543 0.000301939 0)
(0.270243 0.000287724 0)
(0.266155 0.000274547 0)
(0.262094 0.000261589 0)
(0.258245 0.000249751 0)
(0.254399 0.000238363 0)
(0.250765 0.000228108 0)
(0.247109 0.000218066 0)
(0.24367 0.000208958 0)
(0.240188 0.000199754 0)
(0.236933 0.000191459 0)
(0.233611 0.000183202 0)
(0.230523 0.000176064 0)
(0.227342 0.000168798 0)
(0.224408 0.000162369 0)
(0.221355 0.000155539 0)
(0.218568 0.000149558 0)
(0.215634 0.000143287 0)
(0.212986 0.000138017 0)
(0.210159 0.000132303 0)
(0.207642 0.000127565 0)
(0.204912 0.000122231 0)
(0.202522 0.000117877 0)
(0.199879 0.000113067 0)
(0.197608 0.000109399 0)
(0.19504 0.000104986 0)
(0.192883 0.000101553 0)
(0.190382 9.73411e-05 0)
(0.188338 9.43369e-05 0)
(0.185896 9.04896e-05 0)
(0.183963 8.77138e-05 0)
(0.181571 8.39469e-05 0)
(0.17975 8.15241e-05 0)
(0.177398 7.81436e-05 0)
(0.175687 7.60156e-05 0)
(0.173365 7.27428e-05 0)
(0.171765 7.09303e-05 0)
(0.169461 6.7903e-05 0)
(0.167976 6.62629e-05 0)
(0.165679 6.33053e-05 0)
(0.164314 6.19095e-05 0)
(0.162013 5.91062e-05 0)
(0.160774 5.79156e-05 0)
(0.158451 5.52648e-05 0)
(0.157347 5.43201e-05 0)
(0.154984 5.17992e-05 0)
(0.154026 5.1007e-05 0)
(0.151603 4.86182e-05 0)
(0.150806 4.79594e-05 0)
(0.148298 4.5749e-05 0)
(0.147679 4.52336e-05 0)
(0.145053 4.33149e-05 0)
(0.144634 4.28389e-05 0)
(0.14185 4.14107e-05 0)
(0.141656 4.0681e-05 0)
(0.138663 4.14345e-05 0)
(0.972148 0.0181278 0)
(0.97279 0.0257518 0)
(0.97518 0.0285447 0)
(0.976342 0.0291768 0)
(0.974416 0.0294207 0)
(0.968615 0.0291835 0)
(0.958891 0.027786 0)
(0.945637 0.0246839 0)
(0.929832 0.0203706 0)
(0.912531 0.0161215 0)
(0.894275 0.0129349 0)
(0.875431 0.0108285 0)
(0.85649 0.00939885 0)
(0.837751 0.00836966 0)
(0.819352 0.00758017 0)
(0.801249 0.00693364 0)
(0.783485 0.00637418 0)
(0.766 0.00586848 0)
(0.748879 0.00539536 0)
(0.732107 0.00494508 0)
(0.715819 0.00451957 0)
(0.7 0.00412688 0)
(0.684767 0.0037745 0)
(0.670053 0.00346369 0)
(0.655948 0.00319065 0)
(0.642345 0.0029494 0)
(0.629327 0.00273566 0)
(0.616764 0.0025447 0)
(0.604744 0.00237293 0)
(0.593125 0.00221661 0)
(0.582009 0.00207459 0)
(0.571236 0.00194531 0)
(0.56092 0.00182867 0)
(0.550888 0.00172233 0)
(0.541272 0.00162543 0)
(0.531885 0.00153545 0)
(0.522884 0.00145229 0)
(0.514074 0.00137399 0)
(0.505639 0.00130118 0)
(0.497364 0.00123248 0)
(0.489457 0.00116937 0)
(0.481674 0.00111047 0)
(0.474245 0.00105681 0)
(0.466901 0.00100576 0)
(0.459904 0.000958518 0)
(0.452956 0.000913288 0)
(0.446353 0.000871469 0)
(0.439762 0.000830839 0)
(0.433518 0.000793687 0)
(0.427248 0.000757889 0)
(0.421326 0.000725373 0)
(0.415341 0.000693487 0)
(0.409716 0.000664377 0)
(0.403995 0.000635278 0)
(0.398654 0.000609027 0)
(0.393179 0.000582983 0)
(0.388101 0.000560042 0)
(0.382846 0.000536769 0)
(0.378014 0.000516061 0)
(0.372962 0.000494487 0)
(0.368364 0.000475579 0)
(0.363497 0.000455884 0)
(0.359119 0.00043907 0)
(0.354419 0.000421068 0)
(0.35025 0.0004059 0)
(0.345702 0.000389172 0)
(0.341736 0.000375419 0)
(0.337324 0.000360251 0)
(0.333551 0.000348293 0)
(0.32926 0.000334249 0)
(0.325675 0.000323251 0)
(0.321491 0.000310039 0)
(0.31809 0.00030033 0)
(0.313998 0.000288093 0)
(0.310779 0.000279225 0)
(0.306767 0.000267498 0)
(0.303731 0.00025975 0)
(0.299781 0.000248978 0)
(0.296927 0.000242143 0)
(0.293024 0.000231818 0)
(0.290355 0.000225955 0)
(0.28648 0.000216231 0)
(0.284001 0.000211037 0)
(0.280136 0.000201607 0)
(0.277858 0.000197238 0)
(0.273981 0.0001882 0)
(0.271914 0.000184583 0)
(0.268 0.000175905 0)
(0.266158 0.000173105 0)
(0.262177 0.000164685 0)
(0.260579 0.000162554 0)
(0.256499 0.000154369 0)
(0.25517 0.000152903 0)
(0.250948 0.000145021 0)
(0.249919 0.000144268 0)
(0.245504 0.00013687 0)
(0.244809 0.000136672 0)
(0.240138 0.000130169 0)
(0.239816 0.000129868 0)
(0.234824 0.000128355 0)
(0.976605 0.0170418 0)
(0.976872 0.0236893 0)
(0.980017 0.0271255 0)
(0.984283 0.0282594 0)
(0.988137 0.0286491 0)
(0.990871 0.0285818 0)
(0.992194 0.0275682 0)
(0.991743 0.0251394 0)
(0.989317 0.0215897 0)
(0.984888 0.0178768 0)
(0.978784 0.0149512 0)
(0.971393 0.013028 0)
(0.963281 0.0117971 0)
(0.9547 0.0109282 0)
(0.945858 0.0102418 0)
(0.936665 0.0096555 0)
(0.927185 0.00913138 0)
(0.917281 0.00864477 0)
(0.907055 0.00817569 0)
(0.896412 0.00771133 0)
(0.885525 0.00725184 0)
(0.874328 0.00680562 0)
(0.863025 0.00638388 0)
(0.851535 0.0059912 0)
(0.840066 0.00562767 0)
(0.828509 0.00529001 0)
(0.817076 0.00497776 0)
(0.805626 0.00468811 0)
(0.794374 0.0044196 0)
(0.783147 0.00416852 0)
(0.772167 0.00393542 0)
(0.761225 0.00371885 0)
(0.750555 0.00352001 0)
(0.739917 0.00333561 0)
(0.729565 0.00316556 0)
(0.71923 0.00300587 0)
(0.709192 0.00285682 0)
(0.69916 0.00271459 0)
(0.689452 0.00258064 0)
(0.679745 0.00245239 0)
(0.670394 0.00233309 0)
(0.661036 0.00222032 0)
(0.652061 0.00211654 0)
(0.643065 0.00201734 0)
(0.634476 0.00192545 0)
(0.62584 0.00183732 0)
(0.617629 0.00175594 0)
(0.609335 0.00167701 0)
(0.60148 0.00160483 0)
(0.593498 0.00153507 0)
(0.585968 0.00147153 0)
(0.578263 0.00140892 0)
(0.571034 0.00135151 0)
(0.563589 0.00129395 0)
(0.556657 0.00124182 0)
(0.549464 0.00118989 0)
(0.542821 0.00114381 0)
(0.535866 0.00109699 0)
(0.529507 0.00105528 0)
(0.52278 0.00101203 0)
(0.516697 0.000974182 0)
(0.510179 0.000934739 0)
(0.504357 0.000900907 0)
(0.498026 0.000864733 0)
(0.492453 0.00083409 0)
(0.486293 0.000800394 0)
(0.480967 0.000772613 0)
(0.474964 0.000741866 0)
(0.469877 0.000717361 0)
(0.464015 0.000688766 0)
(0.459168 0.000666371 0)
(0.453431 0.000639581 0)
(0.44882 0.000619716 0)
(0.44319 0.000594743 0)
(0.438814 0.000576669 0)
(0.433275 0.000552873 0)
(0.429136 0.000537007 0)
(0.423667 0.000514897 0)
(0.41977 0.00050088 0)
(0.414352 0.000479742 0)
(0.410702 0.000467667 0)
(0.405311 0.000447611 0)
(0.401917 0.000437015 0)
(0.396529 0.000417582 0)
(0.393404 0.000408689 0)
(0.387992 0.000389953 0)
(0.385153 0.000382676 0)
(0.379682 0.000364548 0)
(0.377151 0.000358982 0)
(0.371582 0.000341245 0)
(0.369386 0.0003372 0)
(0.363674 0.000319773 0)
(0.361847 0.000317282 0)
(0.355938 0.000300226 0)
(0.354522 0.000299396 0)
(0.348349 0.000282954 0)
(0.347391 0.00028356 0)
(0.340875 0.000268471 0)
(0.340422 0.00026925 0)
(0.333487 0.000262291 0)
(0.980683 0.0165669 0)
(0.980727 0.0222322 0)
(0.98332 0.0259801 0)
(0.987441 0.0274696 0)
(0.991838 0.0278311 0)
(0.995803 0.0275949 0)
(0.999211 0.0265877 0)
(1.00177 0.0244972 0)
(1.00326 0.0214664 0)
(1.00332 0.0181845 0)
(1.00208 0.0154688 0)
(0.999745 0.0136457 0)
(0.996907 0.0125171 0)
(0.993736 0.0117609 0)
(0.990511 0.0111775 0)
(0.987058 0.0106807 0)
(0.983481 0.0102395 0)
(0.979521 0.00983416 0)
(0.975304 0.00944651 0)
(0.970594 0.0090605 0)
(0.965587 0.00867294 0)
(0.960073 0.00828852 0)
(0.954304 0.00791782 0)
(0.948067 0.00756399 0)
(0.941644 0.00722779 0)
(0.934804 0.00690561 0)
(0.927853 0.00659903 0)
(0.920539 0.00630568 0)
(0.913194 0.00602657 0)
(0.905528 0.00575832 0)
(0.897893 0.00550406 0)
(0.88996 0.00526259 0)
(0.882106 0.00503746 0)
(0.873961 0.00482475 0)
(0.86593 0.00462636 0)
(0.8576 0.00443708 0)
(0.849412 0.00425858 0)
(0.840915 0.00408495 0)
(0.832597 0.00391896 0)
(0.823968 0.00375595 0)
(0.815569 0.00360116 0)
(0.806867 0.00345061 0)
(0.798459 0.00330906 0)
(0.789762 0.00317023 0)
(0.781432 0.00303979 0)
(0.77282 0.0029125 0)
(0.764639 0.00279423 0)
(0.756161 0.00267847 0)
(0.748162 0.00257255 0)
(0.739828 0.00246945 0)
(0.732008 0.00237573 0)
(0.723801 0.00228267 0)
(0.716147 0.00219728 0)
(0.708055 0.0021106 0)
(0.700569 0.00203167 0)
(0.692596 0.00195183 0)
(0.685294 0.00188048 0)
(0.677456 0.00180704 0)
(0.670366 0.00174153 0)
(0.662682 0.00167312 0)
(0.655825 0.00161348 0)
(0.648296 0.00155093 0)
(0.641671 0.00149744 0)
(0.634282 0.00143989 0)
(0.62788 0.00139127 0)
(0.620615 0.0013373 0)
(0.614436 0.00129288 0)
(0.607284 0.00124311 0)
(0.601334 0.00120338 0)
(0.594289 0.00115668 0)
(0.588581 0.0011203 0)
(0.581638 0.0010765 0)
(0.576176 0.00104413 0)
(0.569317 0.00100309 0)
(0.564107 0.000973632 0)
(0.557315 0.000934507 0)
(0.552361 0.000908502 0)
(0.545615 0.000871771 0)
(0.540929 0.000848694 0)
(0.534212 0.000813524 0)
(0.529807 0.000793574 0)
(0.523094 0.000760009 0)
(0.518985 0.000742579 0)
(0.51225 0.000710003 0)
(0.508456 0.000695366 0)
(0.501664 0.000663783 0)
(0.49821 0.000651858 0)
(0.491326 0.000621122 0)
(0.488239 0.000612055 0)
(0.481217 0.00058182 0)
(0.478534 0.000575402 0)
(0.471321 0.0005455 0)
(0.469085 0.000541802 0)
(0.461618 0.00051228 0)
(0.459881 0.000511475 0)
(0.452083 0.000482663 0)
(0.450902 0.000484411 0)
(0.442684 0.000457512 0)
(0.442115 0.000459776 0)
(0.433394 0.000444204 0)
(0.984184 0.0163818 0)
(0.98418 0.0212161 0)
(0.986345 0.024995 0)
(0.990029 0.0267565 0)
(0.994263 0.0271412 0)
(0.998204 0.0267529 0)
(1.00176 0.0256911 0)
(1.00463 0.023814 0)
(1.00682 0.0211671 0)
(1.00792 0.0182229 0)
(1.00807 0.0156586 0)
(1.00729 0.0138583 0)
(1.0062 0.0127365 0)
(1.00489 0.0120095 0)
(1.00376 0.0114665 0)
(1.00257 0.0110079 0)
(1.00152 0.0106027 0)
(1.00025 0.0102352 0)
(0.998995 0.00989176 0)
(0.997369 0.00955622 0)
(0.995676 0.0092239 0)
(0.993552 0.00889522 0)
(0.991356 0.00857941 0)
(0.988709 0.00827688 0)
(0.986012 0.0079885 0)
(0.982859 0.00770872 0)
(0.979689 0.00744009 0)
(0.976066 0.00717874 0)
(0.972471 0.00692746 0)
(0.968427 0.00668194 0)
(0.964451 0.00644761 0)
(0.960019 0.0062222 0)
(0.95569 0.00601156 0)
(0.950891 0.0058105 0)
(0.946225 0.00562342 0)
(0.941061 0.00544352 0)
(0.936047 0.0052746 0)
(0.930497 0.00510834 0)
(0.925117 0.00494943 0)
(0.919164 0.0047903 0)
(0.913412 0.00463805 0)
(0.907061 0.00448555 0)
(0.900967 0.00433975 0)
(0.894271 0.00419115 0)
(0.887918 0.00404865 0)
(0.880973 0.00390463 0)
(0.874466 0.00376894 0)
(0.867368 0.00363268 0)
(0.860791 0.00350759 0)
(0.853599 0.00338378 0)
(0.846991 0.003272 0)
(0.839714 0.00315971 0)
(0.833075 0.00305774 0)
(0.825699 0.00295251 0)
(0.81902 0.00285713 0)
(0.811535 0.00275811 0)
(0.804827 0.00266935 0)
(0.797257 0.00257513 0)
(0.790569 0.0024908 0)
(0.782965 0.00240044 0)
(0.776363 0.00232188 0)
(0.76877 0.00223801 0)
(0.76229 0.00216699 0)
(0.75472 0.00208949 0)
(0.748371 0.00202499 0)
(0.740807 0.00195196 0)
(0.734587 0.00189257 0)
(0.727017 0.00182427 0)
(0.720934 0.00177016 0)
(0.713362 0.00170492 0)
(0.707449 0.00165465 0)
(0.699891 0.00159281 0)
(0.694179 0.0015478 0)
(0.686632 0.00148951 0)
(0.681136 0.00144852 0)
(0.673587 0.00139278 0)
(0.668315 0.00135642 0)
(0.660741 0.00130349 0)
(0.655712 0.00127091 0)
(0.648103 0.00121985 0)
(0.643343 0.00119151 0)
(0.635682 0.00114243 0)
(0.631218 0.00111772 0)
(0.623479 0.00106992 0)
(0.619336 0.00104916 0)
(0.611486 0.00100251 0)
(0.607696 0.000985598 0)
(0.599698 0.0009399 0)
(0.596298 0.000927086 0)
(0.588108 0.000881909 0)
(0.585143 0.000873013 0)
(0.576705 0.000828104 0)
(0.574226 0.000823229 0)
(0.565474 0.00077862 0)
(0.563542 0.000777995 0)
(0.554396 0.00073416 0)
(0.553076 0.0007373 0)
(0.543444 0.000696007 0)
(0.542796 0.000700074 0)
(0.532592 0.000673111 0)
(0.987054 0.0162938 0)
(0.987053 0.0204566 0)
(0.988914 0.024027 0)
(0.99216 0.0259357 0)
(0.996147 0.0263957 0)
(0.999917 0.0259415 0)
(1.00339 0.0248506 0)
(1.00616 0.0231322 0)
(1.00839 0.0208068 0)
(1.00964 0.0181698 0)
(1.01018 0.0157603 0)
(1.00982 0.0139752 0)
(1.00925 0.012831 0)
(1.00841 0.0120989 0)
(1.00788 0.0115673 0)
(1.0073 0.0111203 0)
(1.00705 0.0107226 0)
(1.00662 0.0103604 0)
(1.00641 0.0100272 0)
(1.00588 0.00970828 0)
(1.00551 0.00940001 0)
(1.00475 0.00909868 0)
(1.00415 0.00881272 0)
(1.00313 0.00853959 0)
(1.00229 0.00828112 0)
(1.001 0.00802934 0)
(0.99991 0.00778829 0)
(0.998352 0.00755198 0)
(0.997025 0.00732526 0)
(0.995205 0.00710202 0)
(0.993644 0.00688999 0)
(0.99156 0.0066847 0)
(0.989763 0.00649446 0)
(0.987412 0.00631206 0)
(0.985377 0.00614489 0)
(0.982741 0.00598399 0)
(0.980439 0.0058362 0)
(0.977478 0.0056905 0)
(0.974862 0.00555448 0)
(0.971516 0.00541726 0)
(0.968528 0.00528833 0)
(0.964743 0.00515643 0)
(0.961348 0.0050308 0)
(0.957109 0.00489729 0)
(0.953325 0.00476777 0)
(0.948677 0.00463062 0)
(0.944579 0.00449984 0)
(0.939605 0.00436308 0)
(0.93528 0.00423729 0)
(0.930052 0.00410911 0)
(0.92556 0.00399475 0)
(0.920106 0.00387758 0)
(0.915458 0.0037737 0)
(0.909764 0.00366453 0)
(0.904937 0.00356825 0)
(0.898963 0.00346537 0)
(0.893929 0.00337479 0)
(0.887657 0.00327396 0)
(0.882437 0.0031841 0)
(0.875909 0.00308279 0)
(0.870579 0.00299508 0)
(0.863871 0.00289752 0)
(0.858511 0.00281609 0)
(0.851673 0.00272456 0)
(0.846325 0.00265063 0)
(0.839359 0.00256445 0)
(0.834019 0.00249666 0)
(0.826896 0.00241553 0)
(0.821556 0.00235295 0)
(0.814268 0.00227361 0)
(0.808961 0.00221377 0)
(0.801536 0.0021366 0)
(0.796322 0.00208192 0)
(0.788791 0.00200821 0)
(0.783713 0.00195827 0)
(0.776074 0.00188755 0)
(0.771145 0.00184337 0)
(0.763373 0.00177556 0)
(0.758607 0.00173552 0)
(0.75069 0.00166918 0)
(0.746124 0.00163387 0)
(0.73806 0.00156928 0)
(0.733742 0.0015384 0)
(0.725519 0.00147519 0)
(0.721481 0.00144934 0)
(0.713066 0.00138722 0)
(0.709343 0.00136618 0)
(0.7007 0.00130477 0)
(0.697338 0.00128885 0)
(0.688432 0.00122773 0)
(0.685487 0.00121692 0)
(0.676268 0.00115588 0)
(0.673795 0.00115034 0)
(0.6642 0.00108939 0)
(0.662263 0.00108934 0)
(0.652218 0.00102913 0)
(0.650887 0.00103396 0)
(0.640306 0.000976934 0)
(0.639647 0.000983095 0)
(0.628445 0.000943003 0)
(0.989292 0.0162224 0)
(0.989297 0.0198365 0)
(0.990937 0.0230838 0)
(0.993772 0.0250186 0)
(0.997489 0.0255661 0)
(1.00105 0.0251267 0)
(1.00444 0.0240438 0)
(1.00708 0.0224476 0)
(1.00929 0.0203895 0)
(1.01053 0.0180428 0)
(1.01125 0.0158103 0)
(1.01105 0.0140626 0)
(1.01071 0.0128966 0)
(1.00999 0.0121479 0)
(1.00964 0.0116163 0)
(1.00916 0.0111715 0)
(1.00915 0.0107721 0)
(1.00889 0.0104039 0)
(1.009 0.010067 0)
(1.00875 0.00974876 0)
(1.00882 0.0094482 0)
(1.00846 0.00915751 0)
(1.00844 0.00888491 0)
(1.00796 0.00862447 0)
(1.00785 0.00837984 0)
(1.00725 0.00814032 0)
(1.00706 0.00791223 0)
(1.00634 0.00768726 0)
(1.00606 0.00747303 0)
(1.00522 0.00726091 0)
(1.00486 0.00706138 0)
(1.00389 0.00686699 0)
(1.00344 0.00668899 0)
(1.00233 0.00651731 0)
(1.00178 0.0063629 0)
(1.00053 0.00621399 0)
(0.999857 0.00608123 0)
(0.998422 0.00595059 0)
(0.997595 0.00583355 0)
(0.99592 0.00571566 0)
(0.99487 0.00560987 0)
(0.992881 0.00550033 0)
(0.991543 0.00539948 0)
(0.989185 0.00528779 0)
(0.987528 0.00518033 0)
(0.984791 0.0050601 0)
(0.98284 0.00494537 0)
(0.97977 0.004819 0)
(0.977586 0.00470339 0)
(0.974238 0.00458075 0)
(0.971876 0.00447343 0)
(0.968281 0.00436007 0)
(0.965759 0.0042632 0)
(0.961907 0.00415894 0)
(0.959199 0.00407189 0)
(0.955037 0.00397616 0)
(0.952084 0.00389655 0)
(0.947545 0.00380255 0)
(0.944312 0.00372138 0)
(0.939383 0.00362247 0)
(0.935909 0.00353826 0)
(0.930652 0.00343772 0)
(0.927025 0.00335558 0)
(0.921516 0.00325798 0)
(0.917808 0.00318239 0)
(0.912074 0.00309028 0)
(0.908297 0.00302223 0)
(0.902304 0.0029364 0)
(0.898424 0.00287438 0)
(0.892126 0.00278931 0)
(0.888142 0.00272821 0)
(0.881546 0.00264241 0)
(0.877517 0.00258419 0)
(0.870678 0.00249973 0)
(0.866682 0.00244563 0)
(0.859629 0.00236398 0)
(0.855696 0.00231674 0)
(0.848402 0.00223836 0)
(0.844532 0.00219563 0)
(0.836967 0.00211776 0)
(0.833185 0.00207928 0)
(0.825352 0.0020018 0)
(0.821723 0.00196758 0)
(0.813635 0.00189097 0)
(0.810211 0.00186264 0)
(0.801843 0.00178697 0)
(0.798652 0.00176421 0)
(0.789966 0.00168866 0)
(0.787052 0.00167146 0)
(0.778021 0.00159547 0)
(0.77545 0.00158413 0)
(0.766043 0.00150784 0)
(0.763875 0.00150279 0)
(0.754034 0.00142628 0)
(0.752327 0.00142759 0)
(0.74199 0.00135164 0)
(0.740813 0.00135854 0)
(0.729913 0.00128638 0)
(0.729329 0.0012948 0)
(0.717797 0.00124175 0)
(0.990988 0.01613 0)
(0.990981 0.0192904 0)
(0.992454 0.0221888 0)
(0.994907 0.0240601 0)
(0.998349 0.0246789 0)
(1.00167 0.024311 0)
(1.00498 0.0232802 0)
(1.0075 0.0217926 0)
(1.00969 0.0199545 0)
(1.0109 0.0178729 0)
(1.01175 0.0158269 0)
(1.01165 0.0141359 0)
(1.0115 0.0129522 0)
(1.01082 0.0121785 0)
(1.01059 0.0116391 0)
(1.0101 0.0111936 0)
(1.01018 0.010793 0)
(1.00992 0.0104193 0)
(1.01016 0.0100777 0)
(1.00994 0.00975613 0)
(1.01018 0.00945777 0)
(1.0099 0.0091712 0)
(1.01011 0.00890532 0)
(1.00976 0.00865008 0)
(1.00995 0.00841178 0)
(1.00953 0.00817648 0)
(1.00971 0.00795354 0)
(1.00924 0.00773179 0)
(1.0094 0.00752241 0)
(1.00888 0.00731354 0)
(1.00904 0.00711908 0)
(1.00846 0.006928 0)
(1.0086 0.00675503 0)
(1.00795 0.00658646 0)
(1.00809 0.00643727 0)
(1.00737 0.00629213 0)
(1.00749 0.0061661 0)
(1.0067 0.00604155 0)
(1.00678 0.00593461 0)
(1.00587 0.00582687 0)
(1.00587 0.00573576 0)
(1.00479 0.00564062 0)
(1.00465 0.00555818 0)
(1.00333 0.00546326 0)
(1.00301 0.00537484 0)
(1.00142 0.00526985 0)
(1.00092 0.00517114 0)
(0.999078 0.00505586 0)
(0.998419 0.00495205 0)
(0.99636 0.00483654 0)
(0.995589 0.00473816 0)
(0.993336 0.00463006 0)
(0.99247 0.00454171 0)
(0.990021 0.00444344 0)
(0.989047 0.00436727 0)
(0.986355 0.00428086 0)
(0.985215 0.00421613 0)
(0.982198 0.00413439 0)
(0.980816 0.00406929 0)
(0.977411 0.003981 0)
(0.975774 0.00390918 0)
(0.972 0.00381405 0)
(0.970172 0.00373912 0)
(0.966095 0.00364213 0)
(0.964154 0.0035708 0)
(0.959821 0.00347791 0)
(0.9578 0.003415 0)
(0.953193 0.00333038 0)
(0.951051 0.00327606 0)
(0.946092 0.00319323 0)
(0.94378 0.00313949 0)
(0.938429 0.00305334 0)
(0.93597 0.00299917 0)
(0.930268 0.00291036 0)
(0.92775 0.0028576 0)
(0.921756 0.00276987 0)
(0.919238 0.00272445 0)
(0.912946 0.00264077 0)
(0.910418 0.00260111 0)
(0.903768 0.00251769 0)
(0.90122 0.00248163 0)
(0.894195 0.00239632 0)
(0.891684 0.0023629 0)
(0.884316 0.00227673 0)
(0.881917 0.00224925 0)
(0.874207 0.00216388 0)
(0.871947 0.00214284 0)
(0.863847 0.00205714 0)
(0.861745 0.00204161 0)
(0.853229 0.00195411 0)
(0.851351 0.00194426 0)
(0.84241 0.00185571 0)
(0.840822 0.00185273 0)
(0.831417 0.0017638 0)
(0.83016 0.00176761 0)
(0.820238 0.00167896 0)
(0.819368 0.00168829 0)
(0.808888 0.00160396 0)
(0.808462 0.00161454 0)
(0.797379 0.00155113 0)
(0.992288 0.0160164 0)
(0.992243 0.0187992 0)
(0.993582 0.0213598 0)
(0.995684 0.0231093 0)
(0.998856 0.0237728 0)
(1.00191 0.0235024 0)
(1.00513 0.0225639 0)
(1.00752 0.0211856 0)
(1.00971 0.0195247 0)
(1.01087 0.0176696 0)
(1.01183 0.0158043 0)
(1.01181 0.0141864 0)
(1.01184 0.0129971 0)
(1.0112 0.0121991 0)
(1.01107 0.01165 0)
(1.01055 0.0112042 0)
(1.01071 0.0108055 0)
(1.01042 0.0104288 0)
(1.01074 0.0100836 0)
(1.01049 0.00975706 0)
(1.01084 0.00945765 0)
(1.01055 0.00917129 0)
(1.01089 0.0089089 0)
(1.01055 0.00865556 0)
(1.0109 0.00842063 0)
(1.01051 0.00818654 0)
(1.01087 0.00796603 0)
(1.01045 0.00774438 0)
(1.01082 0.00753696 0)
(1.01037 0.00732818 0)
(1.01076 0.00713586 0)
(1.01026 0.00694488 0)
(1.01066 0.00677395 0)
(1.01012 0.00660504 0)
(1.01055 0.00645756 0)
(1.00998 0.006312 0)
(1.01043 0.00618814 0)
(1.00981 0.00606412 0)
(1.01029 0.00596117 0)
(1.00962 0.00585647 0)
(1.0101 0.00577259 0)
(1.00934 0.00568389 0)
(1.00978 0.00561213 0)
(1.00889 0.00552646 0)
(1.00926 0.00545055 0)
(1.0082 0.00535499 0)
(1.0085 0.00526771 0)
(1.00727 0.00515966 0)
(1.0075 0.00506473 0)
(1.00613 0.00495381 0)
(1.00632 0.00486226 0)
(1.00481 0.0047572 0)
(1.00498 0.00467503 0)
(1.00334 0.00457991 0)
(1.00349 0.00451148 0)
(1.0017 0.00443102 0)
(1.00178 0.0043783 0)
(0.999774 0.00430698 0)
(0.99972 0.00425756 0)
(0.997409 0.004181 0)
(0.997173 0.00412384 0)
(0.994542 0.00403716 0)
(0.994152 0.0039728 0)
(0.991243 0.00387973 0)
(0.990761 0.00381529 0)
(0.987619 0.00372364 0)
(0.987092 0.00366727 0)
(0.983722 0.00358557 0)
(0.983124 0.00354125 0)
(0.979448 0.00346446 0)
(0.978702 0.00342284 0)
(0.974641 0.00334235 0)
(0.973721 0.00329811 0)
(0.969276 0.00321082 0)
(0.968248 0.00316393 0)
(0.963485 0.00307429 0)
(0.962427 0.00303374 0)
(0.957369 0.0029487 0)
(0.956282 0.00291599 0)
(0.950862 0.00283261 0)
(0.949695 0.00280413 0)
(0.943854 0.00271715 0)
(0.942626 0.00268888 0)
(0.936392 0.002598 0)
(0.935188 0.00257421 0)
(0.928596 0.00248353 0)
(0.927453 0.00246718 0)
(0.92046 0.00237664 0)
(0.919363 0.00236601 0)
(0.911919 0.00227228 0)
(0.910907 0.00226603 0)
(0.903024 0.00216983 0)
(0.90217 0.00217019 0)
(0.89384 0.0020738 0)
(0.893166 0.00208116 0)
(0.884337 0.00198511 0)
(0.883868 0.00199707 0)
(0.87452 0.00190563 0)
(0.874302 0.00191784 0)
(0.86443 0.00184889 0)
(0.993336 0.0158853 0)
(0.993227 0.0183404 0)
(0.994448 0.0205833 0)
(0.996234 0.0221799 0)
(0.999151 0.0228622 0)
(1.00193 0.0226919 0)
(1.00504 0.0218707 0)
(1.0073 0.0206052 0)
(1.0095 0.0190881 0)
(1.0106 0.0174213 0)
(1.01165 0.0157297 0)
(1.01168 0.0142047 0)
(1.01187 0.0130315 0)
(1.01128 0.0122175 0)
(1.01125 0.0116594 0)
(1.01071 0.0112132 0)
(1.01093 0.0108177 0)
(1.0106 0.0104394 0)
(1.011 0.0100914 0)
(1.01072 0.00975905 0)
(1.01115 0.0094563 0)
(1.01083 0.00916717 0)
(1.01127 0.00890602 0)
(1.01091 0.00865285 0)
(1.01136 0.00842002 0)
(1.01097 0.00818604 0)
(1.01144 0.00796731 0)
(1.01101 0.00774498 0)
(1.01151 0.00753892 0)
(1.01104 0.00732967 0)
(1.01156 0.0071391 0)
(1.01106 0.00694763 0)
(1.01159 0.00677822 0)
(1.01105 0.00660825 0)
(1.01161 0.00646168 0)
(1.01104 0.00631451 0)
(1.01164 0.00619135 0)
(1.01103 0.00606571 0)
(1.01167 0.00596403 0)
(1.01103 0.00585881 0)
(1.01171 0.00577794 0)
(1.01101 0.0056907 0)
(1.0117 0.00562423 0)
(1.01093 0.00554222 0)
(1.01163 0.00547339 0)
(1.01076 0.00538224 0)
(1.01144 0.00530193 0)
(1.01046 0.00519732 0)
(1.01114 0.00510802 0)
(1.01006 0.00499894 0)
(1.01074 0.00491169 0)
(1.00958 0.00480735 0)
(1.01028 0.00472881 0)
(1.00903 0.00463402 0)
(1.00975 0.00456968 0)
(1.00841 0.00449105 0)
(1.00915 0.00444549 0)
(1.00768 0.00437998 0)
(1.00839 0.00434188 0)
(1.00671 0.0042739 0)
(1.00733 0.00422891 0)
(1.00542 0.00414954 0)
(1.00595 0.00409496 0)
(1.00383 0.00400602 0)
(1.00431 0.00394827 0)
(1.00201 0.00385785 0)
(1.00249 0.00380669 0)
(1.00002 0.00372683 0)
(1.0005 0.00369077 0)
(0.997815 0.00361966 0)
(0.998206 0.00358997 0)
(0.99522 0.00351705 0)
(0.995476 0.00348465 0)
(0.992151 0.0034024 0)
(0.992299 0.00336352 0)
(0.988683 0.00327479 0)
(0.988797 0.00323977 0)
(0.984936 0.00315522 0)
(0.985038 0.00313002 0)
(0.980881 0.00304981 0)
(0.980904 0.00303122 0)
(0.976365 0.00294763 0)
(0.976277 0.00292749 0)
(0.971354 0.00283668 0)
(0.971221 0.00281806 0)
(0.965974 0.00272586 0)
(0.965853 0.00271515 0)
(0.960261 0.00262455 0)
(0.960114 0.00262083 0)
(0.954103 0.00252678 0)
(0.953921 0.00252569 0)
(0.947498 0.00242717 0)
(0.947346 0.00243106 0)
(0.940544 0.0023327 0)
(0.94044 0.00234383 0)
(0.933211 0.00224676 0)
(0.933137 0.00226125 0)
(0.92546 0.00216891 0)
(0.925443 0.00218166 0)
(0.917355 0.00211306 0)
(0.994226 0.0157481 0)
(0.994035 0.0179013 0)
(0.995146 0.0198446 0)
(0.996657 0.0212723 0)
(0.999336 0.0219436 0)
(1.00185 0.0218562 0)
(1.00483 0.0211571 0)
(1.00696 0.0200092 0)
(1.00914 0.018619 0)
(1.0102 0.0171116 0)
(1.01132 0.0155856 0)
(1.01139 0.014167 0)
(1.01172 0.0130276 0)
(1.01118 0.0122049 0)
(1.01124 0.0116372 0)
(1.01069 0.0111898 0)
(1.01096 0.0107991 0)
(1.01061 0.0104223 0)
(1.01106 0.010075 0)
(1.01076 0.00974013 0)
(1.01124 0.00943578 0)
(1.01091 0.00914425 0)
(1.01141 0.00888455 0)
(1.01104 0.00863224 0)
(1.01156 0.00840227 0)
(1.01116 0.00816921 0)
(1.0117 0.00795323 0)
(1.01126 0.00773139 0)
(1.01182 0.00752768 0)
(1.01135 0.00731903 0)
(1.01194 0.0071312 0)
(1.01142 0.00694014 0)
(1.01202 0.00677296 0)
(1.01147 0.00660271 0)
(1.0121 0.00645764 0)
(1.0115 0.00630944 0)
(1.01217 0.00618726 0)
(1.01154 0.00606014 0)
(1.01224 0.00595927 0)
(1.01159 0.0058527 0)
(1.01233 0.00577317 0)
(1.01164 0.0056853 0)
(1.01243 0.00562123 0)
(1.01169 0.00553987 0)
(1.01251 0.00547477 0)
(1.01171 0.00538513 0)
(1.01254 0.00530893 0)
(1.01168 0.00520567 0)
(1.01253 0.00511992 0)
(1.01159 0.00501132 0)
(1.01247 0.00492687 0)
(1.01146 0.00482228 0)
(1.01237 0.00474594 0)
(1.0113 0.00465028 0)
(1.01226 0.00458785 0)
(1.01113 0.00450865 0)
(1.01213 0.00446646 0)
(1.01092 0.00440294 0)
(1.01194 0.0043714 0)
(1.01062 0.00430814 0)
(1.01162 0.0042712 0)
(1.01015 0.00419652 0)
(1.01112 0.00414896 0)
(1.0095 0.00406302 0)
(1.01047 0.00401035 0)
(1.00871 0.00392061 0)
(1.0097 0.00387261 0)
(1.00785 0.00379301 0)
(1.00887 0.00376193 0)
(1.00688 0.00369435 0)
(1.00789 0.00367328 0)
(1.00569 0.00360681 0)
(1.00663 0.0035845 0)
(1.00418 0.0035081 0)
(1.00504 0.00347681 0)
(1.00237 0.00339037 0)
(1.0032 0.00335983 0)
(1.00035 0.00327622 0)
(1.00119 0.0032565 0)
(0.998149 0.00318007 0)
(0.998943 0.00317028 0)
(0.995612 0.00309267 0)
(0.996294 0.00308112 0)
(0.992647 0.002994 0)
(0.993248 0.00298041 0)
(0.989346 0.00288943 0)
(0.98993 0.00288312 0)
(0.985782 0.00279546 0)
(0.986316 0.00279836 0)
(0.981841 0.0027088 0)
(0.982265 0.00271318 0)
(0.977449 0.00261737 0)
(0.977805 0.00262376 0)
(0.972709 0.00252798 0)
(0.973025 0.00254177 0)
(0.967614 0.00244935 0)
(0.967839 0.00246585 0)
(0.962074 0.0023786 0)
(0.962199 0.00239041 0)
(0.956149 0.00232738 0)
(0.995018 0.0157654 0)
(0.994742 0.0176292 0)
(0.995745 0.0192797 0)
(0.997028 0.0205188 0)
(0.999484 0.0211436 0)
(1.00176 0.0211099 0)
(1.00459 0.0205231 0)
(1.0066 0.019496 0)
(1.00875 0.0182226 0)
(1.00979 0.0168451 0)
(1.01094 0.0154605 0)
(1.01105 0.0141438 0)
(1.01148 0.0130422 0)
(1.01102 0.0122107 0)
(1.01115 0.011627 0)
(1.01062 0.0111718 0)
(1.01091 0.0107818 0)
(1.01055 0.0104044 0)
(1.01103 0.0100568 0)
(1.01072 0.0097191 0)
(1.01123 0.00941244 0)
(1.0109 0.00911694 0)
(1.01143 0.00885656 0)
(1.01106 0.00860405 0)
(1.01161 0.00837624 0)
(1.01121 0.00814382 0)
(1.01178 0.00793034 0)
(1.01135 0.00770943 0)
(1.01194 0.00750818 0)
(1.01148 0.00730046 0)
(1.01208 0.00711546 0)
(1.01158 0.00692533 0)
(1.01219 0.00676052 0)