# vtk DataFile Version 2.0
inlet
ASCII
DATASET POLYDATA
POINTS 182 float
-0.02 0.02 0 -0.02 0.02 0.001 -0.02 0.0207299 0.001 -0.02 0.0207299
0 -0.02 0.021488 0.001 -0.02 0.021488 0 -0.02 0.0222754 0.001
-0.02 0.0222754 0 -0.02 0.0230932 0.001 -0.02 0.0230932 0 -0.02
0.0239425 0.001 -0.02 0.0239425 0 -0.02 0.0248247 0.001 -0.02 0.0248247
0 -0.02 0.0257409 0.001 -0.02 0.0257409 0 -0.02 0.0266925 0.001
-0.02 0.0266925 0 -0.02 0.0276808 0.001 -0.02 0.0276808 0 -0.02
0.0287073 0.001 -0.02 0.0287073 0 -0.02 0.0297734 0.001 -0.02 0.0297734
0 -0.02 0.0308807 0.001 -0.02 0.0308807 0 -0.02 0.0320307 0.001
-0.02 0.0320307 0 -0.02 0.0332251 0.001 -0.02 0.0332251 0 -0.02
0.0344656 0.001 -0.02 0.0344656 0 -0.02 0.0357541 0.001 -0.02 0.0357541
0 -0.02 0.0370923 0.001 -0.02 0.0370923 0 -0.02 0.0384821 0.001
-0.02 0.0384821 0 -0.02 0.0399257 0.001 -0.02 0.0399257 0 -0.02
0.0414249 0.001 -0.02 0.0414249 0 -0.02 0.042982 0.001 -0.02 0.042982
0 -0.02 0.0445993 0.001 -0.02 0.0445993 0 -0.02 0.046279 0.001
-0.02 0.046279 0 -0.02 0.0480236 0.001 -0.02 0.0480236 0 -0.02
0.0498355 0.001 -0.02 0.0498355 0 -0.02 0.0517173 0.001 -0.02 0.0517173
0 -0.02 0.0536719 0.001 -0.02 0.0536719 0 -0.02 0.0557019 0.001
-0.02 0.0557019 0 -0.02 0.0578102 0.001 -0.02 0.0578102 0 -0.02
0.06 0.001 -0.02 0.06 0 -0.02 0 0 -0.02 0
0.001 -0.02 8.46956e-05 0.001 -0.02 8.46956e-05 0 -0.02 0.000172762 0.001
-0.02 0.000172762 0 -0.02 0.000264333 0.001 -0.02 0.000264333 0 -0.02
0.000359549 0.001 -0.02 0.000359549 0 -0.02 0.000458554 0.001 -0.02 0.000458554
0 -0.02 0.0005615 0.001 -0.02 0.0005615 0 -0.02 0.000668542 0.001
-0.02 0.000668542 0 -0.02 0.000779845 0.001 -0.02 0.000779845 0 -0.02
0.000895577 0.001 -0.02 0.000895577 0 -0.02 0.00101591 0.001 -0.02 0.00101591
0 -0.02 0.00114104 0.001 -0.02 0.00114104 0 -0.02 0.00127115 0.001
-0.02 0.00127115 0 -0.02 0.00140644 0.001 -0.02 0.00140644 0 -0.02
0.0015471 0.001 -0.02 0.0015471 0 -0.02 0.00169337 0.001 -0.02 0.00169337
0 -0.02 0.00184546 0.001 -0.02 0.00184546 0 -0.02 0.0020036 0.001
-0.02 0.0020036 0 -0.02 0.00216804 0.001 -0.02 0.00216804 0 -0.02
0.00233902 0.001 -0.02 0.00233902 0 -0.02 0.00251681 0.001 -0.02 0.00251681
0 -0.02 0.00270167 0.001 -0.02 0.00270167 0 -0.02 0.00289388 0.001
-0.02 0.00289388 0 -0.02 0.00309375 0.001 -0.02 0.00309375 0 -0.02
0.00330157 0.001 -0.02 0.00330157 0 -0.02 0.00351767 0.001 -0.02 0.00351767
0 -0.02 0.00374236 0.001 -0.02 0.00374236 0 -0.02 0.00397599 0.001
-0.02 0.00397599 0 -0.02 0.00421893 0.001 -0.02 0.00421893 0 -0.02
0.00447153 0.001 -0.02 0.00447153 0 -0.02 0.00473419 0.001 -0.02 0.00473419
0 -0.02 0.0050073 0.001 -0.02 0.0050073 0 -0.02 0.00529127 0.001
-0.02 0.00529127 0 -0.02 0.00558655 0.001 -0.02 0.00558655 0 -0.02
0.00589359 0.001 -0.02 0.00589359 0 -0.02 0.00621284 0.001 -0.02 0.00621284
0 -0.02 0.00654479 0.001 -0.02 0.00654479 0 -0.02 0.00688996 0.001
-0.02 0.00688996 0 -0.02 0.00724887 0.001 -0.02 0.00724887 0 -0.02
0.00762206 0.001 -0.02 0.00762206 0 -0.02 0.0080101 0.001 -0.02 0.0080101
0 -0.02 0.00841358 0.001 -0.02 0.00841358 0 -0.02 0.00883312 0.001
-0.02 0.00883312 0 -0.02 0.00926936 0.001 -0.02 0.00926936 0 -0.02
0.00972297 0.001 -0.02 0.00972297 0 -0.02 0.0101946 0.001 -0.02 0.0101946
0 -0.02 0.010685 0.001 -0.02 0.010685 0 -0.02 0.011195 0.001
-0.02 0.011195 0 -0.02 0.0117252 0.001 -0.02 0.0117252 0 -0.02
0.0122766 0.001 -0.02 0.0122766 0 -0.02 0.0128499 0.001 -0.02 0.0128499
0 -0.02 0.013446 0.001 -0.02 0.013446 0 -0.02 0.0140658 0.001
-0.02 0.0140658 0 -0.02 0.0147103 0.001 -0.02 0.0147103 0 -0.02
0.0153804 0.001 -0.02 0.0153804 0 -0.02 0.0160772 0.001 -0.02 0.0160772
0 -0.02 0.0168018 0.001 -0.02 0.0168018 0 -0.02 0.0175551 0.001
-0.02 0.0175551 0 -0.02 0.0183385 0.001 -0.02 0.0183385 0 -0.02
0.019153 0.001 -0.02 0.019153 0 
POLYGONS 90 450
4 0 1 2 3 4 3 2 4 5 4
5 4 6 7 4 7 6 8 9 4
9 8 10 11 4 11 10 12 13 4
13 12 14 15 4 15 14 16 17 4
17 16 18 19 4 19 18 20 21 4
21 20 22 23 4 23 22 24 25 4
25 24 26 27 4 27 26 28 29 4
29 28 30 31 4 31 30 32 33 4
33 32 34 35 4 35 34 36 37 4
37 36 38 39 4 39 38 40 41 4
41 40 42 43 4 43 42 44 45 4
45 44 46 47 4 47 46 48 49 4
49 48 50 51 4 51 50 52 53 4
53 52 54 55 4 55 54 56 57 4
57 56 58 59 4 59 58 60 61 4
62 63 64 65 4 65 64 66 67 4
67 66 68 69 4 69 68 70 71 4
71 70 72 73 4 73 72 74 75 4
75 74 76 77 4 77 76 78 79 4
79 78 80 81 4 81 80 82 83 4
83 82 84 85 4 85 84 86 87 4
87 86 88 89 4 89 88 90 91 4
91 90 92 93 4 93 92 94 95 4
95 94 96 97 4 97 96 98 99 4
99 98 100 101 4 101 100 102 103 4
103 102 104 105 4 105 104 106 107 4
107 106 108 109 4 109 108 110 111 4
111 110 112 113 4 113 112 114 115 4
115 114 116 117 4 117 116 118 119 4
119 118 120 121 4 121 120 122 123 4
123 122 124 125 4 125 124 126 127 4
127 126 128 129 4 129 128 130 131 4
131 130 132 133 4 133 132 134 135 4
135 134 136 137 4 137 136 138 139 4
139 138 140 141 4 141 140 142 143 4
143 142 144 145 4 145 144 146 147 4
147 146 148 149 4 149 148 150 151 4
151 150 152 153 4 153 152 154 155 4
155 154 156 157 4 157 156 158 159 4
159 158 160 161 4 161 160 162 163 4
163 162 164 165 4 165 164 166 167 4
167 166 168 169 4 169 168 170 171 4
171 170 172 173 4 173 172 174 175 4
175 174 176 177 4 177 176 178 179 4
179 178 180 181 4 181 180 1 0 
CELL_DATA 90
FIELD attributes 3
patchID 1 90 float
1 1 1 1 1 1 1 1 1 1 1
1 1 1 1 1 1 1 1 1 1
1 1 1 1 1 1 1 1 1 1
1 1 1 1 1 1 1 1 1 1
1 1 1 1 1 1 1 1 1 1
1 1 1 1 1 1 1 1 1 1
1 1 1 1 1 1 1 1 1 1
1 1 1 1 1 1 1 1 1 1
1 1 1 1 1 1 1 1 1 
p 1 90 float
0.00370306 0.00365267 0.00360034 0.00354503 0.00348597 0.00342214 0.0033516 0.00327224 0.00318453 0.00309234 0.00301586
0.00295102 0.00289322 0.00284104 0.00279351 0.00274982 0.00270934 0.00267165 0.0026365 0.00260372 0.00257325
0.00254507 0.00251921 0.00249577 0.00247489 0.00245675 0.00244154 0.00242954 0.0024211 0.00241841 0.00456522
0.00456623 0.00456718 0.0045681 0.00456906 0.00457006 0.00457107 0.00457208 0.00457308 0.00457405 0.00457494
0.00457572 0.00457634 0.00457673 0.00457682 0.00457654 0.00457582 0.00457461 0.00457286 0.00457055 0.00456766
0.00456421 0.0045602 0.00455567 0.00455063 0.00454508 0.00453901 0.00453241 0.00452525 0.00451751 0.00450914
0.00450012 0.00449041 0.00447998 0.00446879 0.00445682 0.00444404 0.00443042 0.00441593 0.00440053 0.00438417
0.00436678 0.0043483 0.00432862 0.00430762 0.00428519 0.00426118 0.00423547 0.00420793 0.00417846 0.00414696
0.00411334 0.00407752 0.00403943 0.00399899 0.00395614 0.00391076 0.00386269 0.00381158 0.00375676 
U 3 90 float
0.5 0 0 0.5 0 0 0.5 0 0 0.5 0
0 0.5 0 0 0.5 0 0 0.5 0 0
0.5 0 0 0.5 0 0 0.5 0 0 0.5
0 0 0.5 0 0 0.5 0 0 0.5 0
0 0.5 0 0 0.5 0 0 0.5 0 0
0.5 0 0 0.5 0 0 0.5 0 0 0.5
0 0 0.5 0 0 0.5 0 0 0.5 0
0 0.5 0 0 0.5 0 0 0.5 0 0
0.5 0 0 0.5 0 0 0.5 0 0 0.5
0 0 0.5 0 0 0.5 0 0 0.5 0
0 0.5 0 0 0.5 0 0 0.5 0 0
0.5 0 0 0.5 0 0 0.5 0 0 0.5
0 0 0.5 0 0 0.5 0 0 0.5 0
0 0.5 0 0 0.5 0 0 0.5 0 0
0.5 0 0 0.5 0 0 0.5 0 0 0.5
0 0 0.5 0 0 0.5 0 0 0.5 0
0 0.5 0 0 0.5 0 0 0.5 0 0
0.5 0 0 0.5 0 0 0.5 0 0 0.5
0 0 0.5 0 0 0.5 0 0 0.5 0
0 0.5 0 0 0.5 0 0 0.5 0 0
0.5 0 0 0.5 0 0 0.5 0 0 0.5
0 0 0.5 0 0 0.5 0 0 0.5 0
0 0.5 0 0 0.5 0 0 0.5 0 0
0.5 0 0 0.5 0 0 0.5 0 0 0.5
0 0 0.5 0 0 0.5 0 0 0.5 0
0 0.5 0 0 0.5 0 0 0.5 0 0
0.5 0 0 0.5 0 0 0.5 0 0 
POINT_DATA  182
FIELD attributes 2
p 1 182 float
0.00372915 0.00372915 0.00367804 0.00367804 0.00362669 0.00362669 0.00357289 0.00357289 0.00351573 0.00351573 0.00345432
0.00345432 0.00338717 0.00338717 0.00331227 0.00331227 0.00322879 0.00322879 0.00313887 0.00313887 0.00305448
0.00305448 0.00298377 0.00298377 0.00292243 0.00292243 0.00286742 0.00286742 0.00281755 0.00281755 0.00277192
0.00277192 0.00272982 0.00272982 0.00269073 0.00269073 0.0026543 0.0026543 0.00262032 0.00262032 0.00258869
0.00258869 0.00255935 0.00255935 0.00253232 0.00253232 0.00250766 0.00250766 0.00248548 0.00248548 0.00246595
0.00246595 0.00244926 0.00244926 0.00243563 0.00243563 0.00242539 0.00242539 0.00241978 0.00241978 0.00241841
0.00241841 0.00456522 0.00456522 0.00456573 0.00456573 0.0045667 0.0045667 0.00456764 0.00456764 0.00456858
0.00456858 0.00456956 0.00456956 0.00457056 0.00457056 0.00457158 0.00457158 0.00457258 0.00457258 0.00457356
0.00457356 0.00457449 0.00457449 0.00457533 0.00457533 0.00457603 0.00457603 0.00457653 0.00457653 0.00457677
0.00457677 0.00457668 0.00457668 0.00457618 0.00457618 0.00457521 0.00457521 0.00457374 0.00457374 0.00457171
0.00457171 0.00456911 0.00456911 0.00456594 0.00456594 0.00456221 0.00456221 0.00455794 0.00455794 0.00455315
0.00455315 0.00454785 0.00454785 0.00454205 0.00454205 0.00453572 0.00453572 0.00452884 0.00452884 0.00452139
0.00452139 0.00451333 0.00451333 0.00450464 0.00450464 0.00449527 0.00449527 0.0044852 0.0044852 0.00447439
0.00447439 0.00446282 0.00446282 0.00445044 0.00445044 0.00443724 0.00443724 0.00442319 0.00442319 0.00440825
0.00440825 0.00439237 0.00439237 0.0043755 0.0043755 0.00435757 0.00435757 0.00433849 0.00433849 0.00431816
0.00431816 0.00429645 0.00429645 0.00427323 0.00427323 0.00424838 0.00424838 0.00422176 0.00422176 0.00419327
0.00419327 0.00416279 0.00416279 0.00413024 0.00413024 0.00409553 0.00409553 0.00405859 0.00405859 0.00401934
0.00401934 0.0039777 0.0039777 0.0039336 0.0039336 0.0038869 0.0038869 0.00383733 0.00383733 0.00378439
0.00378439 
U 3 182 float
0.5 0 0 0.5 0 0 0.5 0 0 0.5 0
0 0.5 0 0 0.5 0 0 0.5 0 0
0.5 0 0 0.5 0 0 0.5 0 0 0.5
0 0 0.5 0 0 0.5 0 0 0.5 0
0 0.5 0 0 0.5 0 0 0.5 0 0
0.5 0 0 0.5 0 0 0.5 0 0 0.5
0 0 0.5 0 0 0.5 0 0 0.5 0
0 0.5 0 0 0.5 0 0 0.5 0 0
0.5 0 0 0.5 0 0 0.5 0 0 0.5
0 0 0.5 0 0 0.5 0 0 0.5 0
0 0.5 0 0 0.5 0 0 0.5 0 0
0.5 0 0 0.5 0 0 0.5 0 0 0.5
0 0 0.5 0 0 0.5 0 0 0.5 0
0 0.5 0 0 0.5 0 0 0.5 0 0
0.5 0 0 0.5 0 0 0.5 0 0 0.5
0 0 0.5 0 0 0.5 0 0 0.5 0
0 0.5 0 0 0.5 0 0 0.5 0 0
0.5 0 0 0.5 0 0 0.5 0 0 0.5
0 0 0.5 0 0 0.5 0 0 0.5 0
0 0.5 0 0 0.5 0 0 0.5 0 0
0.5 0 0 0.5 0 0 0.5 0 0 0.5
0 0 0.5 0 0 0.5 0 0 0.5 0
0 0.5 0 0 0.5 0 0 0.5 0 0
0.5 0 0 0.5 0 0 0.5 0 0 0.5
0 0 0.5 0 0 0.5 0 0 0.5 0
0 0.5 0 0 0.5 0 0 0.5 0 0
0.5 0 0 0.5 0 0 0.5 0 0 0.5
0 0 0.5 0 0 0.5 0 0 0.5 0
0 0.5 0 0 0.5 0 0 0.5 0 0
0.5 0 0 0.5 0 0 0.5 0 0 0.5
0 0 0.5 0 0 0.5 0 0 0.5 0
0 0.5 0 0 0.5 0 0 0.5 0 0
0.5 0 0 0.5 0 0 0.5 0 0 0.5
0 0 0.5 0 0 0.5 0 0 0.5 0
0 0.5 0 0 0.5 0 0 0.5 0 0
0.5 0 0 0.5 0 0 0.5 0 0 0.5
0 0 0.5 0 0 0.5 0 0 0.5 0
0 0.5 0 0 0.5 0 0 0.5 0 0
0.5 0 0 0.5 0 0 0.5 0 0 0.5
0 0 0.5 0 0 0.5 0 0 0.5 0
0 0.5 0 0 0.5 0 0 0.5 0 0
0.5 0 0 0.5 0 0 0.5 0 0 0.5
0 0 0.5 0 0 0.5 0 0 0.5 0
0 0.5 0 0 0.5 0 0 0.5 0 0
0.5 0 0 0.5 0 0 0.5 0 0 0.5
0 0 0.5 0 0 0.5 0 0 0.5 0
0 0.5 0 0 0.5 0 0 0.5 0 0
0.5 0 0 0.5 0 0 0.5 0 0 0.5
0 0 0.5 0 0 0.5 0 0 0.5 0
0 0.5 0 0 0.5 0 0 0.5 0 0
0.5 0 0 0.5 0 0 0.5 0 0 0.5
0 0 0.5 0 0 0.5 0 0 0.5 0
0 0.5 0 0 0.5 0 0 0.5 0 0
0.5 0 0 0.5 0 0 0.5 0 0 0.5
0 0 0.5 0 0 
