# vtk DataFile Version 2.0
inlet
ASCII
DATASET POLYDATA
POINTS 182 float
-0.02 0.02 0 -0.02 0.02 0.001 -0.02 0.0207299 0.001 -0.02 0.0207299
0 -0.02 0.021488 0.001 -0.02 0.021488 0 -0.02 0.0222754 0.001
-0.02 0.0222754 0 -0.02 0.0230932 0.001 -0.02 0.0230932 0 -0.02
0.0239425 0.001 -0.02 0.0239425 0 -0.02 0.0248247 0.001 -0.02 0.0248247
0 -0.02 0.0257409 0.001 -0.02 0.0257409 0 -0.02 0.0266925 0.001
-0.02 0.0266925 0 -0.02 0.0276808 0.001 -0.02 0.0276808 0 -0.02
0.0287073 0.001 -0.02 0.0287073 0 -0.02 0.0297734 0.001 -0.02 0.0297734
0 -0.02 0.0308807 0.001 -0.02 0.0308807 0 -0.02 0.0320307 0.001
-0.02 0.0320307 0 -0.02 0.0332251 0.001 -0.02 0.0332251 0 -0.02
0.0344656 0.001 -0.02 0.0344656 0 -0.02 0.0357541 0.001 -0.02 0.0357541
0 -0.02 0.0370923 0.001 -0.02 0.0370923 0 -0.02 0.0384821 0.001
-0.02 0.0384821 0 -0.02 0.0399257 0.001 -0.02 0.0399257 0 -0.02
0.0414249 0.001 -0.02 0.0414249 0 -0.02 0.042982 0.001 -0.02 0.042982
0 -0.02 0.0445993 0.001 -0.02 0.0445993 0 -0.02 0.046279 0.001
-0.02 0.046279 0 -0.02 0.0480236 0.001 -0.02 0.0480236 0 -0.02
0.0498355 0.001 -0.02 0.0498355 0 -0.02 0.0517173 0.001 -0.02 0.0517173
0 -0.02 0.0536719 0.001 -0.02 0.0536719 0 -0.02 0.0557019 0.001
-0.02 0.0557019 0 -0.02 0.0578102 0.001 -0.02 0.0578102 0 -0.02
0.06 0.001 -0.02 0.06 0 -0.02 0 0 -0.02 0
0.001 -0.02 8.46956e-05 0.001 -0.02 8.46956e-05 0 -0.02 0.000172762 0.001
-0.02 0.000172762 0 -0.02 0.000264333 0.001 -0.02 0.000264333 0 -0.02
0.000359549 0.001 -0.02 0.000359549 0 -0.02 0.000458554 0.001 -0.02 0.000458554
0 -0.02 0.0005615 0.001 -0.02 0.0005615 0 -0.02 0.000668542 0.001
-0.02 0.000668542 0 -0.02 0.000779845 0.001 -0.02 0.000779845 0 -0.02
0.000895577 0.001 -0.02 0.000895577 0 -0.02 0.00101591 0.001 -0.02 0.00101591
0 -0.02 0.00114104 0.001 -0.02 0.00114104 0 -0.02 0.00127115 0.001
-0.02 0.00127115 0 -0.02 0.00140644 0.001 -0.02 0.00140644 0 -0.02
0.0015471 0.001 -0.02 0.0015471 0 -0.02 0.00169337 0.001 -0.02 0.00169337
0 -0.02 0.00184546 0.001 -0.02 0.00184546 0 -0.02 0.0020036 0.001
-0.02 0.0020036 0 -0.02 0.00216804 0.001 -0.02 0.00216804 0 -0.02
0.00233902 0.001 -0.02 0.00233902 0 -0.02 0.00251681 0.001 -0.02 0.00251681
0 -0.02 0.00270167 0.001 -0.02 0.00270167 0 -0.02 0.00289388 0.001
-0.02 0.00289388 0 -0.02 0.00309375 0.001 -0.02 0.00309375 0 -0.02
0.00330157 0.001 -0.02 0.00330157 0 -0.02 0.00351767 0.001 -0.02 0.00351767
0 -0.02 0.00374236 0.001 -0.02 0.00374236 0 -0.02 0.00397599 0.001
-0.02 0.00397599 0 -0.02 0.00421893 0.001 -0.02 0.00421893 0 -0.02
0.00447153 0.001 -0.02 0.00447153 0 -0.02 0.00473419 0.001 -0.02 0.00473419
0 -0.02 0.0050073 0.001 -0.02 0.0050073 0 -0.02 0.00529127 0.001
-0.02 0.00529127 0 -0.02 0.00558655 0.001 -0.02 0.00558655 0 -0.02
0.00589359 0.001 -0.02 0.00589359 0 -0.02 0.00621284 0.001 -0.02 0.00621284
0 -0.02 0.00654479 0.001 -0.02 0.00654479 0 -0.02 0.00688996 0.001
-0.02 0.00688996 0 -0.02 0.00724887 0.001 -0.02 0.00724887 0 -0.02
0.00762206 0.001 -0.02 0.00762206 0 -0.02 0.0080101 0.001 -0.02 0.0080101
0 -0.02 0.00841358 0.001 -0.02 0.00841358 0 -0.02 0.00883312 0.001
-0.02 0.00883312 0 -0.02 0.00926936 0.001 -0.02 0.00926936 0 -0.02
0.00972297 0.001 -0.02 0.00972297 0 -0.02 0.0101946 0.001 -0.02 0.0101946
0 -0.02 0.010685 0.001 -0.02 0.010685 0 -0.02 0.011195 0.001
-0.02 0.011195 0 -0.02 0.0117252 0.001 -0.02 0.0117252 0 -0.02
0.0122766 0.001 -0.02 0.0122766 0 -0.02 0.0128499 0.001 -0.02 0.0128499
0 -0.02 0.013446 0.001 -0.02 0.013446 0 -0.02 0.0140658 0.001
-0.02 0.0140658 0 -0.02 0.0147103 0.001 -0.02 0.0147103 0 -0.02
0.0153804 0.001 -0.02 0.0153804 0 -0.02 0.0160772 0.001 -0.02 0.0160772
0 -0.02 0.0168018 0.001 -0.02 0.0168018 0 -0.02 0.0175551 0.001
-0.02 0.0175551 0 -0.02 0.0183385 0.001 -0.02 0.0183385 0 -0.02
0.019153 0.001 -0.02 0.019153 0 
POLYGONS 90 450
4 0 1 2 3 4 3 2 4 5 4
5 4 6 7 4 7 6 8 9 4
9 8 10 11 4 11 10 12 13 4
13 12 14 15 4 15 14 16 17 4
17 16 18 19 4 19 18 20 21 4
21 20 22 23 4 23 22 24 25 4
25 24 26 27 4 27 26 28 29 4
29 28 30 31 4 31 30 32 33 4
33 32 34 35 4 35 34 36 37 4
37 36 38 39 4 39 38 40 41 4
41 40 42 43 4 43 42 44 45 4
45 44 46 47 4 47 46 48 49 4
49 48 50 51 4 51 50 52 53 4
53 52 54 55 4 55 54 56 57 4
57 56 58 59 4 59 58 60 61 4
62 63 64 65 4 65 64 66 67 4
67 66 68 69 4 69 68 70 71 4
71 70 72 73 4 73 72 74 75 4
75 74 76 77 4 77 76 78 79 4
79 78 80 81 4 81 80 82 83 4
83 82 84 85 4 85 84 86 87 4
87 86 88 89 4 89 88 90 91 4
91 90 92 93 4 93 92 94 95 4
95 94 96 97 4 97 96 98 99 4
99 98 100 101 4 101 100 102 103 4
103 102 104 105 4 105 104 106 107 4
107 106 108 109 4 109 108 110 111 4
111 110 112 113 4 113 112 114 115 4
115 114 116 117 4 117 116 118 119 4
119 118 120 121 4 121 120 122 123 4
123 122 124 125 4 125 124 126 127 4
127 126 128 129 4 129 128 130 131 4
131 130 132 133 4 133 132 134 135 4
135 134 136 137 4 137 136 138 139 4
139 138 140 141 4 141 140 142 143 4
143 142 144 145 4 145 144 146 147 4
147 146 148 149 4 149 148 150 151 4
151 150 152 153 4 153 152 154 155 4
155 154 156 157 4 157 156 158 159 4
159 158 160 161 4 161 160 162 163 4
163 162 164 165 4 165 164 166 167 4
167 166 168 169 4 169 168 170 171 4
171 170 172 173 4 173 172 174 175 4
175 174 176 177 4 177 176 178 179 4
179 178 180 181 4 181 180 1 0 
CELL_DATA 90
FIELD attributes 3
patchID 1 90 float
1 1 1 1 1 1 1 1 1 1 1
1 1 1 1 1 1 1 1 1 1
1 1 1 1 1 1 1 1 1 1
1 1 1 1 1 1 1 1 1 1
1 1 1 1 1 1 1 1 1 1
1 1 1 1 1 1 1 1 1 1
1 1 1 1 1 1 1 1 1 1
1 1 1 1 1 1 1 1 1 1
1 1 1 1 1 1 1 1 1 
p 1 90 float
0.00334141 0.00329325 0.00324429 0.00319469 0.00314461 0.00309422 0.0030437 0.00299324 0.00294305 0.00289335 0.00284437
0.00279636 0.00274953 0.00270409 0.00266024 0.00261813 0.00257788 0.00253962 0.00250343 0.00246942 0.00243768
0.0024083 0.00238141 0.00235712 0.00233559 0.00231699 0.00230153 0.00228947 0.00228112 0.0022768 0.00429237
0.00429337 0.00429431 0.00429521 0.00429615 0.00429711 0.00429809 0.00429906 0.0043 0.0043009 0.00430172
0.00430241 0.00430292 0.0043032 0.00430315 0.00430271 0.00430182 0.00430042 0.00429845 0.00429589 0.00429273
0.00428896 0.00428462 0.0042797 0.00427424 0.00426822 0.00426163 0.00425445 0.00424664 0.00423818 0.00422901
0.00421909 0.00420838 0.00419682 0.00418438 0.004171 0.00415663 0.00414123 0.00412472 0.00410707 0.00408819
0.00406803 0.0040465 0.00402352 0.00399901 0.00397286 0.00394498 0.00391526 0.00388363 0.00384997 0.00381422
0.00377631 0.00373618 0.0036938 0.00364915 0.00360225 0.00355313 0.00350184 0.0034485 0.00339327 
U 3 90 float
0.5 0 0 0.5 0 0 0.5 0 0 0.5 0
0 0.5 0 0 0.5 0 0 0.5 0 0
0.5 0 0 0.5 0 0 0.5 0 0 0.5
0 0 0.5 0 0 0.5 0 0 0.5 0
0 0.5 0 0 0.5 0 0 0.5 0 0
0.5 0 0 0.5 0 0 0.5 0 0 0.5
0 0 0.5 0 0 0.5 0 0 0.5 0
0 0.5 0 0 0.5 0 0 0.5 0 0
0.5 0 0 0.5 0 0 0.5 0 0 0.5
0 0 0.5 0 0 0.5 0 0 0.5 0
0 0.5 0 0 0.5 0 0 0.5 0 0
0.5 0 0 0.5 0 0 0.5 0 0 0.5
0 0 0.5 0 0 0.5 0 0 0.5 0
0 0.5 0 0 0.5 0 0 0.5 0 0
0.5 0 0 0.5 0 0 0.5 0 0 0.5
0 0 0.5 0 0 0.5 0 0 0.5 0
0 0.5 0 0 0.5 0 0 0.5 0 0
0.5 0 0 0.5 0 0 0.5 0 0 0.5
0 0 0.5 0 0 0.5 0 0 0.5 0
0 0.5 0 0 0.5 0 0 0.5 0 0
0.5 0 0 0.5 0 0 0.5 0 0 0.5
0 0 0.5 0 0 0.5 0 0 0.5 0
0 0.5 0 0 0.5 0 0 0.5 0 0
0.5 0 0 0.5 0 0 0.5 0 0 0.5
0 0 0.5 0 0 0.5 0 0 0.5 0
0 0.5 0 0 0.5 0 0 0.5 0 0
0.5 0 0 0.5 0 0 0.5 0 0 
POINT_DATA  182
FIELD attributes 2
p 1 182 float
0.00336661 0.00336661 0.00331749 0.00331749 0.00326894 0.00326894 0.00321967 0.00321967 0.00316984 0.00316984 0.00311962
0.00311962 0.00306917 0.00306917 0.00301869 0.00301869 0.00296838 0.00296838 0.00291844 0.00291844 0.0028691
0.0028691 0.00282061 0.00282061 0.00277319 0.00277319 0.00272706 0.00272706 0.00268241 0.00268241 0.00263943
0.00263943 0.00259825 0.00259825 0.00255899 0.00255899 0.00252175 0.00252175 0.00248665 0.00248665 0.00245376
0.00245376 0.00242319 0.00242319 0.00239504 0.00239504 0.00236944 0.00236944 0.00234651 0.00234651 0.00232643
0.00232643 0.00230937 0.00230937 0.00229559 0.00229559 0.00228536 0.00228536 0.002279 0.002279 0.0022768
0.0022768 0.00429237 0.00429237 0.00429287 0.00429287 0.00429384 0.00429384 0.00429476 0.00429476 0.00429568
0.00429568 0.00429663 0.00429663 0.0042976 0.0042976 0.00429857 0.00429857 0.00429953 0.00429953 0.00430045
0.00430045 0.00430131 0.00430131 0.00430206 0.00430206 0.00430267 0.00430267 0.00430306 0.00430306 0.00430317
0.00430317 0.00430293 0.00430293 0.00430227 0.00430227 0.00430112 0.00430112 0.00429944 0.00429944 0.00429717
0.00429717 0.00429431 0.00429431 0.00429085 0.00429085 0.00428679 0.00428679 0.00428216 0.00428216 0.00427697
0.00427697 0.00427123 0.00427123 0.00426493 0.00426493 0.00425804 0.00425804 0.00425055 0.00425055 0.00424242
0.00424242 0.0042336 0.0042336 0.00422406 0.00422406 0.00421374 0.00421374 0.00420261 0.00420261 0.00419061
0.00419061 0.0041777 0.0041777 0.00416383 0.00416383 0.00414895 0.00414895 0.00413299 0.00413299 0.00411592
0.00411592 0.00409766 0.00409766 0.00407814 0.00407814 0.0040573 0.0040573 0.00403505 0.00403505 0.00401131
0.00401131 0.00398598 0.00398598 0.00395897 0.00395897 0.00393018 0.00393018 0.00389952 0.00389952 0.00386688
0.00386688 0.00383219 0.00383219 0.00379537 0.00379537 0.00375636 0.00375636 0.00371511 0.00371511 0.00367161
0.00367161 0.00362585 0.00362585 0.00357786 0.00357786 0.00352767 0.00352767 0.00347538 0.00347538 0.00342111
0.00342111 
U 3 182 float
0.5 0 0 0.5 0 0 0.5 0 0 0.5 0
0 0.5 0 0 0.5 0 0 0.5 0 0
0.5 0 0 0.5 0 0 0.5 0 0 0.5
0 0 0.5 0 0 0.5 0 0 0.5 0
0 0.5 0 0 0.5 0 0 0.5 0 0
0.5 0 0 0.5 0 0 0.5 0 0 0.5
0 0 0.5 0 0 0.5 0 0 0.5 0
0 0.5 0 0 0.5 0 0 0.5 0 0
0.5 0 0 0.5 0 0 0.5 0 0 0.5
0 0 0.5 0 0 0.5 0 0 0.5 0
0 0.5 0 0 0.5 0 0 0.5 0 0
0.5 0 0 0.5 0 0 0.5 0 0 0.5
0 0 0.5 0 0 0.5 0 0 0.5 0
0 0.5 0 0 0.5 0 0 0.5 0 0
0.5 0 0 0.5 0 0 0.5 0 0 0.5
0 0 0.5 0 0 0.5 0 0 0.5 0
0 0.5 0 0 0.5 0 0 0.5 0 0
0.5 0 0 0.5 0 0 0.5 0 0 0.5
0 0 0.5 0 0 0.5 0 0 0.5 0
0 0.5 0 0 0.5 0 0 0.5 0 0
0.5 0 0 0.5 0 0 0.5 0 0 0.5
0 0 0.5 0 0 0.5 0 0 0.5 0
0 0.5 0 0 0.5 0 0 0.5 0 0
0.5 0 0 0.5 0 0 0.5 0 0 0.5
0 0 0.5 0 0 0.5 0 0 0.5 0
0 0.5 0 0 0.5 0 0 0.5 0 0
0.5 0 0 0.5 0 0 0.5 0 0 0.5
0 0 0.5 0 0 0.5 0 0 0.5 0
0 0.5 0 0 0.5 0 0 0.5 0 0
0.5 0 0 0.5 0 0 0.5 0 0 0.5
0 0 0.5 0 0 0.5 0 0 0.5 0
0 0.5 0 0 0.5 0 0 0.5 0 0
0.5 0 0 0.5 0 0 0.5 0 0 0.5
0 0 0.5 0 0 0.5 0 0 0.5 0
0 0.5 0 0 0.5 0 0 0.5 0 0
0.5 0 0 0.5 0 0 0.5 0 0 0.5
0 0 0.5 0 0 0.5 0 0 0.5 0
0 0.5 0 0 0.5 0 0 0.5 0 0
0.5 0 0 0.5 0 0 0.5 0 0 0.5
0 0 0.5 0 0 0.5 0 0 0.5 0
0 0.5 0 0 0.5 0 0 0.5 0 0
0.5 0 0 0.5 0 0 0.5 0 0 0.5
0 0 0.5 0 0 0.5 0 0 0.5 0
0 0.5 0 0 0.5 0 0 0.5 0 0
0.5 0 0 0.5 0 0 0.5 0 0 0.5
0 0 0.5 0 0 0.5 0 0 0.5 0
0 0.5 0 0 0.5 0 0 0.5 0 0
0.5 0 0 0.5 0 0 0.5 0 0 0.5
0 0 0.5 0 0 0.5 0 0 0.5 0
0 0.5 0 0 0.5 0 0 0.5 0 0
0.5 0 0 0.5 0 0 0.5 0 0 0.5
0 0 0.5 0 0 0.5 0 0 0.5 0
0 0.5 0 0 0.5 0 0 0.5 0 0
0.5 0 0 0.5 0 0 0.5 0 0 0.5
0 0 0.5 0 0 
