# vtk DataFile Version 2.0
inlet
ASCII
DATASET POLYDATA
POINTS 182 float
-0.02 0.02 0 -0.02 0.02 0.001 -0.02 0.0207299 0.001 -0.02 0.0207299
0 -0.02 0.021488 0.001 -0.02 0.021488 0 -0.02 0.0222754 0.001
-0.02 0.0222754 0 -0.02 0.0230932 0.001 -0.02 0.0230932 0 -0.02
0.0239425 0.001 -0.02 0.0239425 0 -0.02 0.0248247 0.001 -0.02 0.0248247
0 -0.02 0.0257409 0.001 -0.02 0.0257409 0 -0.02 0.0266925 0.001
-0.02 0.0266925 0 -0.02 0.0276808 0.001 -0.02 0.0276808 0 -0.02
0.0287073 0.001 -0.02 0.0287073 0 -0.02 0.0297734 0.001 -0.02 0.0297734
0 -0.02 0.0308807 0.001 -0.02 0.0308807 0 -0.02 0.0320307 0.001
-0.02 0.0320307 0 -0.02 0.0332251 0.001 -0.02 0.0332251 0 -0.02
0.0344656 0.001 -0.02 0.0344656 0 -0.02 0.0357541 0.001 -0.02 0.0357541
0 -0.02 0.0370923 0.001 -0.02 0.0370923 0 -0.02 0.0384821 0.001
-0.02 0.0384821 0 -0.02 0.0399257 0.001 -0.02 0.0399257 0 -0.02
0.0414249 0.001 -0.02 0.0414249 0 -0.02 0.042982 0.001 -0.02 0.042982
0 -0.02 0.0445993 0.001 -0.02 0.0445993 0 -0.02 0.046279 0.001
-0.02 0.046279 0 -0.02 0.0480236 0.001 -0.02 0.0480236 0 -0.02
0.0498355 0.001 -0.02 0.0498355 0 -0.02 0.0517173 0.001 -0.02 0.0517173
0 -0.02 0.0536719 0.001 -0.02 0.0536719 0 -0.02 0.0557019 0.001
-0.02 0.0557019 0 -0.02 0.0578102 0.001 -0.02 0.0578102 0 -0.02
0.06 0.001 -0.02 0.06 0 -0.02 0 0 -0.02 0
0.001 -0.02 8.46956e-05 0.001 -0.02 8.46956e-05 0 -0.02 0.000172762 0.001
-0.02 0.000172762 0 -0.02 0.000264333 0.001 -0.02 0.000264333 0 -0.02
0.000359549 0.001 -0.02 0.000359549 0 -0.02 0.000458554 0.001 -0.02 0.000458554
0 -0.02 0.0005615 0.001 -0.02 0.0005615 0 -0.02 0.000668542 0.001
-0.02 0.000668542 0 -0.02 0.000779845 0.001 -0.02 0.000779845 0 -0.02
0.000895577 0.001 -0.02 0.000895577 0 -0.02 0.00101591 0.001 -0.02 0.00101591
0 -0.02 0.00114104 0.001 -0.02 0.00114104 0 -0.02 0.00127115 0.001
-0.02 0.00127115 0 -0.02 0.00140644 0.001 -0.02 0.00140644 0 -0.02
0.0015471 0.001 -0.02 0.0015471 0 -0.02 0.00169337 0.001 -0.02 0.00169337
0 -0.02 0.00184546 0.001 -0.02 0.00184546 0 -0.02 0.0020036 0.001
-0.02 0.0020036 0 -0.02 0.00216804 0.001 -0.02 0.00216804 0 -0.02
0.00233902 0.001 -0.02 0.00233902 0 -0.02 0.00251681 0.001 -0.02 0.00251681
0 -0.02 0.00270167 0.001 -0.02 0.00270167 0 -0.02 0.00289388 0.001
-0.02 0.00289388 0 -0.02 0.00309375 0.001 -0.02 0.00309375 0 -0.02
0.00330157 0.001 -0.02 0.00330157 0 -0.02 0.00351767 0.001 -0.02 0.00351767
0 -0.02 0.00374236 0.001 -0.02 0.00374236 0 -0.02 0.00397599 0.001
-0.02 0.00397599 0 -0.02 0.00421893 0.001 -0.02 0.00421893 0 -0.02
0.00447153 0.001 -0.02 0.00447153 0 -0.02 0.00473419 0.001 -0.02 0.00473419
0 -0.02 0.0050073 0.001 -0.02 0.0050073 0 -0.02 0.00529127 0.001
-0.02 0.00529127 0 -0.02 0.00558655 0.001 -0.02 0.00558655 0 -0.02
0.00589359 0.001 -0.02 0.00589359 0 -0.02 0.00621284 0.001 -0.02 0.00621284
0 -0.02 0.00654479 0.001 -0.02 0.00654479 0 -0.02 0.00688996 0.001
-0.02 0.00688996 0 -0.02 0.00724887 0.001 -0.02 0.00724887 0 -0.02
0.00762206 0.001 -0.02 0.00762206 0 -0.02 0.0080101 0.001 -0.02 0.0080101
0 -0.02 0.00841358 0.001 -0.02 0.00841358 0 -0.02 0.00883312 0.001
-0.02 0.00883312 0 -0.02 0.00926936 0.001 -0.02 0.00926936 0 -0.02
0.00972297 0.001 -0.02 0.00972297 0 -0.02 0.0101946 0.001 -0.02 0.0101946
0 -0.02 0.010685 0.001 -0.02 0.010685 0 -0.02 0.011195 0.001
-0.02 0.011195 0 -0.02 0.0117252 0.001 -0.02 0.0117252 0 -0.02
0.0122766 0.001 -0.02 0.0122766 0 -0.02 0.0128499 0.001 -0.02 0.0128499
0 -0.02 0.013446 0.001 -0.02 0.013446 0 -0.02 0.0140658 0.001
-0.02 0.0140658 0 -0.02 0.0147103 0.001 -0.02 0.0147103 0 -0.02
0.0153804 0.001 -0.02 0.0153804 0 -0.02 0.0160772 0.001 -0.02 0.0160772
0 -0.02 0.0168018 0.001 -0.02 0.0168018 0 -0.02 0.0175551 0.001
-0.02 0.0175551 0 -0.02 0.0183385 0.001 -0.02 0.0183385 0 -0.02
0.019153 0.001 -0.02 0.019153 0 
POLYGONS 90 450
4 0 1 2 3 4 3 2 4 5 4
5 4 6 7 4 7 6 8 9 4
9 8 10 11 4 11 10 12 13 4
13 12 14 15 4 15 14 16 17 4
17 16 18 19 4 19 18 20 21 4
21 20 22 23 4 23 22 24 25 4
25 24 26 27 4 27 26 28 29 4
29 28 30 31 4 31 30 32 33 4
33 32 34 35 4 35 34 36 37 4
37 36 38 39 4 39 38 40 41 4
41 40 42 43 4 43 42 44 45 4
45 44 46 47 4 47 46 48 49 4
49 48 50 51 4 51 50 52 53 4
53 52 54 55 4 55 54 56 57 4
57 56 58 59 4 59 58 60 61 4
62 63 64 65 4 65 64 66 67 4
67 66 68 69 4 69 68 70 71 4
71 70 72 73 4 73 72 74 75 4
75 74 76 77 4 77 76 78 79 4
79 78 80 81 4 81 80 82 83 4
83 82 84 85 4 85 84 86 87 4
87 86 88 89 4 89 88 90 91 4
91 90 92 93 4 93 92 94 95 4
95 94 96 97 4 97 96 98 99 4
99 98 100 101 4 101 100 102 103 4
103 102 104 105 4 105 104 106 107 4
107 106 108 109 4 109 108 110 111 4
111 110 112 113 4 113 112 114 115 4
115 114 116 117 4 117 116 118 119 4
119 118 120 121 4 121 120 122 123 4
123 122 124 125 4 125 124 126 127 4
127 126 128 129 4 129 128 130 131 4
131 130 132 133 4 133 132 134 135 4
135 134 136 137 4 137 136 138 139 4
139 138 140 141 4 141 140 142 143 4
143 142 144 145 4 145 144 146 147 4
147 146 148 149 4 149 148 150 151 4
151 150 152 153 4 153 152 154 155 4
155 154 156 157 4 157 156 158 159 4
159 158 160 161 4 161 160 162 163 4
163 162 164 165 4 165 164 166 167 4
167 166 168 169 4 169 168 170 171 4
171 170 172 173 4 173 172 174 175 4
175 174 176 177 4 177 176 178 179 4
179 178 180 181 4 181 180 1 0 
CELL_DATA 90
FIELD attributes 3
patchID 1 90 float
1 1 1 1 1 1 1 1 1 1 1
1 1 1 1 1 1 1 1 1 1
1 1 1 1 1 1 1 1 1 1
1 1 1 1 1 1 1 1 1 1
1 1 1 1 1 1 1 1 1 1
1 1 1 1 1 1 1 1 1 1
1 1 1 1 1 1 1 1 1 1
1 1 1 1 1 1 1 1 1 1
1 1 1 1 1 1 1 1 1 
p 1 90 float
0.00316638 0.00312216 0.00307741 0.00303227 0.00298686 0.00294131 0.00289577 0.00285036 0.00280524 0.00276052 0.00271635
0.00267287 0.00263021 0.00258851 0.0025479 0.00250852 0.00247049 0.00243395 0.00239903 0.00236587 0.00233461
0.00230542 0.00227846 0.00225391 0.002232 0.00221294 0.002197 0.00218448 0.00217572 0.00217112 0.0041305
0.00413149 0.00413242 0.00413331 0.00413423 0.00413518 0.00413613 0.00413707 0.00413798 0.00413884 0.00413961
0.00414025 0.0041407 0.00414089 0.00414076 0.00414023 0.00413923 0.0041377 0.00413559 0.00413288 0.00412954
0.00412558 0.00412103 0.00411587 0.00411014 0.00410383 0.00409692 0.00408939 0.00408119 0.00407229 0.00406263
0.00405219 0.00404089 0.00402869 0.00401554 0.00400138 0.00398615 0.0039698 0.00395227 0.00393349 0.00391339
0.00389192 0.003869 0.00384456 0.00381853 0.00379084 0.00376141 0.0037302 0.00369715 0.00366222 0.00362538
0.00358663 0.00354599 0.00350348 0.00345917 0.00341313 0.00336549 0.00331636 0.0032659 0.00321431 
U 3 90 float
0.5 0 0 0.5 0 0 0.5 0 0 0.5 0
0 0.5 0 0 0.5 0 0 0.5 0 0
0.5 0 0 0.5 0 0 0.5 0 0 0.5
0 0 0.5 0 0 0.5 0 0 0.5 0
0 0.5 0 0 0.5 0 0 0.5 0 0
0.5 0 0 0.5 0 0 0.5 0 0 0.5
0 0 0.5 0 0 0.5 0 0 0.5 0
0 0.5 0 0 0.5 0 0 0.5 0 0
0.5 0 0 0.5 0 0 0.5 0 0 0.5
0 0 0.5 0 0 0.5 0 0 0.5 0
0 0.5 0 0 0.5 0 0 0.5 0 0
0.5 0 0 0.5 0 0 0.5 0 0 0.5
0 0 0.5 0 0 0.5 0 0 0.5 0
0 0.5 0 0 0.5 0 0 0.5 0 0
0.5 0 0 0.5 0 0 0.5 0 0 0.5
0 0 0.5 0 0 0.5 0 0 0.5 0
0 0.5 0 0 0.5 0 0 0.5 0 0
0.5 0 0 0.5 0 0 0.5 0 0 0.5
0 0 0.5 0 0 0.5 0 0 0.5 0
0 0.5 0 0 0.5 0 0 0.5 0 0
0.5 0 0 0.5 0 0 0.5 0 0 0.5
0 0 0.5 0 0 0.5 0 0 0.5 0
0 0.5 0 0 0.5 0 0 0.5 0 0
0.5 0 0 0.5 0 0 0.5 0 0 0.5
0 0 0.5 0 0 0.5 0 0 0.5 0
0 0.5 0 0 0.5 0 0 0.5 0 0
0.5 0 0 0.5 0 0 0.5 0 0 
POINT_DATA  182
FIELD attributes 2
p 1 182 float
0.00318966 0.00318966 0.00314442 0.00314442 0.00309994 0.00309994 0.00305501 0.00305501 0.00300974 0.00300974 0.00296427
0.00296427 0.00291873 0.00291873 0.00287327 0.00287327 0.00282801 0.00282801 0.00278309 0.00278309 0.00273865
0.00273865 0.00269483 0.00269483 0.00265176 0.00265176 0.00260959 0.00260959 0.00256844 0.00256844 0.00252844
0.00252844 0.00248973 0.00248973 0.00245245 0.00245245 0.00241671 0.00241671 0.00238266 0.00238266 0.00235045
0.00235045 0.00232021 0.00232021 0.00229212 0.00229212 0.00226636 0.00226636 0.00224311 0.00224311 0.00222261
0.00222261 0.00220509 0.00220509 0.00219083 0.00219083 0.00218016 0.00218016 0.00217345 0.00217345 0.00217112
0.00217112 0.0041305 0.0041305 0.00413099 0.00413099 0.00413196 0.00413196 0.00413287 0.00413287 0.00413377
0.00413377 0.00413471 0.00413471 0.00413566 0.00413566 0.0041366 0.0041366 0.00413753 0.00413753 0.00413841
0.00413841 0.00413922 0.00413922 0.00413993 0.00413993 0.00414047 0.00414047 0.00414079 0.00414079 0.00414083
0.00414083 0.00414049 0.00414049 0.00413973 0.00413973 0.00413846 0.00413846 0.00413665 0.00413665 0.00413424
0.00413424 0.00413121 0.00413121 0.00412756 0.00412756 0.00412331 0.00412331 0.00411845 0.00411845 0.00411301
0.00411301 0.00410699 0.00410699 0.00410038 0.00410038 0.00409316 0.00409316 0.00408529 0.00408529 0.00407674
0.00407674 0.00406747 0.00406747 0.00405742 0.00405742 0.00404655 0.00404655 0.0040348 0.0040348 0.00402213
0.00402213 0.00400847 0.00400847 0.00399378 0.00399378 0.00397799 0.00397799 0.00396105 0.00396105 0.0039429
0.0039429 0.00392347 0.00392347 0.00390269 0.00390269 0.0038805 0.0038805 0.00385682 0.00385682 0.00383159
0.00383159 0.00380474 0.00380474 0.00377618 0.00377618 0.00374587 0.00374587 0.00371375 0.00371375 0.00367976
0.00367976 0.00364389 0.00364389 0.00360611 0.00360611 0.00356642 0.00356642 0.00352486 0.00352486 0.00348146
0.00348146 0.0034363 0.0034363 0.00338947 0.00338947 0.0033411 0.0033411 0.00329132 0.00329132 0.00324031
0.00324031 
U 3 182 float
0.5 0 0 0.5 0 0 0.5 0 0 0.5 0
0 0.5 0 0 0.5 0 0 0.5 0 0
0.5 0 0 0.5 0 0 0.5 0 0 0.5
0 0 0.5 0 0 0.5 0 0 0.5 0
0 0.5 0 0 0.5 0 0 0.5 0 0
0.5 0 0 0.5 0 0 0.5 0 0 0.5
0 0 0.5 0 0 0.5 0 0 0.5 0
0 0.5 0 0 0.5 0 0 0.5 0 0
0.5 0 0 0.5 0 0 0.5 0 0 0.5
0 0 0.5 0 0 0.5 0 0 0.5 0
0 0.5 0 0 0.5 0 0 0.5 0 0
0.5 0 0 0.5 0 0 0.5 0 0 0.5
0 0 0.5 0 0 0.5 0 0 0.5 0
0 0.5 0 0 0.5 0 0 0.5 0 0
0.5 0 0 0.5 0 0 0.5 0 0 0.5
0 0 0.5 0 0 0.5 0 0 0.5 0
0 0.5 0 0 0.5 0 0 0.5 0 0
0.5 0 0 0.5 0 0 0.5 0 0 0.5
0 0 0.5 0 0 0.5 0 0 0.5 0
0 0.5 0 0 0.5 0 0 0.5 0 0
0.5 0 0 0.5 0 0 0.5 0 0 0.5
0 0 0.5 0 0 0.5 0 0 0.5 0
0 0.5 0 0 0.5 0 0 0.5 0 0
0.5 0 0 0.5 0 0 0.5 0 0 0.5
0 0 0.5 0 0 0.5 0 0 0.5 0
0 0.5 0 0 0.5 0 0 0.5 0 0
0.5 0 0 0.5 0 0 0.5 0 0 0.5
0 0 0.5 0 0 0.5 0 0 0.5 0
0 0.5 0 0 0.5 0 0 0.5 0 0
0.5 0 0 0.5 0 0 0.5 0 0 0.5
0 0 0.5 0 0 0.5 0 0 0.5 0
0 0.5 0 0 0.5 0 0 0.5 0 0
0.5 0 0 0.5 0 0 0.5 0 0 0.5
0 0 0.5 0 0 0.5 0 0 0.5 0
0 0.5 0 0 0.5 0 0 0.5 0 0
0.5 0 0 0.5 0 0 0.5 0 0 0.5
0 0 0.5 0 0 0.5 0 0 0.5 0
0 0.5 0 0 0.5 0 0 0.5 0 0
0.5 0 0 0.5 0 0 0.5 0 0 0.5
0 0 0.5 0 0 0.5 0 0 0.5 0
0 0.5 0 0 0.5 0 0 0.5 0 0
0.5 0 0 0.5 0 0 0.5 0 0 0.5
0 0 0.5 0 0 0.5 0 0 0.5 0
0 0.5 0 0 0.5 0 0 0.5 0 0
0.5 0 0 0.5 0 0 0.5 0 0 0.5
0 0 0.5 0 0 0.5 0 0 0.5 0
0 0.5 0 0 0.5 0 0 0.5 0 0
0.5 0 0 0.5 0 0 0.5 0 0 0.5
0 0 0.5 0 0 0.5 0 0 0.5 0
0 0.5 0 0 0.5 0 0 0.5 0 0
0.5 0 0 0.5 0 0 0.5 0 0 0.5
0 0 0.5 0 0 0.5 0 0 0.5 0
0 0.5 0 0 0.5 0 0 0.5 0 0
0.5 0 0 0.5 0 0 0.5 0 0 0.5
0 0 0.5 0 0 
