/*--------------------------------*- C++ -*----------------------------------*\
| =========                 |                                                 |
| \\      /  F ield         | OpenFOAM: The Open Source CFD Toolbox           |
|  \\    /   O peration     | Version:  5.x                                   |
|   \\  /    A nd           | Web:      www.OpenFOAM.org                      |
|    \\/     M anipulation  |                                                 |
\*---------------------------------------------------------------------------*/
FoamFile
{
    version     2.0;
    format      ascii;
    class       volScalarField;
    location    "0.7";
    object      p;
}
// * * * * * * * * * * * * * * * * * * * * * * * * * * * * * * * * * * * * * //

dimensions      [0 2 -2 0 0 0 0];

internalField   nonuniform List<scalar> 
21600
(
0.015333364
0.010090252
0.0046654548
0.0012776592
0.00013857523
0.00027307129
0.00068369931
0.00098095512
0.0011280929
0.0011864212
0.0012091283
0.0012215814
0.0012314922
0.0012397754
0.0012459686
0.0012498767
0.0012516927
0.0012517777
0.0012504925
0.0012481309
0.0012449128
0.0012409997
0.0012365117
0.0012315414
0.0012261622
0.0012204344
0.0012144081
0.0012081255
0.0012016219
0.0011949275
0.0011880677
0.0011810642
0.0011739355
0.0011666974
0.0011593635
0.0011519456
0.0011444537
0.0011368968
0.0011292824
0.0011216175
0.0011139079
0.001106159
0.0010983753
0.001090561
0.00108272
0.0010748554
0.0010669703
0.0010590672
0.0010511486
0.0010432163
0.0010352723
0.0010273177
0.001019354
0.0010113821
0.0010034032
0.00099541832
0.00098742863
0.00097943514
0.00097143921
0.00096344154
0.0009554432
0.00094744428
0.00093944535
0.0009314462
0.0009234475
0.00091544943
0.00090745315
0.00089945903
0.00089146812
0.00088347993
0.00087549512
0.00086751262
0.0008595337
0.00085155772
0.00084358678
0.00083561988
0.0008276587
0.00081970107
0.00081174897
0.00080380028
0.0007958582
0.00078792064
0.00077999062
0.00077206462
0.00076414613
0.00075623134
0.00074832501
0.0007404233
0.00073253074
0.00072464234
0.00071676319
0.00070888819
0.00070102372
0.00069316366
0.00068531469
0.00067746943
0.0006696358
0.00066180629
0.00065398957
0.00064617682
0.00063837719
0.00063058126
0.00062279965
0.00061502193
0.00060725943
0.00059949995
0.0005917567
0.00058401642
0.00057629387
0.00056857408
0.00056087307
0.0005531739
0.00054549564
0.00053781921
0.00053016412
0.00052251131
0.00051488122
0.00050725162
0.00049964838
0.00049204428
0.00048446697
0.00047689057
0.0004693413
0.00046179251
0.00045427352
0.0004467536
0.00043926652
0.000431777
0.00042432361
0.00041686627
0.00040944829
0.00040202596
0.00039464616
0.00038726139
0.0003799229
0.00037257859
0.00036528369
0.00035798115
0.0003507306
0.00034346946
0.00033626345
0.0003290452
0.00032188761
0.00031471789
0.0003076151
0.00030049801
0.0002934518
0.0002863873
0.00027939911
0.00027239098
0.00026546701
0.0002585212
0.00025166552
0.00024478328
0.00023799925
0.00023118551
0.00022447968
0.00021773998
0.00021111635
0.00020445406
0.00019791932
0.00019134079
0.00018490077
0.00017841238
0.00017207275
0.00016567971
0.00015945132
0.00015315849
0.00014704751
0.00014086429
0.00013487883
0.00012881332
0.0001229636
0.00011702365
0.00011132036
0.00010551566
9.9970744e-05
9.4311006e-05
8.893747e-05
8.3434384e-05
7.8246395e-05
7.2911803e-05
6.7925833e-05
6.2772761e-05
5.8007371e-05
5.3050558e-05
4.852541e-05
4.3781753e-05
3.9520687e-05
3.5007461e-05
3.1038196e-05
2.6775225e-05
2.3130909e-05
1.9139363e-05
1.5861447e-05
1.2163468e-05
9.3092442e-06
5.9207206e-06
3.5978326e-06
4.7466146e-07
0.014086152
0.0098960109
0.0048011616
0.0014812021
0.00029471857
0.00036996228
0.00074514029
0.0010211344
0.0011559327
0.0012076307
0.001226695
0.0012368019
0.0012449089
0.0012516971
0.0012566369
0.0012594938
0.001260423
0.0012597525
0.001257817
0.00125489
0.0012511764
0.0012468258
0.0012419491
0.0012366317
0.0012309409
0.0012249323
0.0012186517
0.0012121379
0.0012054234
0.0011985361
0.0011914991
0.0011843326
0.0011770533
0.0011696759
0.0011622127
0.0011546747
0.0011470708
0.0011394094
0.0011316973
0.0011239409
0.0011161454
0.0011083157
0.001100456
0.0010925701
0.0010846615
0.0010767329
0.0010687873
0.001060827
0.001052854
0.00104487
0.0010368769
0.0010288756
0.0010208674
0.0010128531
0.0010048337
0.00099681016
0.00098878351
0.00098075466
0.00097272488
0.00096469477
0.00095666535
0.00094863659
0.00094060903
0.00093258234
0.00092455718
0.00091653364
0.00090851287
0.00090049515
0.00089248152
0.0008844714
0.00087646546
0.00086846252
0.0008604639
0.00085246886
0.00084447954
0.00083649484
0.00082851648
0.00082054215
0.00081257392
0.00080460957
0.00079665237
0.00078870012
0.0007807559
0.00077281605
0.00076488417
0.00075695633
0.00074903738
0.00074112339
0.00073321891
0.00072531887
0.00071742845
0.00070954245
0.00070166734
0.00069379685
0.00068593777
0.00067808261
0.0006702394
0.00066240052
0.0006545747
0.00064675302
0.00063894472
0.0006311403
0.00062335047
0.00061556466
0.00060779431
0.00060002709
0.00059227636
0.00058452872
0.00057679904
0.00056907221
0.00056136438
0.00055365846
0.00054597369
0.00053829086
0.00053062948
0.00052297049
0.00051533448
0.00050769891
0.00050008995
0.00049248022
0.00048489735
0.00047731555
0.00046976099
0.00046220696
0.00045468289
0.00044715795
0.00043966602
0.00043217162
0.00042471356
0.00041725155
0.00040982906
0.00040240223
0.00039501808
0.00038762897
0.00038028629
0.00037293781
0.00036563887
0.00035833231
0.00035107786
0.00034381282
0.000336603
0.00032938098
0.00032221974
0.00031504641
0.00030794011
0.00030081952
0.00029376988
0.00028670196
0.00027971043
0.00027269905
0.00026577188
0.00025882292
0.0002519641
0.00024507876
0.00023829172
0.00023147503
0.00022476628
0.0002180237
0.0002113972
0.00020473212
0.00019819467
0.00019161347
0.00018517068
0.00017867977
0.00017233751
0.00016594192
0.0001597111
0.00015341578
0.00014730234
0.00014111682
0.00013512901
0.00012906122
0.00012320919
0.0001172671
0.00011156161
0.00010575481
0.00010020775
9.4546041e-05
8.9170467e-05
8.366548e-05
7.8475519e-05
7.3139122e-05
6.8151353e-05
6.2996502e-05
5.8229424e-05
5.3270962e-05
4.8744287e-05
4.3999008e-05
3.9736646e-05
3.5221833e-05
3.1251585e-05
2.6986982e-05
2.3342117e-05
1.9348822e-05
1.6071054e-05
1.2370914e-05
9.518236e-06
6.1263977e-06
3.8080657e-06
6.7783576e-07
0.013090138
0.0097340229
0.005066429
0.0018178684
0.00052418191
0.00049349529
0.00081401943
0.0010670028
0.0011898904
0.0012338116
0.0012476347
0.0012541712
0.0012596675
0.0012644086
0.0012676956
0.001269213
0.0012690544
0.001267493
0.0012648176
0.0012612674
0.0012570217
0.0012522119
0.0012469353
0.0012412664
0.0012352648
0.0012289795
0.0012224513
0.0012157147
0.0012087989
0.0012017288
0.0011945254
0.0011872065
0.0011797875
0.0011722815
0.0011646997
0.0011570518
0.0011493461
0.0011415899
0.0011337896
0.0011259507
0.0011180781
0.0011101762
0.0011022487
0.001094299
0.0010863303
0.0010783451
0.0010703461
0.0010623351
0.0010543142
0.0010462849
0.0010382487
0.0010302064
0.0010221593
0.0010141079
0.0010060532
0.00099799595
0.00098993714
0.00098187753
0.00097381838
0.00096576012
0.00095770378
0.00094964917
0.00094159684
0.00093354635
0.00092549834
0.00091745282
0.00090941096
0.00090137289
0.00089333973
0.00088531073
0.00087728663
0.00086926612
0.0008612506
0.0008532392
0.00084523413
0.00083723417
0.00082924109
0.00082125245
0.00081327044
0.00080529269
0.00079732258
0.00078935776
0.00078140143
0.00077344973
0.00076550643
0.00075756744
0.00074963777
0.00074171327
0.00073379867
0.00072588868
0.0007179887
0.00071009329
0.00070220916
0.00069432978
0.00068646214
0.00067859851
0.0006707472
0.0006629003
0.00065506681
0.00064723749
0.00063942189
0.00063161019
0.00062381345
0.00061602071
0.00060824376
0.00060046989
0.0005927129
0.00058495895
0.0005772233
0.00056949039
0.00056177689
0.00055406515
0.00054637496
0.0005386866
0.00053102003
0.00052335566
0.00051571477
0.00050807402
0.00050046034
0.0004928457
0.00048525827
0.00047767172
0.00047011288
0.00046255421
0.00045502605
0.00044749665
0.00044000081
0.00043250208
0.00042504028
0.00041757409
0.00041014802
0.00040271712
0.00039532957
0.0003879365
0.00038059056
0.00037323824
0.00036593619
0.00035862586
0.00035136845
0.00034409973
0.00033688707
0.00032966145
0.00032249754
0.0003153207
0.00030821188
0.00030108782
0.00029403577
0.00028696439
0.00027997058
0.00027295584
0.00026602657
0.00025907427
0.00025221345
0.00024532473
0.00023853587
0.00023171588
0.00022500544
0.00021825952
0.00021163145
0.00020496302
0.00019842422
0.00019183969
0.00018539558
0.00017890133
0.00017255802
0.00016615894
0.00015992731
0.00015362846
0.00014751427
0.00014132525
0.00013533694
0.00012926547
0.00012341314
0.00011746732
0.00011176178
0.00010595107
0.0001004042
9.4738469e-05
8.9363399e-05
8.3854171e-05
7.866501e-05
7.3324165e-05
6.8337612e-05
6.3178009e-05
5.8412515e-05
5.3449054e-05
4.8924455e-05
4.4173733e-05
3.9914045e-05
3.5393318e-05
3.1426442e-05
2.7155299e-05
2.3514665e-05
1.9514034e-05
1.6241624e-05
1.2532949e-05
9.6869898e-06
6.2851356e-06
3.9640897e-06
8.1014753e-07
0.012242236
0.0095463718
0.0053419608
0.0021989342
0.00080904081
0.00065731008
0.00091252718
0.0011362149
0.001241853
0.001273004
0.0012777588
0.0012782523
0.0012797009
0.0012815083
0.0012824936
0.0012821376
0.0012804387
0.0012776033
0.001273865
0.0012694188
0.0012644106
0.0012589462
0.0012531036
0.0012469423
0.0012405096
0.0012338446
0.0012269802
0.0012199445
0.0012127612
0.0012054507
0.0011980304
0.0011905151
0.0011829175
0.0011752485
0.0011675175
0.0011597326
0.0011519008
0.0011440282
0.0011361202
0.0011281813
0.0011202158
0.0011122272
0.0011042189
0.0010961936
0.001088154
0.0010801023
0.0010720407
0.0010639708
0.0010558945
0.0010478127
0.0010397269
0.0010316377
0.0010235462
0.0010154525
0.0010073578
0.00099926239
0.00099116731
0.00098307311
0.000974981
0.00096689125
0.00095880484
0.00095072145
0.00094264161
0.00093456472
0.00092649146
0.00091842168
0.00091035658
0.00090229615
0.00089424154
0.00088619186
0.00087814789
0.0008701082
0.00086207426
0.00085404506
0.0008460229
0.00083800635
0.00082999734
0.00082199321
0.00081399631
0.0008060041
0.00079802009
0.00079004174
0.00078207238
0.00077410795
0.00076615241
0.00075820147
0.00075026032
0.00074232458
0.00073439918
0.00072647857
0.00071856839
0.00071066297
0.00070276925
0.00069488039
0.00068700366
0.00067913104
0.00067127115
0.00066341576
0.00065557416
0.00064773674
0.00063991342
0.00063209403
0.00062429
0.00061648993
0.00060870603
0.00060092516
0.00059316157
0.00058540097
0.00057765906
0.00056991976
0.00056220029
0.00055448245
0.00054678658
0.00053909241
0.0005314204
0.00052375038
0.0005161044
0.00050845821
0.00050083958
0.00049321981
0.00048562765
0.00047803609
0.00047047281
0.00046290928
0.00045537686
0.00044784279
0.00044034291
0.00043283964
0.00042537396
0.0004179034
0.00041047362
0.00040303847
0.00039564738
0.00038825017
0.00038090087
0.00037354451
0.00036623924
0.00035892496
0.0003516645
0.00034439189
0.00033717632
0.00032994691
0.00032278028
0.00031559974
0.00030848834
0.0003013606
0.00029430608
0.00028723104
0.00028023493
0.00027321662
0.00026628523
0.00025932935
0.00025246651
0.0002455742
0.0002387835
0.00023195999
0.00022524783
0.00021849834
0.0002118687
0.00020519668
0.00019865651
0.00019206841
0.00018562298
0.0001791251
0.00017278078
0.0001663779
0.00016014545
0.0001538428
0.00014772786
0.00014153502
0.00013554622
0.00012947073
0.00012361811
0.0001176682
0.00011196262
0.00010614761
0.00010060095
9.4930758e-05
8.9556202e-05
8.404226e-05
7.885391e-05
7.3508109e-05
6.852275e-05
6.3357868e-05
5.8593892e-05
5.3624865e-05
4.9102247e-05
4.4345453e-05
4.008828e-05
3.5560979e-05
3.1597185e-05
2.7318833e-05
2.3681923e-05
1.9673322e-05
1.6405296e-05
1.2687754e-05
9.8456182e-06
6.4346472e-06
4.0932607e-06
9.0981181e-07
0.011470663
0.0093022807
0.0055736343
0.0025696367
0.0011062486
0.00083798282
0.0010256883
0.0012196759
0.0013081296
0.0013250342
0.0013183917
0.0013108673
0.0013068821
0.001304764
0.001302655
0.0012997467
0.0012959227
0.0012913172
0.0012860989
0.001280405
0.0012743348
0.0012679584
0.0012613263
0.0012544771
0.0012474414
0.0012402452
0.0012329102
0.0012254558
0.0012178984
0.0012102523
0.0012025298
0.0011947414
0.0011868962
0.001179002
0.0011710656
0.0011630928
0.0011550887
0.0011470577
0.0011390036
0.0011309299
0.0011228395
0.0011147351
0.001106619
0.0010984934
0.0010903602
0.0010822211
0.0010740776
0.0010659309
0.0010577824
0.0010496328
0.0010414831
0.0010333336
0.0010251851
0.0010170377
0.001008892
0.0010007483
0.00099260742
0.00098446969
0.00097633624
0.0009682071
0.00096008321
0.00095196404
0.00094385008
0.00093574057
0.00092763617
0.00091953656
0.00091144296
0.00090335516
0.00089527438
0.00088719951
0.00087913141
0.00087106848
0.00086301226
0.00085496158
0.00084691883
0.00083888237
0.00083085423
0.00082283157
0.00081481687
0.00080680742
0.00079880687
0.00079081243
0.00078282762
0.00077484812
0.00076687809
0.00075891306
0.00075095839
0.00074300943
0.00073507132
0.00072713826
0.00071921613
0.00071129901
0.00070339408
0.00069549417
0.00068760683
0.00067972378
0.00067185391
0.00066398866
0.00065613764
0.00064829086
0.00064045862
0.00063263036
0.00062481789
0.00061700939
0.00060921748
0.00060142856
0.00059365739
0.00058588917
0.00057814006
0.00057039346
0.00056266716
0.00055494237
0.00054723999
0.00053953921
0.00053186099
0.00052418455
0.00051653273
0.00050888043
0.00050125613
0.00049363055
0.00048603301
0.0004784358
0.00047086747
0.00046329847
0.00045576121
0.00044822189
0.00044071741
0.00043320906
0.00042573896
0.00041826353
0.00041082953
0.00040338965
0.00039599453
0.00038859273
0.00038123958
0.00037387874
0.0003665698
0.00035925113
0.00035198717
0.00034471028
0.00033749138
0.00033025781
0.00032308807
0.00031590345
0.00030878907
0.00030165729
0.00029459992
0.00028752087
0.00028052209
0.0002734999
0.00026656601
0.00025960623
0.00025274101
0.00024584479
0.0002390519
0.00023222458
0.00022551035
0.00021875699
0.00021212543
0.00020544953
0.00019890764
0.00019231567
0.00018586857
0.00017936677
0.00017302109
0.00016661414
0.00016038047
0.00015407378
0.00014795768
0.00014176076
0.00013577105
0.00012969128
0.00012383794
0.00011788368
0.00011217759
0.00010635802
0.00010081105
9.5136164e-05
8.9761557e-05
8.4242652e-05
7.9054497e-05
7.3703495e-05
6.8718618e-05
6.3548239e-05
5.8784962e-05
5.381015e-05
4.9288579e-05
4.4525494e-05
4.0269731e-05
3.5735668e-05
3.177358e-05
2.7487911e-05
2.385292e-05
1.983645e-05
1.6570072e-05
1.2844544e-05
1.0000263e-05
6.5824588e-06
4.2007517e-06
9.8335349e-07
0.010772712
0.0090109267
0.0057533687
0.0029174379
0.0014026778
0.0010230785
0.0011410943
0.0013057855
0.0013796767
0.0013839775
0.001365893
0.0013496368
0.0013395748
0.0013330824
0.001327514
0.0013216939
0.001315384
0.0013086644
0.0013016506
0.0012944245
0.0012870365
0.001279518
0.0012718897
0.0012641666
0.0012563606
0.0012484819
0.00124054
0.0012325432
0.0012244995
0.0012164158
0.001208298
0.0012001515
0.001191981
0.0011837904
0.0011755831
0.0011673622
0.0011591302
0.0011508896
0.0011426422
0.0011343899
0.0011261342
0.0011178764
0.0011096179
0.0011013597
0.0010931029
0.0010848483
0.0010765969
0.0010683491
0.0010601058
0.0010518672
0.0010436338
0.0010354055
0.0010271827
0.0010189651
0.0010107532
0.0010025468
0.00099434661
0.00098615265
0.00097796586
0.00096978605
0.000961614
0.00095344897
0.00094529138
0.00093714023
0.00092899617
0.00092085865
0.0009127289
0.00090460648
0.00089649261
0.000888386
0.00088028754
0.00087219544
0.00086411131
0.00085603378
0.00084796531
0.00083990405
0.00083185212
0.00082380647
0.00081576972
0.00080773898
0.00079971799
0.00079170375
0.00078369991
0.00077570193
0.00076771415
0.00075973189
0.00075176068
0.00074379562
0.00073584203
0.00072789385
0.00071995722
0.00071202594
0.00070410742
0.00069619418
0.00068829405
0.00068039844
0.00067251655
0.0006646395
0.00065677716
0.00064891921
0.00064107627
0.00063323745
0.0006254149
0.00061759638
0.00060979491
0.00060199648
0.00059421629
0.00058643908
0.00057868142
0.00057092623
0.00056319183
0.0005554589
0.00054774881
0.00054004028
0.00053235475
0.00052467083
0.00051701212
0.0005093527
0.00050172174
0.00049408942
0.00048648558
0.00047888181
0.00047130757
0.00046373226
0.00045618934
0.00044864398
0.0004411341
0.00043361994
0.00042614467
0.00041866369
0.00041122475
0.00040377947
0.00039637966
0.00038897263
0.00038161498
0.00037424907
0.00036693582
0.00035961219
0.00035234413
0.00034506243
0.00033783963
0.0003306014
0.000323428
0.00031623882
0.00030912094
0.00030198464
0.00029492389
0.00028784039
0.00028083844
0.00027381194
0.00026687508
0.00025991098
0.00025304289
0.00024614238
0.00023934683
0.00023251532
0.00022579854
0.00021904094
0.00021240698
0.00020572687
0.00019918276
0.00019258661
0.00018613735
0.00017963128
0.00017328377
0.00016687242
0.00016063699
0.00015432597
0.00014820816
0.00014200686
0.00013601567
0.00012993133
0.00012407665
0.00011811776
0.00011241049
0.00010658608
0.0001010381
9.5358218e-05
8.9982784e-05
8.4458623e-05
7.9269807e-05
7.3913314e-05
6.8927934e-05
6.3751788e-05
5.8988081e-05
5.4007207e-05
4.9485379e-05
4.4715734e-05
4.0459818e-05
3.5918778e-05
3.1956408e-05
2.7663373e-05
2.4027582e-05
2.0003663e-05
1.6734611e-05
1.3002835e-05
1.0147637e-05
6.7255422e-06
4.2842426e-06
1.0281565e-06
0.010151975
0.0086944334
0.0058824566
0.0032387042
0.0016955817
0.0012107348
0.0012563169
0.0013909484
0.0014525344
0.0014464671
0.0014175448
0.0013921586
0.0013755361
0.0013644225
0.0013553043
0.0013465081
0.0013376224
0.0013286767
0.0013197484
0.0013108714
0.0013020493
0.0012932744
0.0012845379
0.0012758321
0.001267151
0.0012584897
0.0012498453
0.0012412158
0.0012326003
0.0012239982
0.0012154093
0.0012068334
0.0011982705
0.0011897205
0.0011811833
0.0011726588
0.0011641471
0.001155648
0.0011471615
0.0011386875
0.001130226
0.0011217768
0.00111334
0.0011049155
0.0010965033
0.0010881034
0.0010797158
0.0010713403
0.0010629771
0.0010546257
0.0010462861
0.0010379577
0.0010296405
0.0010213338
0.0010130376
0.0010047515
0.00099647581
0.00098821025
0.00097995557
0.00097171125
0.00096347792
0.00095525456
0.00094704145
0.00093883738
0.00093064291
0.00092245726
0.00091428161
0.00090611527
0.00089795946
0.00088981264
0.00088167575
0.00087354676
0.00086542736
0.00085731596
0.00084921504
0.00084112254
0.00083304064
0.00082496611
0.00081690165
0.00080884421
0.00080079759
0.00079275857
0.00078473091
0.00077670986
0.00076869991
0.00076069621
0.00075270439
0.00074471932
0.00073674648
0.00072877956
0.00072082494
0.00071287616
0.00070494081
0.00069701115
0.0006890952
0.00068118416
0.00067328747
0.00066539594
0.00065751968
0.00064964804
0.00064179199
0.00063394028
0.00062610539
0.00061827467
0.00061046152
0.00060265155
0.00059486036
0.00058707226
0.0005793042
0.00057153864
0.0005637944
0.00055605167
0.00054833225
0.00054061441
0.00053292004
0.00052522717
0.00051756011
0.00050989223
0.00050225322
0.00049461288
0.00048700147
0.00047938992
0.00047180855
0.00046422579
0.00045667606
0.00044912359
0.00044160724
0.00043408627
0.00042660479
0.0004191173
0.00041167245
0.00040422088
0.00039681544
0.00038940234
0.00038203931
0.0003746675
0.00036734911
0.00036001975
0.00035274678
0.00034545953
0.00033823206
0.00033098849
0.0003238107
0.00031661633
0.00030949421
0.00030235277
0.00029528796
0.00028819942
0.00028119363
0.00027416226
0.00026722178
0.00026025281
0.00025338122
0.00024647592
0.00023967706
0.00023284089
0.00022612092
0.00021935862
0.00021272163
0.00020603687
0.0001994899
0.00019288914
0.00018643708
0.00017992631
0.00017357632
0.00016716019
0.00016092228
0.00015460658
0.00014848632
0.00014228028
0.00013628683
0.00013019758
0.00012434074
0.00011837687
0.00011266754
0.00010683796
0.000101288
9.5602793e-05
9.0225467e-05
8.4695723e-05
7.950506e-05
7.4142764e-05
6.9155511e-05
6.3973319e-05
5.9207601e-05
5.4220405e-05
4.9696444e-05
4.4920054e-05
4.0661668e-05
3.6113641e-05
3.2147954e-05
2.7847955e-05
2.420707e-05
2.0177019e-05
1.689859e-05
1.316352e-05
1.0285812e-05
6.8616066e-06
4.3444887e-06
1.0469658e-06
0.0096065518
0.0083706716
0.0059624438
0.0035293618
0.0019824055
0.0014011678
0.0013718549
0.0014745024
0.00152517
0.0015110001
0.0014721838
0.0014373988
0.0014136627
0.0013975996
0.0013848394
0.0013730629
0.001361592
0.0013503887
0.0013395047
0.0013289365
0.0013186427
0.0013085748
0.0012986929
0.0012889657
0.0012793694
0.0012698845
0.0012604962
0.0012511922
0.001241963
0.001232801
0.0012236996
0.0012146536
0.0012056583
0.0011967098
0.0011878045
0.0011789395
0.001170112
0.0011613197
0.0011525604
0.0011438323
0.0011351337
0.001126463
0.001117819
0.0011092003
0.0011006061
0.0010920352
0.0010834869
0.0010749601
0.0010664544
0.0010579685
0.001049502
0.0010410537
0.0010326231
0.0010242089
0.001015811
0.0010074284
0.00099906116
0.00099070862
0.0009823713
0.00097404832
0.00096574014
0.00095744541
0.00094916431
0.00094089534
0.00093263897
0.00092439415
0.000916162
0.00090794157
0.00089973405
0.00089153763
0.00088335327
0.00087517873
0.00086701571
0.00085886241
0.00085072132
0.00084259016
0.00083447114
0.00082636085
0.00081826206
0.00081017153
0.00080209315
0.00079402342
0.00078596623
0.00077791661
0.00076987918
0.00076184892
0.00075383155
0.00074582171
0.00073782501
0.00072983493
0.00072185803
0.0007138876
0.00070593143
0.00069798147
0.00069004597
0.00068211589
0.00067420089
0.0006662915
0.00065839805
0.00065050958
0.00064263735
0.00063476978
0.00062691968
0.00061907398
0.00061124646
0.00060342236
0.00059561763
0.00058781621
0.00058003536
0.00057225714
0.00056450081
0.00055674614
0.00054901527
0.00054128609
0.0005335809
0.00052587716
0.00051819988
0.00051052175
0.00050287292
0.00049522286
0.00048760221
0.00047998128
0.00047239122
0.00046479951
0.00045724148
0.00044968048
0.00044215623
0.00043462711
0.00042713808
0.00041964283
0.0004121908
0.00040473175
0.00039731946
0.00038989917
0.00038252958
0.00037515083
0.00036782617
0.00036049007
0.00035321111
0.00034591736
0.00033868423
0.00033143442
0.00032425127
0.00031705084
0.00030992355
0.00030277616
0.00029570636
0.00028861202
0.00028160152
0.00027456456
0.00026761958
0.00026064507
0.00025376911
0.00024685838
0.00024005539
0.00023321392
0.00022648994
0.00021972234
0.0002130815
0.00020639153
0.00019984086
0.00019323495
0.00018677925
0.00018026327
0.00017390993
0.00016748852
0.00016124722
0.00015492638
0.00014880274
0.0001425915
0.00013659479
0.0001305002
0.00012464013
0.00011867086
0.0001129583
0.00010712317
0.00010156995
9.5879056e-05
9.0498401e-05
8.4962751e-05
7.976861e-05
7.440024e-05
6.9409211e-05
6.4220788e-05
5.9450813e-05
5.4457223e-05
4.9928394e-05
4.5145416e-05
4.0881086e-05
3.6326642e-05
3.235302e-05
2.8047374e-05
2.4394958e-05
2.0361318e-05
1.706422e-05
1.3329576e-05
1.0416012e-05
6.9905492e-06
4.3860044e-06
1.0474923e-06
0.0091285375
0.0080524682
0.0059962221
0.0037850856
0.0022593125
0.0015944168
0.0014888787
0.0015565674
0.0015966702
0.0015765218
0.0015291653
0.0014850021
0.0014536133
0.0014321701
0.0014156002
0.0014008187
0.0013867583
0.0013732719
0.0013603928
0.0013480955
0.0013362997
0.0013249154
0.0013138684
0.001303102
0.0012925734
0.0012822485
0.0012721001
0.0012621056
0.001252247
0.0012425088
0.0012328788
0.001223346
0.0012139016
0.0012045374
0.0011952468
0.0011860237
0.0011768629
0.0011677597
0.0011587101
0.0011497102
0.001140757
0.0011318474
0.0011229789
0.001114149
0.0011053559
0.0010965974
0.0010878721
0.0010791781
0.0010705142
0.0010618785
0.0010532702
0.0010446872
0.0010361289
0.0010275934
0.0010190803
0.0010105879
0.0010021163
0.00099366423
0.0009852321
0.00097681863
0.00096842411
0.00096004685
0.00095168693
0.00094334253
0.00093501406
0.00092670016
0.00091840192
0.00091011807
0.00090184978
0.00089359499
0.00088535466
0.00087712632
0.0008689117
0.00086070874
0.00085251999
0.00084434286
0.00083617966
0.00082802674
0.00081988699
0.00081175693
0.00080364053
0.00079553404
0.00078744143
0.00077935754
0.0007712871
0.00076322491
0.0007551768
0.00074713713
0.00073911167
0.00073109367
0.00072308987
0.00071509332
0.00070711197
0.00069913749
0.00069117833
0.00068322524
0.00067528807
0.00066735707
0.00065944277
0.00065153392
0.00064364207
0.00063575532
0.00062788674
0.00062002291
0.00061217793
0.00060433671
0.00059651555
0.00058869798
0.0005809016
0.00057310806
0.00056533705
0.00055756792
0.00054982315
0.00054208024
0.0005343619
0.00052664505
0.00051895533
0.00051126483
0.00050360409
0.00049594228
0.00048831044
0.00048067821
0.00047307757
0.0004654751
0.00045790698
0.00045033574
0.00044280191
0.00043526302
0.00042776483
0.00042026028
0.00041279952
0.00040533154
0.00039791094
0.00039048208
0.00038310454
0.00037571751
0.00036838525
0.00036104116
0.00035375492
0.0003464535
0.00033921347
0.00033195631
0.00032476664
0.0003175591
0.00031042549
0.00030327112
0.00029619523
0.00028909413
0.00028207785
0.00027503441
0.0002680839
0.00026110295
0.00025422162
0.00024730464
0.0002404965
0.00023364897
0.00022691996
0.00022014632
0.00021350063
0.00020680475
0.00020024937
0.00019363763
0.00018717726
0.00018065543
0.00017429769
0.00016787042
0.00016162459
0.00015529807
0.00014916987
0.0001429529
0.00013695168
0.00013085127
0.00012498659
0.0001190115
0.0001132942
0.00010745313
0.00010189498
9.6198082e-05
9.081219e-05
8.5270409e-05
8.0070589e-05
7.469605e-05
6.9698626e-05
6.4504074e-05
5.9726694e-05
5.4727071e-05
5.0189473e-05
4.5400712e-05
4.1125458e-05
3.6566054e-05
3.2578e-05
2.8269088e-05
2.4596566e-05
2.0562734e-05
1.7235814e-05
1.3504872e-05
1.0541971e-05
7.1141947e-06
4.4153008e-06
1.0397612e-06
0.0087073693
0.0077484236
0.0059896851
0.0040028476
0.002522209
0.0017900067
0.001608711
0.0016377426
0.0016664606
0.0016420732
0.0015879163
0.0015348204
0.0014953753
0.0014680575
0.0014474205
0.0014295686
0.0014129105
0.0013971166
0.0013821965
0.0013681189
0.0013547774
0.0013420426
0.0013298039
0.001317976
0.0013064961
0.0012953141
0.0012843907
0.0012736924
0.0012631924
0.0012528675
0.001242699
0.0012326704
0.0012227681
0.00121298
0.001203296
0.0011937069
0.001184205
0.001174783
0.0011654351
0.0011561556
0.0011469399
0.0011377833
0.0011286824
0.0011196331
0.001110633
0.0011016787
0.0010927682
0.0010838985
0.0010750682
0.0010662744
0.0010575158
0.0010487899
0.0010400956
0.0010314305
0.0010227938
0.0010141835
0.0010055994
0.00099703985
0.00098850499
0.00097999315
0.00097150455
0.00096303708
0.00095459079
0.00094616349
0.0009377556
0.00092936539
0.00092099397
0.0009126397
0.00090430382
0.00089598389
0.00088768101
0.00087939236
0.00087111981
0.00086286095
0.00085461843
0.00084638933
0.00083817611
0.0008299748
0.00082178848
0.00081361338
0.00080545361
0.00079730506
0.00078917192
0.00078104869
0.00077294034
0.0007648414
0.00075675785
0.00074868374
0.00074062505
0.00073257471
0.00072453975
0.00071651287
0.00070850226
0.00070049923
0.00069251254
0.00068453258
0.00067656955
0.00066861327
0.00066067459
0.00065274187
0.00064482703
0.00063691775
0.00062902749
0.00062114234
0.00061327685
0.0006054155
0.00059757499
0.00058973838
0.00058192368
0.00057411206
0.00056632371
0.00055853751
0.0005507763
0.00054301715
0.00053528326
0.0005275509
0.00051984644
0.0005121413
0.00050446645
0.00049679073
0.0004891456
0.0004815
0.00047388679
0.00046627159
0.00045869149
0.00045110813
0.00044356288
0.00043601245
0.00042850335
0.0004209878
0.00041351667
0.00040603812
0.00039860763
0.00039116864
0.00038378163
0.00037638483
0.00036904351
0.00036169
0.0003543951
0.00034708464
0.00033983638
0.00033257059
0.0003253731
0.00031815723
0.00031101606
0.00030385354
0.00029677035
0.00028966137
0.00028263814
0.00027558715
0.00026862995
0.00026164157
0.00025475372
0.00024782953
0.00024101511
0.00023416061
0.00022742546
0.00022064492
0.00021399323
0.00020729065
0.00020072938
0.00019411107
0.00018764484
0.00018111644
0.00017475305
0.00016831927
0.00016206758
0.00015573478
0.00014960062
0.00014337738
0.0001373701
0.00013126342
0.00012539246
0.00011941116
0.00011368722
0.00010783996
0.00010227473
9.6571688e-05
9.1178059e-05
8.5630204e-05
8.0421768e-05
7.5041358e-05
7.0034021e-05
6.483396e-05
6.0044922e-05
5.5040301e-05
5.0488688e-05
4.5695769e-05
4.1403044e-05
3.6841013e-05
3.2830371e-05
2.8521233e-05
2.4818612e-05
2.0787856e-05
1.7419404e-05
1.3693721e-05
1.0669228e-05
7.2363154e-06
4.439827e-06
1.0345092e-06
0.0083324315
0.0074635765
0.005951048
0.0041816807
0.0027672602
0.001986641
0.0017324644
0.0017190159
0.0017343395
0.0017067985
0.0016477959
0.0015866903
0.0015390341
0.0015053415
0.0014802893
0.0014592435
0.00143997
0.0014218544
0.0014048519
0.0013889378
0.0013739959
0.0013598654
0.0013463988
0.0013334797
0.0013210223
0.0013089601
0.001297241
0.0012858207
0.0012746633
0.0012637375
0.001253018
0.0012424823
0.0012321123
0.0012218913
0.0012118059
0.0012018433
0.0011919936
0.0011822466
0.0011725948
0.0011630302
0.0011535469
0.0011441385
0.0011348004
0.0011255273
0.0011163157
0.0011071613
0.0010980613
0.0010890118
0.0010800107
0.0010710546
0.0010621417
0.0010532687
0.0010444342
0.0010356352
0.0010268709
0.0010181384
0.0010094376
0.0010007662
0.00099212436
0.00098350983
0.00097492288
0.00096636086
0.00095782395
0.00094930941
0.00094081784
0.00093234698
0.00092389815
0.00091546915
0.00090706146
0.00089867213
0.00089030251
0.00088194932
0.00087361472
0.00086529579
0.00085699544
0.00084871026
0.00084044303
0.00083218929
0.0008239525
0.00081572841
0.00080752144
0.00079932697
0.00079114954
0.0007829832
0.00077483331
0.00076669392
0.0007585714
0.00075045926
0.00074236389
0.00073427773
0.00072620826
0.00071814766
0.00071010454
0.00070206968
0.0006940523
0.00068604231
0.00067805036
0.00067006572
0.00066209972
0.00065414015
0.00064619948
0.00063826479
0.00063035009
0.00062244084
0.0006145522
0.00060666801
0.0005988056
0.00059094735
0.00058311187
0.00057527966
0.00056747162
0.00055966591
0.00055188599
0.00054410826
0.00053635664
0.00052860652
0.00052088521
0.00051316327
0.0005054723
0.00049778056
0.00049012023
0.00048245924
0.00047483159
0.00046720174
0.00045960786
0.00045201052
0.00044445216
0.00043688839
0.00042936674
0.00042183847
0.00041435538
0.00040686462
0.0003994227
0.00039197201
0.00038457405
0.00037716597
0.00036981416
0.00036244977
0.00035514481
0.00034782394
0.00034056611
0.00033329037
0.00032608379