/*--------------------------------*- C++ -*----------------------------------*\
| =========                 |                                                 |
| \\      /  F ield         | OpenFOAM: The Open Source CFD Toolbox           |
|  \\    /   O peration     | Version:  5.x                                   |
|   \\  /    A nd           | Web:      www.OpenFOAM.org                      |
|    \\/     M anipulation  |                                                 |
\*---------------------------------------------------------------------------*/
FoamFile
{
    version     2.0;
    format      ascii;
    class       surfaceScalarField;
    location    "0.7";
    object      phi;
}
// * * * * * * * * * * * * * * * * * * * * * * * * * * * * * * * * * * * * * //

dimensions      [0 3 -1 0 0 0 0];

internalField   nonuniform List<scalar> 
42870
(
2.9770576e-08
9.9456544e-09
-3.9716231e-08
2.0561012e-08
9.2095643e-09
1.4207213e-08
6.3537995e-09
1.0639484e-08
3.5677284e-09
8.8228563e-09
1.8166279e-09
7.8252118e-09
9.976445e-10
7.1956364e-09
6.2957536e-10
6.7342431e-09
4.6139337e-10
6.3576416e-09
3.7660144e-10
6.0343529e-09
3.2328867e-10
5.7524745e-09
2.8187844e-10
5.505642e-09
2.4683254e-10
5.2884221e-09
2.1721991e-10
5.0958051e-09
1.9261699e-10
4.9235013e-09
1.7230374e-10
4.7680663e-09
1.5543499e-10
4.6268156e-09
1.4125074e-10
4.497658e-09
1.2915764e-10
4.3789366e-09
1.1872141e-10
4.2693103e-09
1.0962625e-10
4.1676723e-09
1.0163797e-10
4.0730965e-09
9.4575819e-11
3.9847994e-09
8.8297101e-11
3.9021137e-09
8.2685719e-11
3.8244666e-09
7.7647106e-11
3.7513644e-09
7.310217e-11
3.6823785e-09
6.8985929e-11
3.6171354e-09
6.5243093e-11
3.5553073e-09
6.1828101e-11
3.4966059e-09
5.8701398e-11
3.4407755e-09
5.5830375e-11
3.3875895e-09
5.318604e-11
3.3368449e-09
5.074457e-11
3.2883607e-09
4.8484196e-11
3.2419736e-09
4.6387194e-11
3.1975367e-09
4.4436852e-11
3.1549169e-09
4.2619794e-11
3.113994e-09
4.0922951e-11
3.0746579e-09
3.9336097e-11
3.036809e-09
3.7848827e-11
3.0003558e-09
3.6453252e-11
2.9652148e-09
3.5140966e-11
2.931309e-09
3.3905829e-11
2.898568e-09
3.2740954e-11
2.8669265e-09
3.1641532e-11
2.8363247e-09
3.0601849e-11
2.8067065e-09
2.9618116e-11
2.778021e-09
2.8685544e-11
2.7502199e-09
2.7801126e-11
2.723259e-09
2.6960809e-11
2.6970968e-09
2.6162197e-11
2.671695e-09
2.5401836e-11
2.6470172e-09
2.4677799e-11
2.6230301e-09
2.3987133e-11
2.5997018e-09
2.3328261e-11
2.5770032e-09
2.269866e-11
2.5549062e-09
2.2097013e-11
2.533385e-09
2.1521176e-11
2.512415e-09
2.0970013e-11
2.4919732e-09
2.0441725e-11
2.4720379e-09
1.9935299e-11
2.4525887e-09
1.944925e-11
2.433606e-09
1.8982634e-11
2.4150718e-09
1.8534259e-11
2.3969686e-09
1.8103191e-11
2.3792801e-09
1.7688528e-11
2.3619908e-09
1.72893e-11
2.3450859e-09
1.6904905e-11
2.3285516e-09
1.6534299e-11
2.3123744e-09
1.6177192e-11
2.296542e-09
1.5832417e-11
2.281042e-09
1.5499994e-11
2.2658634e-09
1.5178576e-11
2.2509949e-09
1.4868512e-11
2.2364266e-09
1.4568248e-11
2.2221481e-09
1.4278506e-11
2.2081506e-09
1.3997486e-11
2.1944243e-09
1.3726304e-11
2.1809615e-09
1.3462837e-11
2.1677529e-09
1.32086e-11
2.1547918e-09
1.2961127e-11
2.1420694e-09
1.2722401e-11
2.1295798e-09
1.2489566e-11
2.1173147e-09
1.2265124e-11
2.1052689e-09
1.2045735e-11
2.0934345e-09
1.1834426e-11
2.0818072e-09
1.1627346e-11
2.070379e-09
1.1428137e-11
2.0591466e-09
1.1232389e-11
2.0481022e-09
1.1044407e-11
2.0372431e-09
1.085911e-11
2.0265616e-09
1.0681514e-11
2.0160558e-09
1.0505819e-11
2.0057179e-09
1.0337869e-11
1.9955469e-09
1.0171067e-11
1.9855348e-09
1.0012118e-11
1.9756812e-09
9.8535192e-12
1.9659783e-09
9.702938e-12
1.9564264e-09
9.5519133e-12
1.9470172e-09
9.4091836e-12
1.937752e-09
9.2651876e-12
1.9286222e-09
9.129807e-12
1.9196299e-09
8.9922839e-12
1.9107661e-09
8.8638019e-12
1.9020338e-09
8.7322931e-12
1.8934235e-09
8.6103324e-12
1.8849391e-09
8.4843729e-12
1.8765706e-09
8.3685328e-12
1.8683229e-09
8.247704e-12
1.8601852e-09
8.1376928e-12
1.8521636e-09
8.0216029e-12
1.8442465e-09
7.9171177e-12
1.8364411e-09
7.8053973e-12
1.8287349e-09
7.7061334e-12
1.8211365e-09
7.5984709e-12
1.8136322e-09
7.5042486e-12
1.806232e-09
7.4002272e-12
1.7989211e-09
7.3108433e-12
1.7917109e-09
7.2102291e-12
1.7845855e-09
7.1254205e-12
1.7775576e-09
7.0279333e-12
1.77061e-09
6.9475799e-12
1.7637571e-09
6.8528593e-12
1.7569803e-09
6.7768586e-12
1.7502956e-09
6.6846598e-12
1.7436828e-09
6.6128562e-12
1.7371598e-09
6.522895e-12
1.7307046e-09
6.4552257e-12
1.7243374e-09
6.3672471e-12
1.7180338e-09
6.3036054e-12
1.7118164e-09
6.2173517e-12
1.7056587e-09
6.1576972e-12
1.6995858e-09
6.072908e-12
1.6935686e-09
6.0172062e-12
1.687635e-09
5.9336187e-12
1.6817531e-09
5.8818487e-12
1.6759539e-09
5.7992142e-12
1.6702025e-09
5.7513926e-12
1.6645331e-09
5.6694243e-12
1.6589075e-09
5.6255868e-12
1.6533635e-09
5.544042e-12
1.6478592e-09
5.5042516e-12
1.6424364e-09
5.4228359e-12
1.6370492e-09
5.387176e-12
1.6317436e-09
5.3055961e-12
1.6264695e-09
5.2741561e-12
1.6212774e-09
5.1920998e-12
1.6161123e-09
5.1650411e-12
1.6110301e-09
5.0822132e-12
1.6059704e-09
5.0597117e-12
1.6009946e-09
4.9757704e-12
1.5960366e-09
4.957994e-12
1.5911641e-09
4.8725752e-12
1.5863043e-09
4.8597921e-12
1.5815317e-09
4.772529e-12
1.5767667e-09
4.765e-12
1.5720913e-09
4.675487e-12
1.5674177e-09
4.6735261e-12
1.5628364e-09
4.581305e-12
1.5582511e-09
4.5853106e-12
1.5537612e-09
4.4899308e-12
1.5492609e-09
4.5002999e-12
1.5448597e-09
4.4012214e-12
1.5404412e-09
4.4184475e-12
1.5361261e-09
4.315096e-12
1.5317864e-09
4.3397397e-12
1.5275549e-09
4.2314848e-12
1.5232907e-09
4.2642023e-12
1.5191403e-09
4.1503699e-12
1.5149484e-09
4.1918839e-12
1.5108768e-09
4.0716579e-12
1.506754e-09
4.1228057e-12
1.5027586e-09
3.9953425e-12
1.4987015e-09
4.0571137e-12
1.4947801e-09
3.9214192e-12
1.4907852e-09
3.9949131e-12
1.4869353e-09
3.8498621e-12
1.4829989e-09
3.9363871e-12
1.4792182e-09
3.7807317e-12
1.4753364e-09
3.8818199e-12
1.4716223e-09
3.7140723e-12
1.4677908e-09
3.8315216e-12
1.4641408e-09
3.6499847e-12
1.4603549e-09
3.7859128e-12
1.4567663e-09
3.5885806e-12
1.4530207e-09
3.745568e-12
1.4494907e-09
3.5300605e-12
1.4457794e-09
3.7112672e-12
1.4423048e-09
3.4746437e-12
1.4386207e-09
3.6840481e-12
1.435198e-09
3.4226861e-12
1.4315326e-09
3.6654374e-12
1.428158e-09
3.3746139e-12
1.4245002e-09
3.6578098e-12
1.4211691e-09
3.3310429e-12
1.4175036e-09
3.6654833e-12
1.4142102e-09
3.2934638e-12
1.4105088e-09
3.7013951e-12
1.407235e-09
3.2738316e-12
4.1664566e-12
4.1944542e-08
1.0465743e-08
-4.2464631e-08
3.8698286e-08
1.245582e-08
3.4615636e-08
1.0436449e-08
3.0799641e-08
7.3837239e-09
2.7651746e-08
4.9645222e-09
2.5118414e-08
3.5309769e-09
2.3094228e-08
2.6537614e-09
2.1480387e-08
2.0752337e-09
2.0180197e-08
1.6767923e-09
1.9107573e-08
1.3959122e-09
1.8199327e-08
1.190125e-09
1.7414144e-08
1.0320151e-09
1.6725132e-08
9.0623168e-10
1.6113773e-08
8.0397635e-10
1.5566426e-08
7.1965103e-10
1.5072585e-08
6.4927584e-10
1.4623983e-08
5.8985274e-10
1.4214035e-08
5.3910566e-10
1.3837436e-08
4.9532028e-10
1.3489861e-08
4.5720096e-10
1.316774e-08
4.237592e-10
1.2868093e-08
3.9422317e-10
1.2588407e-08
3.679823e-10
1.2326551e-08
3.4454243e-10
1.2080695e-08
3.2350264e-10
1.1849267e-08
3.0452991e-10
1.1630903e-08
2.8735074e-10
1.1424412e-08
2.7173363e-10
1.1228753e-08
2.5748719e-10
1.1043008e-08
2.4444616e-10
1.0866365e-08
2.3247348e-10
1.0698103e-08
2.2144821e-10
1.0537577e-08
2.1127008e-10
1.0384213e-08
2.0184848e-10
1.0237492e-08
1.931087e-10
1.0096947e-08
1.8498135e-10
9.962157e-09
1.7740997e-10
9.8327395e-09
1.703404e-10
9.7083462e-09
1.6372943e-10
9.588661e-09
1.5753405e-10
9.4733934e-09
1.5172087e-10
9.3622791e-09
1.4625518e-10
9.255074e-09
1.4111097e-10
9.1515551e-09
1.3625983e-10
9.0515152e-09
1.316814e-10
8.954765e-09
1.2735208e-10
8.8611273e-09
1.2325585e-10
8.7704399e-09
1.1937288e-10
8.6825505e-09
1.1569055e-10
8.5973193e-09
1.1219196e-10
8.5146143e-09
1.0886718e-10
8.4343145e-09
1.0570166e-10
8.3563047e-09
1.0268759e-10
8.2804795e-09
9.981234e-11
8.206738e-09
9.7069747e-11
8.1349879e-09
9.4448783e-11
8.0651404e-09
9.194459e-11
7.9971141e-09
8.9547476e-11
7.9308304e-09
8.725361e-11
7.8662177e-09
8.5054449e-11
7.803206e-09
8.2946962e-11
7.7417317e-09
8.0923603e-11
7.6817324e-09
7.8981944e-11
7.6231513e-09
7.7115326e-11
7.5659328e-09
7.5321749e-11
7.5100259e-09
7.3595374e-11
7.4553807e-09
7.1934486e-11
7.4019516e-09
7.0334038e-11
7.3496934e-09
6.8792461e-11
7.2985651e-09
6.7305482e-11
7.248526e-09
6.5871543e-11
7.1995389e-09
6.4487117e-11
7.151567e-09
6.3150531e-11
7.1045765e-09
6.1859018e-11
7.058534e-09
6.0610703e-11
7.0134089e-09
5.9403633e-11
6.9691707e-09
5.8235614e-11
6.9257915e-09
5.7105534e-11
6.8832436e-09
5.6010727e-11
6.8415013e-09
5.4950947e-11
6.8005394e-09
5.3922975e-11
6.7603343e-09
5.2927545e-11
6.7208631e-09
5.1960777e-11
6.6821037e-09
5.1024461e-11
6.6440356e-09
5.0113873e-11
6.6066381e-09
4.9231906e-11
6.5698926e-09
4.8372896e-11
6.5337797e-09
4.7541001e-11
6.4982826e-09
4.6729495e-11
6.4633831e-09
4.5943898e-11
6.429066e-09
4.5176219e-11
6.3953141e-09
4.4433448e-11
6.3621137e-09
4.37062e-11
6.3294484e-09
4.3003143e-11
6.2973062e-09
4.2313314e-11
6.2656711e-09
4.1647176e-11
6.2345326e-09
4.099198e-11
6.2038754e-09
4.0360179e-11
6.1736902e-09
3.9737076e-11
6.1439621e-09
3.9137327e-11
6.1146832e-09
3.854402e-11
6.0858388e-09
3.797421e-11
6.0574226e-09
3.7408544e-11
6.0294196e-09
3.6866757e-11
6.0018251e-09
3.6326806e-11
5.9746241e-09
3.5811322e-11
5.9478133e-09
3.5295253e-11
5.9213773e-09
3.4804453e-11
5.8953144e-09
3.4310605e-11
5.869609e-09
3.3843088e-11
5.8442607e-09
3.3369905e-11
5.8192535e-09
3.2924338e-11
5.7945885e-09
3.2470376e-11
5.7702491e-09
3.2045539e-11
5.7462381e-09
3.1609482e-11
5.722538e-09
3.1204343e-11
5.6991534e-09
3.0784844e-11
5.6760658e-09
3.0398412e-11
5.6532817e-09
2.9994374e-11
5.6307814e-09
2.962569e-11
5.6085734e-09
2.923598e-11
5.5866367e-09
2.8884292e-11
5.5649817e-09
2.8507788e-11
5.5435862e-09
2.8172396e-11
5.5224627e-09
2.7808136e-11
5.5015872e-09
2.7488346e-11
5.4809748e-09
2.7135353e-11
5.4605994e-09
2.6830635e-11
5.4404786e-09
2.6487988e-11
5.4205844e-09
2.6197808e-11
5.4009372e-09
2.5864613e-11
5.3815063e-09
2.558856e-11
5.3623153e-09
2.526395e-11
5.3433308e-09
2.500165e-11
5.3245797e-09
2.4684777e-11
5.3060256e-09
2.4435922e-11
5.2876988e-09
2.412597e-11
5.2695599e-09
2.3890329e-11
5.2516429e-09
2.3586455e-11
5.2339046e-09
2.3363864e-11
5.2163833e-09
2.3065292e-11
5.1990319e-09
2.2855669e-11
5.1818932e-09
2.2561569e-11
5.1649155e-09
2.236488e-11
5.1481467e-09
2.207441e-11
5.1315302e-09
2.1890658e-11
5.1151193e-09
2.1602966e-11
5.098852e-09
2.1432318e-11
5.0827876e-09
2.11466e-11
5.0668581e-09
2.0989268e-11
5.0511292e-09
2.0704623e-11
5.0355264e-09
2.056083e-11
5.0201226e-09
2.0276337e-11
5.0048359e-09
2.0146485e-11
4.9897472e-09
1.986124e-11
4.9747664e-09
1.9745776e-11
4.9599832e-09
1.9458769e-11
4.9452984e-09
1.9358247e-11
4.9308113e-09
1.9068419e-11
4.9164131e-09
1.8983579e-11
4.9022131e-09
1.8689862e-11
4.888092e-09
1.8621466e-11
4.8741705e-09
1.8322637e-11
4.8603173e-09
1.8271644e-11
4.846666e-09
1.7966422e-11
4.8330718e-09
1.7933952e-11
4.8196823e-09
1.7620977e-11
4.8063382e-09
1.7608363e-11
4.7932024e-09
1.7286176e-11
4.7800993e-09
1.7294899e-11
4.7672092e-09
1.6961792e-11
4.7543384e-09
1.699357e-11
4.741686e-09
1.6647812e-11
4.7290384e-09
1.6704697e-11
4.7166155e-09
1.634428e-11
4.7041819e-09
1.6428545e-11
4.6919805e-09
1.605124e-11
4.6797513e-09
1.6165612e-11
4.667763e-09
1.5769013e-11
4.6557282e-09
1.5916649e-11
4.6439443e-09
1.5497971e-11
4.6320933e-09
1.568254e-11
4.6205045e-09
1.5238712e-11
4.608826e-09
1.5464486e-11
4.5974226e-09
1.4991996e-11
4.585904e-09
1.5264122e-11
4.5746751e-09
1.4759012e-11
4.5633027e-09
1.5083593e-11
4.5522361e-09
1.4541318e-11
4.5409944e-09
1.4925716e-11
4.5300758e-09
1.4341269e-11
4.5189468e-09
1.4794456e-11
4.5081591e-09
1.4162342e-11
4.4971214e-09
1.4695442e-11
4.486442e-09
1.4010436e-11
4.4754697e-09
1.4637833e-11
4.4648646e-09
1.389859e-11
4.4539132e-09
1.4652761e-11
4.4432922e-09
1.3894804e-11
1.5615358e-11
4.4985368e-08
9.376033e-09
-4.3895658e-08
4.4926092e-08
1.2515097e-08
4.3804123e-08
1.1558418e-08
4.2100691e-08
9.0871562e-09
4.0236512e-08
6.8287013e-09
3.8381108e-08
5.3863805e-09
3.6586055e-08
4.4488149e-09
3.4904382e-08
3.7569062e-09
3.3367632e-08
3.2135428e-09
3.1978169e-08
2.7853749e-09
3.0723447e-08
2.4448477e-09
2.9588191e-08
2.1672711e-09
2.8558396e-08
1.9360258e-09
2.7621718e-08
1.7406543e-09
2.6767085e-08
1.5742849e-09
2.5984554e-08
1.4318063e-09
2.5265339e-08
1.3090678e-09
2.4601804e-08
1.2026402e-09
2.3987391e-08
1.1097334e-09
2.3416495e-08
1.0280977e-09
2.2884322e-08
9.5593166e-10
2.2386767e-08
8.9177786e-10
2.1920294e-08
8.3445609e-10
2.1481842e-08
7.8299434e-10
2.106875e-08
7.3659429e-10
2.0678695e-08
6.9458533e-10
2.0309634e-08
6.5641169e-10
1.9959769e-08
6.2159835e-10
1.9627507e-08
5.8974941e-10
1.9311433e-08
5.6052014e-10
1.9010284e-08
5.3362266e-10
1.8722931e-08
5.0880111e-10
1.8448359e-08
4.8584226e-10
1.8185655e-08
4.645522e-10
1.7933993e-08
4.4477049e-10
1.7692627e-08
4.2634725e-10
1.7460877e-08
4.0916021e-10
1.7238126e-08
3.9309155e-10
1.7023808e-08
3.7804705e-10
1.681741e-08
3.6393252e-10
1.6618456e-08
3.5067475e-10
1.6426514e-08
3.3819729e-10
1.6241182e-08
3.264429e-10
1.6062093e-08
3.153486e-10
1.5888905e-08
3.0486947e-10
1.5721304e-08
2.9495287e-10
1.5558996e-08
2.855635e-10
1.5401713e-08
2.7665677e-10
1.5249198e-08
2.6820496e-10
1.510122e-08
2.6016981e-10
1.4957558e-08
2.5252962e-10
1.4818008e-08
2.4525116e-10
1.4682378e-08
2.383176e-10
1.4550491e-08
2.3169973e-10
1.4422176e-08
2.2538462e-10
1.4297279e-08
2.1934636e-10
1.4175648e-08
2.135752e-10
1.4057147e-08
2.0804789e-10
1.3941644e-08
2.027573e-10
1.3829016e-08
1.9768243e-10
1.3719145e-08
1.9281823e-10
1.3611923e-08
1.8814561e-10
1.3507243e-08
1.8366124e-10
1.3405011e-08
1.7934762e-10
1.330513e-08
1.7520281e-10
1.3207515e-08
1.7121072e-10
1.3112078e-08
1.6737052e-10
1.3018745e-08
1.6366739e-10
1.2927436e-08
1.6010136e-10
1.2838083e-08
1.5665879e-10
1.2750614e-08
1.5334031e-10
1.2664968e-08
1.5013336e-10
1.2581079e-08
1.4703898e-10
1.2498893e-08
1.4404567e-10
1.2418349e-08
1.4115471e-10
1.2339397e-08
1.3835565e-10
1.2261983e-08
1.3564986e-10
1.218606e-08
1.3302795e-10
1.211158e-08
1.3049112e-10
1.20385e-08
1.2803103e-10
1.1966774e-08
1.2564863e-10
1.1896365e-08
1.2333674e-10
1.182723e-08
1.2109586e-10
1.1759334e-08
1.1892008e-10
1.1692639e-08
1.1680918e-10
1.1627112e-08
1.1475857e-10
1.1562718e-08
1.1276718e-10
1.1499427e-08
1.108319e-10
1.1437206e-08
1.0895068e-10
1.1376028e-08
1.0712198e-10
1.1315861e-08
1.0534248e-10
1.1256683e-08
1.0361235e-10
1.1198462e-08
1.0192685e-10
1.1141177e-08
1.0028811e-10
1.1084801e-08
9.8689674e-11
1.1029312e-08
9.7135797e-11
1.0974686e-08
9.5618082e-11
1.0920903e-08
9.4143118e-11
1.086794e-08
9.2700332e-11
1.0815778e-08
9.1298921e-11
1.0764396e-08
8.9925794e-11
1.0713777e-08
8.8593016e-11
1.0663901e-08
8.7284683e-11
1.0614752e-08
8.6016062e-11
1.0566311e-08
8.4768104e-11
1.0518562e-08
8.3559564e-11
1.047149e-08
8.2367855e-11
1.0425079e-08
8.1215629e-11
1.0379313e-08
8.0076404e-11
1.0334179e-08
7.897712e-11
1.0289662e-08
7.7886873e-11
1.0245749e-08
7.6837373e-11
1.0202426e-08
7.5792867e-11
1.0159682e-08
7.4790273e-11
1.0117503e-08
7.3788525e-11
1.0075877e-08
7.2830262e-11
1.0034793e-08
7.1868387e-11
9.9942395e-09
7.0952038e-11
9.9542064e-09
7.0027511e-11
9.9146812e-09
6.915082e-11
9.8756561e-09
6.8261145e-11
9.8371182e-09
6.7422165e-11
9.799061e-09
6.6564988e-11
9.7614715e-09
6.576189e-11
9.7243445e-09
6.4935093e-11
9.6876667e-09
6.4166156e-11
9.6514344e-09
6.336767e-11
9.6156336e-09
6.2631423e-11
9.5802623e-09
6.1859301e-11
9.5453058e-09
6.1154334e-11
9.5107637e-09
6.0406715e-11
9.4766204e-09
5.9731825e-11
9.4428775e-09
5.9006933e-11
9.4095181e-09
5.8361001e-11
9.3765457e-09
5.7657135e-11
9.3439425e-09
5.703918e-11
9.3117137e-09
5.6354713e-11
9.2798402e-09
5.5763878e-11
9.2483294e-09
5.5097196e-11
9.2171605e-09
5.4532761e-11
9.1863435e-09
5.3882363e-11
9.1558554e-09
5.3343749e-11
9.1257089e-09
5.2708106e-11
9.0958789e-09
5.2194819e-11
9.0663809e-09
5.157241e-11
9.0371875e-09
5.1084036e-11
9.0083171e-09
5.0473357e-11
8.9797397e-09
5.0009733e-11
8.9514769e-09
4.9409391e-11
8.9234958e-09
4.8970435e-11
8.8958215e-09
4.837892e-11
8.8684177e-09
4.796458e-11
8.8413137e-09
4.7380395e-11
8.8144693e-09
4.6990872e-11
8.7879179e-09
4.6412582e-11
8.7616156e-09
4.6048166e-11
8.7356001e-09
4.5474204e-11
8.709823e-09
4.5135342e-11
8.6843273e-09
4.4564134e-11
8.6590593e-09
4.4251544e-11
8.6340677e-09
4.3681531e-11
8.6092932e-09
4.3395965e-11
8.5847904e-09
4.2825414e-11
8.5604941e-09
4.2567894e-11
8.5364655e-09
4.1995046e-11
8.5126327e-09
4.1766818e-11
8.4890638e-09
4.1189875e-11
8.4656796e-09
4.0992488e-11
8.4425562e-09
4.0409565e-11
8.4196064e-09
4.024475e-11
8.3969145e-09
3.9653699e-11
8.3743846e-09
3.9523486e-11
8.3521102e-09
3.8922236e-11
8.3299857e-09
3.8829109e-11
8.3081147e-09
3.8215303e-11
8.2863813e-09
3.8161986e-11
8.2648994e-09
3.7533124e-11
8.2435421e-09
3.7522918e-11
8.2224346e-09
3.6876451e-11
8.2014382e-09
3.6913143e-11
8.1806899e-09
3.624626e-11
8.1600382e-09
3.6334188e-11
8.1396329e-09
3.5644035e-11
8.1193092e-09
3.5788148e-11
8.0992295e-09
3.5071744e-11
8.0792157e-09
3.5277877e-11
8.0594424e-09
3.4532344e-11
8.0397189e-09
3.4807087e-11
8.0202304e-09
3.402984e-11
8.0007755e-09
3.4380598e-11
7.9815466e-09
3.3570179e-11
7.962336e-09
3.4005053e-11
7.9433361e-09
3.3162237e-11
7.9243419e-09
3.3689619e-11
7.9055319e-09
3.2820427e-11
7.8867199e-09
3.3449887e-11
7.8680475e-09
3.2570953e-11
7.8493454e-09
3.33549e-11
7.8307186e-09
3.2521561e-11
3.4652839e-11
4.6708251e-08
8.4205564e-09
-4.5752774e-08
4.7419009e-08
1.1804339e-08
4.756055e-08
1.1416877e-08
4.7200946e-08
9.44676e-09
4.6552809e-08
7.4768384e-09
4.5745312e-08
6.1938782e-09
4.4815534e-08
5.3785924e-09
4.3808903e-08
4.7635368e-09
4.2773356e-08
4.2490897e-09
4.1740406e-08
3.818325e-09
4.0725726e-08
3.4595285e-09
3.9737667e-08
3.1553298e-09
3.8782216e-08
2.8914771e-09
3.7863822e-08
2.6590477e-09
3.6985263e-08
2.4528438e-09
3.6147709e-08
2.2693605e-09
3.5351055e-08
2.1057222e-09
3.4594317e-08
1.9593782e-09
3.3875956e-08
1.8280947e-09
3.3194113e-08
1.7099401e-09
3.254677e-08
1.6032745e-09
3.1931859e-08
1.5066891e-09
3.1347331e-08
1.4189845e-09
3.0791206e-08
1.3391188e-09
3.02616e-08
1.2662005e-09
2.975674e-08
1.1994451e-09
2.9274969e-08
1.1381824e-09
2.8814751e-08
1.0818163e-09
2.8374661e-08
1.0298395e-09
2.7953387e-08
9.8179487e-10
2.7549714e-08
9.3729561e-10
2.7162528e-08
8.9598722e-10
2.6790797e-08
8.5757252e-10
2.6433576e-08
8.2177316e-10
2.6089988e-08
7.8835894e-10
2.5759227e-08
7.5710836e-10
2.5440545e-08
7.2784195e-10
2.5133255e-08
7.0038117e-10
2.4836717e-08
6.7458521e-10
2.4550342e-08
6.503082e-10
2.4273577e-08
6.2743919e-10
2.4005917e-08
6.0585745e-10
2.3746885e-08
5.8547533e-10
2.3496042e-08
5.6619159e-10
2.3252974e-08
5.4793698e-10
2.3017301e-08
5.3062548e-10
2.2788662e-08
5.1420253e-10
2.2566725e-08
4.9859406e-10
2.2351173e-08
4.8375734e-10
2.2141715e-08
4.6962778e-10
2.1938072e-08
4.5617228e-10
2.1739989e-08
4.433338e-10
2.154722e-08
4.3108715e-10
2.1359538e-08
4.1938134e-10
2.1176725e-08
4.0819768e-10
2.0998581e-08
3.9749011e-10
2.0824911e-08
3.8724535e-10
2.0655538e-08
3.7742132e-10
2.0490286e-08
3.6800929e-10
2.0328998e-08
3.5897043e-10
2.0171516e-08
3.5029985e-10
2.0017701e-08
3.4196138e-10
1.9867408e-08
3.3395339e-10
1.9720514e-08
3.2624188e-10
1.9576889e-08
3.1882799e-10
1.943642e-08
3.1167956e-10
1.9298991e-08
3.048001e-10
1.9164499e-08
2.9815899e-10
1.9032839e-08
2.9176177e-10
1.8903918e-08
2.8557915e-10
1.877764e-08
2.7961835e-10
1.8653922e-08
2.7385121e-10
1.8532675e-08
2.6828637e-10
1.8413824e-08
2.6289671e-10
1.8297287e-08
2.5769203e-10
1.8182996e-08
2.5264621e-10
1.8070876e-08
2.4777003e-10
1.7960866e-08
2.4303822e-10
1.7852894e-08
2.384623e-10
1.7746908e-08
2.3401783e-10
1.7642839e-08
2.2971686e-10
1.754064e-08
2.2553589e-10
1.7440249e-08
2.2148733e-10
1.734162e-08
2.1754859e-10
1.7244697e-08
2.137322e-10
1.7149439e-08
2.1001651e-10
1.7055792e-08
2.0641397e-10
1.696372e-08
2.0290402e-10
1.6873172e-08
1.9949889e-10
1.6784115e-08
1.9617917e-10
1.6696501e-08
1.9295658e-10
1.66103e-08
1.8981298e-10
1.6525468e-08
1.8675938e-10
1.6441977e-08
1.8377911e-10
1.6359784e-08
1.8088225e-10
1.6278866e-08
1.7805373e-10
1.6199182e-08
1.7530242e-10
1.612071e-08
1.7261507e-10
1.6043411e-08
1.699991e-10
1.5967267e-08
1.6744332e-10
1.5892239e-08
1.6495338e-10
1.5818312e-08
1.6252037e-10
1.5745449e-08
1.6014788e-10
1.5673635e-08
1.5782962e-10
1.5602836e-08
1.5556676e-10
1.553304e-08
1.5335588e-10
1.5464212e-08
1.511954e-10
1.5396343e-08
1.4908514e-10
1.5329399e-08
1.4702038e-10
1.5263372e-08
1.450046e-10
1.5198229e-08
1.4302939e-10
1.5133964e-08
1.4110237e-10
1.5070546e-08
1.3921102e-10
1.5007969e-08
1.3736751e-10
1.4946202e-08
1.3555477e-10
1.4885243e-08
1.3379001e-10
1.482506e-08
1.3205088e-10
1.4765652e-08
1.3036041e-10
1.4706989e-08
1.2869044e-10
1.464907e-08
1.2707012e-10
1.4591866e-08
1.2546496e-10
1.4535377e-08
1.2391112e-10
1.4479575e-08
1.2236674e-10
1.4424461e-08
1.2087589e-10
1.4370007e-08
1.1938862e-10
1.4316216e-08
1.1795754e-10
1.426306e-08
1.1652384e-10
1.4210542e-08
1.1514965e-10
1.4158635e-08
1.1376621e-10
1.4107343e-08
1.1244617e-10
1.405664e-08
1.1110986e-10
1.400653e-08
1.0984154e-10
1.3956988e-08
1.085494e-10
1.3908018e-08
1.0733053e-10
1.3859595e-08
1.0607975e-10
1.3811726e-08
1.0490828e-10
1.3764385e-08
1.0369621e-10
1.3717578e-08
1.0257027e-10
1.3671281e-08
1.0139432e-10
1.3625502e-08
1.0031226e-10
1.3580214e-08
9.917003e-11
1.3535428e-08
9.8130401e-11
1.3491116e-08
9.7019524e-11
1.344729e-08
9.6021011e-11
1.3403923e-08
9.4939174e-11
1.3361027e-08
9.3980587e-11
1.3318574e-08
9.2925549e-11
1.3276578e-08
9.200603e-11
1.3235012e-08
9.0975743e-11
1.3193888e-08
9.0094556e-11
1.315318e-08
8.9086879e-11
1.3112901e-08
8.8243329e-11
1.3073025e-08
8.7256191e-11
1.3033566e-08
8.6449906e-11
1.2994497e-08
8.5481376e-11
1.2955833e-08
8.4712108e-11
1.2917547e-08
8.3760135e-11
1.2879655e-08
8.3027823e-11
1.2842129e-08
8.2090434e-11
1.2804985e-08
8.139536e-11
1.2768196e-08
8.0470657e-11
1.2731779e-08
7.9813133e-11
1.2695705e-08
7.8899083e-11
1.2659993e-08
7.8279736e-11
1.2624614e-08
7.7374365e-11
1.2589586e-08
7.6794066e-11
1.2554881e-08
7.5895461e-11
1.2520518e-08
7.535544e-11
1.2486466e-08
7.4461683e-11
1.2452747e-08
7.3963343e-11
1.2419329e-08
7.3072335e-11
1.2386235e-08
7.2617372e-11
1.235343e-08
7.1727272e-11
1.2320941e-08
7.1317896e-11
1.2288729e-08
7.0426695e-11
1.2256826e-08
7.0065279e-11
1.2225188e-08
6.9171042e-11
1.2193851e-08
6.8860547e-11
1.2162766e-08
6.796158e-11
1.2131973e-08
6.7705389e-11
1.2101419e-08
6.6800066e-11
1.2071152e-08
6.6601972e-11
1.2041107e-08
6.5689108e-11
1.2011341e-08
6.5553337e-11
1.1981781e-08
6.463224e-11
1.1952495e-08
6.4563674e-11
1.1923393e-08
6.3634656e-11
1.1894561e-08
6.3638471e-11
1.1865888e-08
6.2703409e-11
1.1837483e-08
6.2784975e-11
1.1809205e-08
6.184868e-11
1.1781197e-08
6.2013393e-11
1.1753274e-08
6.1085059e-11
1.1725625e-08
6.1338863e-11
1.1698011e-08
6.0433648e-11
1.167067e-08
6.0791354e-11
1.1643317e-08
5.992413e-11
1.1616169e-08
6.0502671e-11
1.1588996e-08
5.9694158e-11
6.189052e-11
4.8508661e-08
7.6800385e-09
-4.7768143e-08
4.9286577e-08
1.1026422e-08
4.9723589e-08
1.0979865e-08
4.9836314e-08
9.3340349e-09
4.9749694e-08
7.5634582e-09
4.9545029e-08
6.3985431e-09
4.923163e-08
5.6919919e-09
4.8820615e-08
5.174552e-09
4.8337943e-08
4.7317609e-09
4.7807226e-08
4.349042e-09
4.7241642e-08
4.0251123e-09
4.6648583e-08
3.7483888e-09
4.6034597e-08
3.5054636e-09
4.5406431e-08
3.2872137e-09
4.4770502e-08
3.0887728e-09
4.4132382e-08
2.9074806e-09
4.3496644e-08
2.7414597e-09
4.2866948e-08
2.5890744e-09
4.2246166e-08
2.4488768e-09
4.1636515e-08
2.3195912e-09
4.1039654e-08
2.2001352e-09
4.0456783e-08
2.0895607e-09
3.9888711e-08
1.9870558e-09
3.9335943e-08
1.8918877e-09
3.8798723e-08
1.8034205e-09
3.8277103e-08
1.7210642e-09
3.7770978e-08
1.6443076e-09
3.7280127e-08
1.5726678e-09
3.6804236e-08
1.5057304e-09
3.6342934e-08
1.4430969e-09
3.5895799e-08
1.3844304e-09
3.5462386e-08
1.3293999e-09
3.5042228e-08
1.2777313e-09
3.4634853e-08
1.2291483e-09
3.4239784e-08
1.1834275e-09
3.3856556e-08
1.1403366e-09
3.3484703e-08
1.0996943e-09
3.3123781e-08
1.0613037e-09
3.2773348e-08
1.0250178e-09
3.2432988e-08
9.9066852e-10
3.210229e-08
9.5813708e-10
3.1780869e-08
9.2727872e-10
3.1468346e-08
8.9799789e-10
3.1164369e-08
8.7016874e-10
3.0868591e-08
8.43715e-10
3.058069e-08
8.1852615e-10
3.0300351e-08
7.9454199e-10
3.0027281e-08
7.7166438e-10
2.9761191e-08
7.4984664e-10
2.9501818e-08
7.2900061e-10
2.92489e-08
7.0909104e-10
2.9002196e-08
6.9003788e-10
2.8761467e-08
6.718156e-10
2.8526498e-08
6.5435066e-10
2.829707e-08
6.3762586e-10
2.8072987e-08
6.2157296e-10
2.785405e-08
6.0618189e-10
2.7640083e-08
5.913887e-10
2.7430903e-08
5.7718956e-10
2.7226349e-08
5.6352389e-10
2.7026256e-08
5.5039335e-10
2.6830477e-08
5.3774003e-10
2.663886e-08
5.2557045e-10
2.6451273e-08
5.1382878e-10
2.6267575e-08
5.0252583e-10
2.6087647e-08
4.9160741e-10
2.5911359e-08
4.810882e-10
2.5738603e-08
4.7091525e-10
2.5569258e-08
4.6110673e-10
2.5403227e-08
4.5161059e-10
2.5240397e-08
4.4244813e-10
2.508068e-08
4.3356793e-10
2.4923972e-08
4.2499413e-10
2.4770193e-08
4.1667572e-10
2.4619246e-08
4.086395e-10
2.4471057e-08
4.0083471e-10
2.4325537e-08
3.9329057e-10
2.4182619e-08
3.8595639e-10
2.4042217e-08
3.7886358e-10
2.3904274e-08
3.7196138e-10
2.3768708e-08
3.6528324e-10
2.3635465e-08
3.5877834e-10
2.350447e-08
3.5248202e-10
2.3375676e-08
3.463433e-10
2.3249009e-08
3.4039919e-10
2.3124427e-08
3.3459848e-10
2.3001861e-08
3.2897972e-10
2.2881273e-08
3.2349154e-10
2.2762598e-08
3.1817389e-10
2.2645802e-08
3.1297523e-10
2.2530822e-08
3.0793673e-10
2.2417629e-08
3.0300664e-10
2.2306161e-08
2.9822721e-10
2.2196393e-08
2.9354663e-10
2.2088267e-08
2.8900805e-10
2.1981761e-08
2.8455964e-10
2.1876819e-08
2.8024525e-10
2.1773421e-08
2.7601312e-10
2.1671512e-08
2.7190768e-10
2.1571078e-08
2.6787737e-10
2.1472064e-08
2.6396693e-10
2.137446e-08
2.6012514e-10
2.1278211e-08
2.5639688e-10
2.1183309e-08
2.5273143e-10
2.1089702e-08
2.4917359e-10
2.0997385e-08
2.4567328e-10
2.0906305e-08
2.4227495e-10
2.0816461e-08
2.3892946e-10
2.07278e-08
2.3568066e-10
2.0640325e-08
2.3248055e-10
2.0553982e-08
2.2937198e-10
2.0468776e-08
2.2630845e-10
2.0384655e-08
2.2333157e-10
2.0301626e-08
2.2039653e-10
2.0219638e-08
2.175434e-10
2.0138698e-08
2.1472944e-10
2.0058757e-08
2.1199259e-10
1.9979824e-08
2.0929277e-10
1.9901849e-08
2.0666545e-10
1.9824846e-08
2.0407331e-10
1.9748762e-08
2.0154903e-10
1.9673614e-08
1.9905873e-10
1.9599349e-08
1.966315e-10
1.9525988e-08
1.9423751e-10
1.9453475e-08
1.9190181e-10
1.9381833e-08
1.89599e-10
1.9311008e-08
1.8734957e-10
1.9241024e-08
1.8513328e-10
1.9171825e-08
1.8296522e-10
1.910344e-08
1.8083102e-10
1.903581e-08
1.7873971e-10
1.8968968e-08
1.7668358e-10
1.8902853e-08
1.746647e-10
1.88375e-08
1.7268286e-10
1.8772848e-08
1.7073233e-10
1.8708935e-08
1.6882129e-10
1.8645696e-08
1.6693527e-10
1.8583174e-08
1.6509183e-10
1.8521302e-08
1.6326665e-10
1.8460126e-08
1.6148786e-10
1.8399576e-08
1.5972013e-10
1.8339703e-08
1.5800333e-10
1.8280433e-08
1.5628975e-10
1.8221822e-08
1.5463246e-10
1.8163791e-08
1.5296989e-10
1.8106402e-08
1.5136979e-10
1.8049572e-08
1.4975521e-10
1.7993368e-08
1.4821041e-10
1.7937702e-08
1.4664112e-10
1.7882647e-08
1.4514985e-10
1.7828111e-08
1.4362309e-10
1.7774171e-08
1.4218366e-10
1.772073e-08
1.4069685e-10
1.7667872e-08
1.3930792e-10
1.7615494e-08
1.3785872e-10
1.7563687e-08
1.3651911e-10
1.7512343e-08
1.351051e-10
1.7461557e-08
1.3381384e-10
1.7411214e-08
1.3243281e-10
1.736142e-08
1.3118929e-10
1.7312052e-08
1.2983919e-10
1.7263222e-08
1.2864285e-10
1.7214799e-08
1.273216e-10
1.7166907e-08
1.2617218e-10
1.7119403e-08
1.2487788e-10
1.7072422e-08
1.2377536e-10
1.7025811e-08
1.2250632e-10
1.6979716e-08
1.2145106e-10
1.6933972e-08
1.2020574e-10
1.6888737e-08
1.1919822e-10
1.6843834e-08
1.1797506e-10
1.6799435e-08
1.1701599e-10
1.6755349e-08
1.158139e-10
1.6711762e-08
1.1490456e-10
1.6668466e-08
1.1372252e-10
1.6625667e-08
1.1286416e-10
1.6583137e-08
1.1170153e-10
1.6541102e-08
1.1089597e-10
1.649931e-08
1.0975269e-10
1.6458014e-08
1.0900208e-10
1.6416935e-08
1.0787861e-10
1.6376352e-08
1.0718531e-10
1.6335958e-08
1.0608307e-10
1.6296062e-08
1.0544974e-10
1.6256322e-08
1.0437126e-10
1.6217085e-08
1.0380112e-10
1.6177969e-08
1.0275067e-10
1.613936e-08
1.0224715e-10
1.6100832e-08
1.0123129e-10
1.6062819e-08
1.0079844e-10
1.6024841e-08
9.9827006e-11
1.5987383e-08
9.9470666e-11
1.5949912e-08
9.8556397e-11
1.5912962e-08
9.8289073e-11
1.5875953e-08
9.7442895e-11
1.5839438e-08
9.7306033e-11
1.5802847e-08
9.6514984e-11
1.5766633e-08
9.6717033e-11
1.5730364e-08
9.5962765e-11
9.7901134e-11
5.04343e-08
7.1052592e-09
-4.9859521e-08
5.119657e-08
1.0264152e-08
5.1670491e-08
1.0505944e-08
5.1882226e-08
9.1223002e-09
5.1956865e-08
7.4888186e-09
5.1969995e-08
6.3854131e-09
5.1925638e-08
5.7363495e-09
5.181763e-08
5.2825595e-09
5.165554e-08
4.8938514e-09
5.1454002e-08
4.5505798e-09
5.1220466e-08
4.2586485e-09
5.095664e-08
4.0122142e-09
5.0663447e-08
3.7986574e-09
5.0342999e-08
3.6076611e-09
4.9998366e-08
3.4334064e-09
4.9632913e-08
3.2729333e-09
4.924991e-08
3.1244628e-09
4.8852416e-08
2.986568e-09
4.8443262e-08
2.8580315e-09
4.8025053e-08
2.7377993e-09
4.7600163e-08
2.6250252e-09
4.7170732e-08
2.5189921e-09
4.6738659e-08
2.419129e-09
4.6305622e-08
2.324925e-09
4.5873076e-08
2.2359661e-09
4.5442283e-08
2.1518569e-09
4.5014314e-08
2.0722767e-09
4.459008e-08
1.9969023e-09
4.4170334e-08
1.9254762e-09
4.3755706e-08
1.857725e-09
4.3346699e-08
1.7934368e-09
4.2943724e-08
1.732375e-09
4.2547092e-08
1.6743633e-09
4.2157047e-08
1.6191933e-09
4.1773757e-08
1.5667175e-09
4.1397343e-08
1.5167504e-09
4.1027869e-08
1.4691687e-09
4.0665367e-08
1.4238059e-09
4.0309825e-08
1.3805598e-09
3.9961214e-08
1.3392796e-09
3.9619469e-08
1.2998815e-09
3.928452e-08
1.262228e-09
3.8956266e-08
1.2262517e-09
3.8634608e-08
1.1918265e-09
3.8319424e-08
1.1588992e-09
3.8010597e-08
1.1273531e-09
3.7707991e-08
1.0971481e-09
3.741148e-08
1.0681754e-09
3.712092e-08