/*--------------------------------*- C++ -*----------------------------------*\
| =========                 |                                                 |
| \\      /  F ield         | OpenFOAM: The Open Source CFD Toolbox           |
|  \\    /   O peration     | Version:  5.x                                   |
|   \\  /    A nd           | Web:      www.OpenFOAM.org                      |
|    \\/     M anipulation  |                                                 |
\*---------------------------------------------------------------------------*/
FoamFile
{
    version     2.0;
    format      ascii;
    class       volVectorField;
    location    "0.7";
    object      U;
}
// * * * * * * * * * * * * * * * * * * * * * * * * * * * * * * * * * * * * * //

dimensions      [0 1 -1 0 0 0 0];

internalField   nonuniform List<vector> 
21600
(
(0.40517305 0.012133448 0)
(0.28658261 0.010905355 0)
(0.19462914 0.0064222959 0)
(0.14037693 0.0024872467 0)
(0.11280776 0.00059977305 0)
(0.097465965 0.00010205826 0)
(0.088149406 2.6415238e-05 0)
(0.081853815 5.7573766e-05 0)
(0.077026606 9.7627423e-05 0)
(0.072979331 0.00011626793 0)
(0.069456355 0.00011547421 0)
(0.066364221 0.00010541958 0)
(0.063643651 9.3702803e-05 0)
(0.061238049 8.3335615e-05 0)
(0.059094569 7.4782568e-05 0)
(0.057168358 6.7730581e-05 0)
(0.055423736 6.1801674e-05 0)
(0.053832869 5.6717141e-05 0)
(0.05237397 5.2292938e-05 0)
(0.051029561 4.8406027e-05 0)
(0.049785397 4.496911e-05 0)
(0.048629583 4.1914539e-05 0)
(0.047552152 3.9187822e-05 0)
(0.046544584 3.6743146e-05 0)
(0.045599646 3.454237e-05 0)
(0.044711053 3.2552756e-05 0)
(0.043873432 3.0747336e-05 0)
(0.043082038 2.9102741e-05 0)
(0.042332796 2.7599866e-05 0)
(0.041622043 2.6221784e-05 0)
(0.040946631 2.4954765e-05 0)
(0.040303675 2.3786278e-05 0)
(0.039690703 2.2706285e-05 0)
(0.039105401 2.1705286e-05 0)
(0.038545803 2.0775814e-05 0)
(0.03801002 1.991051e-05 0)
(0.037496475 1.9103752e-05 0)
(0.037003602 1.8349724e-05 0)
(0.036530123 1.7644139e-05 0)
(0.036074724 1.6982325e-05 0)
(0.035636363 1.6360989e-05 0)
(0.03521392 1.5776333e-05 0)
(0.034806546 1.5225799e-05 0)
(0.034413271 1.4706264e-05 0)
(0.034033403 1.4215725e-05 0)
(0.03366609 1.3751588e-05 0)
(0.033310772 1.3312267e-05 0)
(0.03296669 1.2895599e-05 0)
(0.032633393 1.2500306e-05 0)
(0.032310195 1.2124579e-05 0)
(0.031996741 1.1767372e-05 0)
(0.031692402 1.1427174e-05 0)
(0.031396904 1.1103102e-05 0)
(0.031109661 1.0793912e-05 0)
(0.030830474 1.049882e-05 0)
(0.030558788 1.0216828e-05 0)
(0.03029447 9.9472029e-06 0)
(0.030036989 9.6891819e-06 0)
(0.029786272 9.4420356e-06 0)
(0.029541802 9.2052336e-06 0)
(0.029303564 8.9780209e-06 0)
(0.029071048 8.7600912e-06 0)
(0.028844293 8.5506303e-06 0)
(0.028622789 8.349555e-06 0)
(0.02840663 8.1559498e-06 0)
(0.028195297 7.9699668e-06 0)
(0.027988938 7.7905565e-06 0)
(0.027787023 7.6181322e-06 0)
(0.027589752 7.4514805e-06 0)
(0.027396577 7.2913001e-06 0)
(0.027207751 7.1361739e-06 0)
(0.027022704 6.9870908e-06 0)
(0.026841742 6.8423836e-06 0)
(0.026664269 6.7033541e-06 0)
(0.026490647 6.5680638e-06 0)
(0.026320246 6.4381814e-06 0)
(0.026153485 6.3114603e-06 0)
(0.025989698 6.189962e-06 0)
(0.025829365 6.0710611e-06 0)
(0.025671774 5.9572217e-06 0)
(0.025517472 5.8454195e-06 0)
(0.025365696 5.7385951e-06 0)
(0.025217061 5.6332828e-06 0)
(0.025070751 5.5329554e-06 0)
(0.024927451 5.4336107e-06 0)
(0.024786284 5.3392602e-06 0)
(0.024648013 5.2453444e-06 0)
(0.024511695 5.1565062e-06 0)
(0.024378173 5.0675814e-06 0)
(0.024246429 4.9838979e-06 0)
(0.024117396 4.8995716e-06 0)
(0.023989975 4.8206618e-06 0)
(0.023865192 4.7405206e-06 0)
(0.02374186 4.6660645e-06 0)
(0.023621107 4.5897999e-06 0)
(0.023501647 4.5195319e-06 0)
(0.023384717 4.4468167e-06 0)
(0.023268928 4.3804473e-06 0)
(0.023155633 4.3109793e-06 0)
(0.023043327 4.2483069e-06 0)
(0.02293349 4.1818418e-06 0)
(0.022824492 4.1226515e-06 0)
(0.022717949 4.0589063e-06 0)
(0.022612095 4.0030089e-06 0)
(0.022508695 3.941775e-06 0)
(0.022405833 3.8890341e-06 0)
(0.022305432 3.8300776e-06 0)
(0.022205419 3.7803122e-06 0)
(0.022107886 3.7234235e-06 0)
(0.022010586 3.6765449e-06 0)
(0.021915798 3.6215268e-06 0)
(0.021821085 3.5774183e-06 0)
(0.021728927 3.5240804e-06 0)
(0.021636681 3.4826085e-06 0)
(0.021547046 3.4308025e-06 0)
(0.021457155 3.3919472e-06 0)
(0.021369942 3.341409e-06 0)
(0.0212823 3.3051124e-06 0)
(0.021197416 3.2557502e-06 0)
(0.021111921 3.2218856e-06 0)
(0.021029278 3.1735471e-06 0)
(0.020945835 3.1421208e-06 0)
(0.020865353 3.094568e-06 0)
(0.02078387 3.0655923e-06 0)
(0.020705473 3.0186922e-06 0)
(0.020625864 2.992122e-06 0)
(0.02054948 2.9456922e-06 0)
(0.020471661 2.9215657e-06 0)
(0.020397226 2.8754508e-06 0)
(0.020321118 2.8537526e-06 0)
(0.020248569 2.8077839e-06 0)
(0.020174096 2.7885634e-06 0)
(0.020103377 2.7425633e-06 0)
(0.020030464 2.7258667e-06 0)
(0.019961523 2.6796508e-06 0)
(0.0198901 2.6655337e-06 0)
(0.019822889 2.6189258e-06 0)
(0.019752886 2.6074766e-06 0)
(0.01968736 2.5602559e-06 0)
(0.019618711 2.5515742e-06 0)
(0.019554829 2.5035589e-06 0)
(0.019487467 2.4977706e-06 0)
(0.019425194 2.4487259e-06 0)
(0.019359054 2.4459755e-06 0)
(0.019298357 2.3956627e-06 0)
(0.019233376 2.3960906e-06 0)
(0.019174224 2.3442418e-06 0)
(0.019110339 2.3480567e-06 0)
(0.019052708 2.2944249e-06 0)
(0.018989855 2.301856e-06 0)
(0.018933723 2.246142e-06 0)
(0.018871839 2.2573953e-06 0)
(0.018817188 2.1992662e-06 0)
(0.018756209 2.2146509e-06 0)
(0.018703025 2.1537784e-06 0)
(0.018642886 2.1735995e-06 0)
(0.018591159 2.1096035e-06 0)
(0.018531793 2.1342027e-06 0)
(0.018481517 2.0666454e-06 0)
(0.018422857 2.096455e-06 0)
(0.01837403 2.024913e-06 0)
(0.018316003 2.0603655e-06 0)
(0.018268628 1.9842993e-06 0)
(0.018211162 2.0259195e-06 0)
(0.018165246 1.9447745e-06 0)
(0.018108262 1.9931357e-06 0)
(0.01806382 1.906278e-06 0)
(0.018007235 1.962068e-06 0)
(0.017964285 1.8688115e-06 0)
(0.017908011 1.932788e-06 0)
(0.017866577 1.8323019e-06 0)
(0.017810518 1.9053153e-06 0)
(0.017770635 1.79672e-06 0)
(0.017714686 1.8797965e-06 0)
(0.017676393 1.7620646e-06 0)
(0.01762044 1.8563243e-06 0)
(0.017583788 1.7282497e-06 0)
(0.017527706 1.8350473e-06 0)
(0.017492756 1.6952997e-06 0)
(0.017436401 1.8162057e-06 0)
(0.017403228 1.6631782e-06 0)
(0.017346441 1.8000438e-06 0)
(0.017315133 1.6318572e-06 0)
(0.01725773 1.7868983e-06 0)
(0.017228399 1.6013023e-06 0)
(0.017170164 1.7772276e-06 0)
(0.017142946 1.5714872e-06 0)
(0.017083624 1.7716683e-06 0)
(0.017058689 1.5423186e-06 0)
(0.01699797 1.7710852e-06 0)
(0.016975539 1.5136788e-06 0)
(0.01691303 1.7768096e-06 0)
(0.0168934 1.4852293e-06 0)
(0.016828579 1.7910768e-06 0)
(0.01681218 1.4561596e-06 0)
(0.016744288 1.8184714e-06 0)
(0.016731831 1.4241807e-06 0)
(0.016659518 1.8726093e-06 0)
(0.016652571 1.3927136e-06 0)
(0.016570952 2.3584604e-06 0)
(0.48430098 0.02253563 0)
(0.45685501 0.024514356 0)
(0.41445755 0.019498826 0)
(0.37040906 0.012617603 0)
(0.33188243 0.0073138817 0)
(0.29913943 0.0043275966 0)
(0.27267565 0.0027949227 0)
(0.25195331 0.001994621 0)
(0.23565468 0.0015564188 0)
(0.22245368 0.0012942521 0)
(0.21139365 0.0011136211 0)
(0.20188946 0.00097261979 0)
(0.19358557 0.00085669759 0)
(0.18624646 0.00076067421 0)
(0.17970041 0.00068114355 0)
(0.17381466 0.00061487694 0)
(0.16848456 0.00055902155 0)
(0.16362682 0.00051132883 0)
(0.15917482 0.00047013341 0)
(0.15507447 0.00043421092 0)
(0.15128155 0.00040264594 0)
(0.1477592 0.00037472933 0)
(0.14447662 0.00034990011 0)
(0.14140758 0.00032770204 0)
(0.13852986 0.00030776334 0)
(0.1358242 0.00028977325 0)
(0.13327413 0.00027347603 0)
(0.13086513 0.0002586542 0)
(0.12858472 0.00024512815 0)
(0.1264217 0.00023274216 0)
(0.12436645 0.00022136745 0)
(0.12241012 0.00021088977 0)
(0.1205452 0.00020121489 0)
(0.11876458 0.00019225699 0)
(0.11706228 0.00018394583 0)
(0.11543252 0.00017621552 0)
(0.1138705 0.00016901298 0)
(0.11237142 0.0001622867 0)
(0.11093141 0.00015599605 0)
(0.10954644 0.00015010002 0)
(0.10821334 0.00014456722 0)
(0.1069287 0.00013936453 0)
(0.10568993 0.00013446749 0)
(0.10449406 0.00012984896 0)
(0.103339 0.00012548979 0)
(0.10222214 0.00012136743 0)
(0.10114179 0.00011746681 0)
(0.10009561 0.000113769 0)
(0.099082266 0.00011026206 0)
(0.098099633 0.00010692995 0)
(0.097146656 0.00010376316 0)
(0.096221392 0.000100748 0)
(0.095323037 9.7876878e-05 0)
(0.094449778 9.5137997e-05 0)
(0.093601039 9.2525236e-05 0)
(0.092775098 9.0028432e-05 0)
(0.091971586 8.7642573e-05 0)
(0.091188848 8.5358908e-05 0)
(0.090426703 8.3173243e-05 0)
(0.089683535 8.1078089e-05 0)
(0.088959343 7.9069841e-05 0)
(0.088252527 7.7142139e-05 0)
(0.087563257 7.5291761e-05 0)
(0.086889929 7.3513393e-05 0)
(0.086232879 7.180399e-05 0)
(0.085590482 7.0159253e-05 0)
(0.084963235 6.8576152e-05 0)
(0.084349474 6.7051414e-05 0)
(0.083749861 6.5581871e-05 0)
(0.083162674 6.4165298e-05 0)
(0.082588741 6.2798221e-05 0)
(0.082026267 6.1479447e-05 0)
(0.08147625 6.0205031e-05 0)
(0.080936804 5.8974865e-05 0)
(0.080409103 5.7784422e-05 0)
(0.079891158 5.6634802e-05 0)
(0.079384322 5.5520749e-05 0)
(0.078886486 5.4444626e-05 0)
(0.078399193 5.3400225e-05 0)
(0.077920197 5.2391218e-05 0)
(0.077451241 5.1410346e-05 0)
(0.076989924 5.0462786e-05 0)
(0.076538202 4.9540072e-05 0)
(0.0760935 4.864903e-05 0)
(0.075658001 4.7779708e-05 0)
(0.075228937 4.6940636e-05 0)
(0.074808732 4.6120263e-05 0)
(0.074394406 4.5329085e-05 0)
(0.07398864 4.4553776e-05 0)
(0.073588223 4.3806961e-05 0)
(0.073196109 4.3073215e-05 0)
(0.072808833 4.2367448e-05 0)
(0.072429645 4.1671963e-05 0)
(0.072054799 4.1004304e-05 0)
(0.071687864 4.0344228e-05 0)
(0.071324789 3.9712063e-05 0)
(0.070969485 3.90847e-05 0)
(0.07061757 3.8485558e-05 0)
(0.070273319 3.7888447e-05 0)
(0.069931992 3.7320214e-05 0)
(0.069598261 3.6751167e-05 0)
(0.06926699 3.6211849e-05 0)
(0.06894328 3.5668741e-05 0)
(0.068621569 3.5156543e-05 0)
(0.068307418 3.4637532e-05 0)
(0.067994801 3.4150882e-05 0)
(0.067689778 3.3654168e-05 0)
(0.067385819 3.3191523e-05 0)
(0.067089523 3.2715476e-05 0)
(0.066793813 3.2275589e-05 0)
(0.06650587 3.1818683e-05 0)
(0.066218024 3.1400326e-05 0)
(0.065938084 3.0961129e-05 0)
(0.06565774 3.0563149e-05 0)
(0.065385479 3.0140389e-05 0)
(0.065112293 2.9761928e-05 0)
(0.064847407 2.9354166e-05 0)
(0.064581056 2.8994349e-05 0)
(0.064323262 2.8600558e-05 0)
(0.06406344 2.8258462e-05 0)
(0.063812473 2.7877507e-05 0)
(0.063558887 2.7552539e-05 0)
(0.063314502 2.7183193e-05 0)
(0.063066876 2.6874809e-05 0)
(0.062828842 2.6516104e-05 0)
(0.062586912 2.6223698e-05 0)
(0.062355016 2.5874592e-05 0)
(0.062118529 2.5597795e-05 0)
(0.061892571 2.5257319e-05 0)
(0.061661286 2.4995701e-05 0)
(0.061441083 2.466289e-05 0)
(0.061214767 2.4416198e-05 0)
(0.061000148 2.4090101e-05 0)
(0.060778577 2.3858113e-05 0)
(0.060569384 2.3537778e-05 0)
(0.060352342 2.3320341e-05 0)
(0.060148431 2.3004853e-05 0)
(0.059935708 2.2801917e-05 0)
(0.059736945 2.2490283e-05 0)
(0.059528336 2.2301873e-05 0)
(0.059334602 2.1993196e-05 0)
(0.059129907 2.1819442e-05 0)
(0.058941092 2.1512715e-05 0)
(0.058740115 2.135381e-05 0)
(0.058556121 2.1048004e-05 0)
(0.058358669 2.0904172e-05 0)
(0.058179412 2.0598208e-05 0)
(0.057985292 2.0469898e-05 0)
(0.057810696 2.0162764e-05 0)
(0.057619717 2.0050493e-05 0)
(0.05744972 1.9741024e-05 0)
(0.057261689 1.9645293e-05 0)
(0.05709624 1.9332257e-05 0)
(0.056910963 1.925385e-05 0)
(0.056750023 1.8936032e-05 0)
(0.056567305 1.8875773e-05 0)
(0.056410847 1.8551798e-05 0)
(0.056230485 1.8510652e-05 0)
(0.056078496 1.8179025e-05 0)
(0.055900284 1.8158234e-05 0)
(0.055752764 1.781746e-05 0)
(0.055576485 1.7818295e-05 0)
(0.05543345 1.7466593e-05 0)
(0.055258881 1.7490616e-05 0)
(0.05512036 1.7126125e-05 0)
(0.054947264 1.7175099e-05 0)
(0.054813305 1.6795796e-05 0)
(0.054641432 1.6871827e-05 0)
(0.054512099 1.647551e-05 0)
(0.054341181 1.6580932e-05 0)
(0.05421656 1.6164989e-05 0)
(0.054046308 1.6302463e-05 0)
(0.053926508 1.5864199e-05 0)
(0.053756607 1.6036916e-05 0)
(0.053641763 1.5573184e-05 0)
(0.053471868 1.5784658e-05 0)
(0.053362145 1.5291877e-05 0)
(0.053191874 1.5546339e-05 0)
(0.053087472 1.5020584e-05 0)
(0.052916397 1.5322933e-05 0)
(0.052817556 1.4759577e-05 0)
(0.052645195 1.5115545e-05 0)
(0.052552208 1.450933e-05 0)
(0.052378004 1.4925687e-05 0)
(0.052291226 1.4270441e-05 0)
(0.052114537 1.4755389e-05 0)
(0.052034404 1.4043872e-05 0)
(0.051854462 1.4607389e-05 0)
(0.05178152 1.3830821e-05 0)
(0.051597397 1.4485302e-05 0)
(0.051532345 1.3633112e-05 0)
(0.051342874 1.4394406e-05 0)
(0.051286645 1.3453248e-05 0)
(0.051090285 1.434263e-05 0)
(0.05104421 1.3295384e-05 0)
(0.050838753 1.4343673e-05 0)
(0.050804959 1.3170944e-05 0)
(0.050586691 1.4437871e-05 0)
(0.050569338 1.3159822e-05 0)
(0.050329542 1.5934712e-05 0)
(0.48500597 0.020562056 0)
(0.48876379 0.026123192 0)
(0.4843037 0.023583132 0)
(0.47044185 0.017965093 0)
(0.45157506 0.012980253 0)
(0.43042458 0.00974783 0)
(0.40942222 0.00767983 0)
(0.38989948 0.0062019223 0)
(0.37223951 0.0050889438 0)
(0.35634435 0.0042539809 0)
(0.341996 0.0036250861 0)
(0.32900659 0.0031400301 0)
(0.31722506 0.0027546776 0)
(0.30651894 0.0024416241 0)
(0.29676562 0.0021836573 0)
(0.2878513 0.0019686896 0)
(0.27967372 0.0017875514 0)
(0.27214293 0.0016332004 0)
(0.26518173 0.0015002915 0)
(0.25872384 0.001384773 0)
(0.25271302 0.0012835545 0)
(0.24710085 0.0011942321 0)
(0.24184607 0.0011149148 0)
(0.2369127 0.0010440815 0)
(0.23226992 0.00098050528 0)
(0.22789044 0.00092317285 0)
(0.22375079 0.00087125452 0)
(0.21982984 0.00082405005 0)
(0.21610944 0.00078098086 0)
(0.21257295 0.00074154844 0)
(0.20920611 0.00070533905 0)
(0.20599559 0.00067198826 0)
(0.20293007 0.00064119364 0)
(0.19999869 0.00061268223 0)
(0.19719239 0.00058622879 0)
(0.19450218 0.00056162431 0)
(0.19192074 0.00053869842 0)
(0.18944055 0.00051728813 0)
(0.18705566 0.000497263 0)
(0.18475966 0.00047849358 0)
(0.18254773 0.00046087903 0)
(0.18041434 0.00044431488 0)
(0.17835554 0.00042872258 0)
(0.17636652 0.00041401651 0)
(0.17444408 0.00040013516 0)
(0.17258394 0.00038700738 0)
(0.17078353 0.00037458483 0)
(0.16903899 0.00036280758 0)
(0.16734831 0.0003516376 0)
(0.16570794 0.00034102377 0)
(0.16411634 0.0003309362 0)
(0.16257022 0.00032133079 0)
(0.16106846 0.00031218414 0)
(0.15960794 0.00030345779 0)
(0.15818792 0.0002951335 0)
(0.15680543 0.00028717745 0)
(0.15546005 0.00027957551 0)
(0.1541489 0.00027229773 0)
(0.15287189 0.00026533325 0)
(0.15162619 0.00025865539 0)
(0.150412 0.00025225592 0)
(0.1492265 0.00024611096 0)
(0.14807018 0.00024021431 0)
(0.1469402 0.00023454454 0)
(0.14583734 0.000229097 0)
(0.1447587 0.00022385248 0)
(0.14370534 0.00021880747 0)
(0.14267428 0.00021394485 0)
(0.14166687 0.00020926187 0)
(0.14068 0.00020474339 0)
(0.13971533 0.00020038707 0)
(0.13876959 0.00019617964 0)
(0.13784475 0.00019211882 0)
(0.13693738 0.00018819325 0)
(0.13604973 0.00018440045 0)
(0.13517821 0.00018073105 0)
(0.13432537 0.00017718211 0)
(0.13348739 0.00017374625 0)
(0.13266718 0.00017041967 0)
(0.13186065 0.00016719707 0)
(0.13107107 0.00016407358 0)
(0.13029407 0.00016104621 0)
(0.1295333 0.00015810873 0)
(0.12878407 0.00015526064 0)
(0.12805043 0.00015249393 0)
(0.12732735 0.00014981068 0)
(0.1266193 0.00014720084 0)
(0.12592088 0.00014466945 0)
(0.12523701 0.00014220412 0)
(0.12456187 0.00013981308 0)
(0.12390087 0.00013748111 0)
(0.12324773 0.00013521989 0)
(0.1226084 0.00013301105 0)
(0.12197609 0.00013087017 0)
(0.12135731 0.0001287753 0)
(0.12074472 0.00012674623 0)
(0.12014545 0.00012475692 0)
(0.11955156 0.00012283183 0)
(0.11897085 0.00012094041 0)
(0.11839472 0.0001191123 0)
(0.11783168 0.00011731182 0)
(0.11727241 0.00011557424 0)
(0.1167262 0.00011385821 0)
(0.11618298 0.00011220532 0)
(0.11565284 0.00011056792 0)
(0.11512488 0.00010899442 0)
(0.11461008 0.00010743013 0)
(0.11409665 0.0001059311 0)
(0.11359654 0.00010443494 0)
(0.11309696 0.00010300603 0)
(0.11261091 0.00010157332 0)
(0.11212453 0.00010021043 0)
(0.11165195 9.8836849e-05 0)
(0.11117817 9.7536255e-05 0)
(0.11071853 9.6217832e-05 0)
(0.11025678 9.4976266e-05 0)
(0.10980956 9.3709077e-05 0)
(0.10935929 9.2523449e-05 0)
(0.10892403 9.1304149e-05 0)
(0.10848472 9.0171544e-05 0)
(0.10806098 8.899676e-05 0)
(0.10763215 8.7914757e-05 0)
(0.10721951 8.6781252e-05 0)
(0.1068007 8.5747586e-05 0)
(0.10639879 8.4652497e-05 0)
(0.10598954 8.3665e-05 0)
(0.105598 8.260548e-05 0)
(0.10519789 8.1662385e-05 0)
(0.10481639 8.0635749e-05 0)
(0.10442502 7.9735332e-05 0)
(0.10405325 7.8738995e-05 0)
(0.10367023 7.7879854e-05 0)
(0.10330791 7.6911324e-05 0)
(0.10293286 7.6092167e-05 0)
(0.10257973 7.5149032e-05 0)
(0.10221227 7.4368764e-05 0)
(0.1018681 7.3448705e-05 0)
(0.10150789 7.2706422e-05 0)
(0.10117245 7.1807094e-05 0)
(0.10081915 7.1102093e-05 0)
(0.10049224 7.022132e-05 0)
(0.1001455 6.9553111e-05 0)
(0.099826951 6.8688619e-05 0)
(0.099486447 6.8056844e-05 0)
(0.099176096 6.720634e-05 0)
(0.098841495 6.6610755e-05 0)
(0.098539207 6.5771945e-05 0)
(0.098210185 6.5212718e-05 0)
(0.09791584 6.4383454e-05 0)
(0.097592072 6.3860878e-05 0)
(0.097305573 6.3038779e-05 0)
(0.096986732 6.2553187e-05 0)
(0.096708002 6.1735856e-05 0)
(0.096393758 6.1288017e-05 0)
(0.09612274 6.0473119e-05 0)
(0.095812758 6.0063937e-05 0)
(0.095549418 5.9248883e-05 0)
(0.095243357 5.887953e-05 0)
(0.094987682 5.8061661e-05 0)
(0.094685187 5.7733773e-05 0)
(0.09443719 5.6910408e-05 0)
(0.094137896 5.662568e-05 0)
(0.093897613 5.5793794e-05 0)
(0.093601138 5.5554404e-05 0)
(0.093368634 5.4710865e-05 0)
(0.093074575 5.451939e-05 0)
(0.092849945 5.3660916e-05 0)
(0.092557874 5.3520459e-05 0)
(0.092341245 5.2643553e-05 0)
(0.092050706 5.2557567e-05 0)
(0.09184224 5.1658178e-05 0)
(0.091552739 5.1630689e-05 0)
(0.091352641 5.0704783e-05 0)
(0.091063642 5.0740618e-05 0)
(0.090872161 4.9783539e-05 0)
(0.090583078 4.9888046e-05 0)
(0.090400515 4.8894709e-05 0)
(0.090110699 4.9074312e-05 0)
(0.089937418 4.8039319e-05 0)
(0.089646143 4.8301421e-05 0)
(0.089482581 4.7218641e-05 0)
(0.089189026 4.7571805e-05 0)
(0.089035707 4.6434631e-05 0)
(0.088738937 4.6888755e-05 0)
(0.088596495 4.5689841e-05 0)
(0.088295422 4.6256746e-05 0)
(0.08816463 4.498817e-05 0)
(0.087857971 4.5681612e-05 0)
(0.087739788 4.4334819e-05 0)
(0.087425995 4.517096e-05 0)
(0.087321631 4.3737653e-05 0)
(0.086998781 4.4735315e-05 0)
(0.086909823 4.3208553e-05 0)
(0.086575421 4.4388978e-05 0)
(0.086504058 4.2768406e-05 0)
(0.086154658 4.4153614e-05 0)
(0.08610415 4.2464837e-05 0)
(0.085734506 4.411979e-05 0)
(0.08571001 4.2474091e-05 0)
(0.085311754 4.6524506e-05 0)
(0.48431491 0.017835447 0)
(0.49042511 0.024335404 0)
(0.4974572 0.023345426 0)
(0.49888352 0.019096452 0)
(0.49460825 0.014929079 0)
(0.4863849 0.012195132 0)
(0.47625273 0.010413768 0)
(0.46546398 0.0090499287 0)
(0.45455186 0.0079133113 0)
(0.44369293 0.0069716355 0)
(0.43296595 0.006198399 0)
(0.42245278 0.0055554499 0)
(0.41223711 0.0050092274 0)
(0.40238613 0.0045380834 0)
(0.39294343 0.0041290518 0)
(0.3839298 0.0037729815 0)
(0.37534975 0.0034621703 0)
(0.367196 0.0031898297 0)
(0.35945469 0.0029501264 0)
(0.35210708 0.0027381506 0)
(0.3451328 0.0025498304 0)
(0.33850981 0.0023817674 0)
(0.33221671 0.0022311431 0)
(0.32623187 0.0020955835 0)
(0.32053538 0.0019731079 0)
(0.31510756 0.0018620315 0)
(0.30993085 0.0017609463 0)
(0.30498801 0.0016686389 0)
(0.30026401 0.0015840932 0)
(0.29574396 0.0015064197 0)
(0.29141517 0.0014348734 0)
(0.28726484 0.0013687898 0)
(0.28328236 0.0013076144 0)
(0.27945668 0.0012508413 0)
(0.27577896 0.0011980518 0)
(0.27223963 0.0011488536 0)
(0.26883134 0.0011029268 0)
(0.26554575 0.001059962 0)
(0.26237675 0.0010197122 0)
(0.25931698 0.00098192932 0)
(0.25636144 0.00094642133 0)
(0.25350357 0.00091298639 0)
(0.25073926 0.00088147419 0)
(0.24806261 0.00085171803 0)
(0.24547032 0.00082359988 0)
(0.24295699 0.00079698008 0)
(0.24052003 0.0007717659 0)
(0.23815444 0.00074783868 0)
(0.23585825 0.00072512572 0)
(0.23362678 0.00070352484 0)
(0.2314586 0.00068297938 0)
(0.22934928 0.00066340021 0)
(0.22729789 0.00064474363 0)
(0.22530016 0.00062693098 0)
(0.22335565 0.00060992908 0)
(0.22146018 0.00059366771 0)
(0.21961375 0.0005781223 0)
(0.21781225 0.00056322954 0)
(0.21605608 0.00054897194 0)
(0.21434113 0.00053529188 0)
(0.21266824 0.00052217772 0)
(0.21103324 0.00050957656 0)
(0.20943736 0.00049748162 0)
(0.20787635 0.00048584394 0)
(0.20635186 0.00047466074 0)
(0.2048595 0.00046388647 0)
(0.20340133 0.00045352165 0)
(0.20197279 0.00044352375 0)
(0.20057635 0.00043389595 0)
(0.19920726 0.00042459839 0)
(0.1978684 0.00041563637 0)
(0.19655478 0.00040697242 0)
(0.19526973 0.00039861342 0)
(0.19400797 0.00039052419 0)
(0.19277329 0.00038271282 0)
(0.19156009 0.00037514639 0)
(0.19037265 0.00036783376 0)
(0.18920499 0.00036074417 0)
(0.18806192 0.00035388678 0)
(0.18693704 0.00034723298 0)
(0.1858357 0.00034079189 0)
(0.18475106 0.00033453728 0)
(0.18368904 0.00032847787 0)
(0.18264231 0.0003225899 0)
(0.18161739 0.00031688118 0)
(0.18060641 0.00031133048 0)
(0.17961655 0.00030594437 0)
(0.17863932 0.00030070451 0)
(0.17768262 0.00029561587 0)
(0.17673731 0.00029066324 0)
(0.17581203 0.00028584939 0)
(0.17489693 0.00028116248 0)
(0.17400145 0.00027660272 0)
(0.17311497 0.0002721621 0)
(0.17224779 0.00026783777 0)
(0.17138845 0.0002636259 0)
(0.17054819 0.00025951995 0)
(0.16971461 0.00025552076 0)
(0.16889997 0.00025161766 0)
(0.16809087 0.00024781666 0)
(0.16730065 0.00024410223 0)
(0.16651482 0.00024048613 0)
(0.16574791 0.00023694732 0)
(0.16498423 0.00023350402 0)
(0.16423958 0.00023012896 0)
(0.163497 0.00022684739 0)
(0.16277363 0.00022362503 0)
(0.16205115 0.00022049501 0)
(0.16134817 0.00021741525 0)
(0.16064486 0.00021442759 0)
(0.15996142 0.00021148104 0)
(0.15927639 0.00020862717 0)
(0.1586117 0.00020580516 0)
(0.15794412 0.00020307725 0)
(0.15729745 0.00020037179 0)
(0.15664654 0.00019776278 0)
(0.15601719 0.00019516623 0)
(0.1553822 0.0001926695 0)
(0.15476954 0.00019017507 0)
(0.15414976 0.00018778448 0)
(0.15355318 0.00018538554 0)
(0.15294795 0.00018309569 0)
(0.1523669 0.00018078603 0)
(0.15177556 0.00017859184 0)
(0.15120952 0.00017636583 0)
(0.15063146 0.00017426256 0)
(0.15007995 0.00017211475 0)
(0.14951459 0.00017009825 0)
(0.14897716 0.00016802352 0)
(0.14842392 0.00016608985 0)
(0.14790016 0.00016408332 0)
(0.1473585 0.00016222905 0)
(0.14684803 0.0001602861 0)
(0.14631743 0.00015850801 0)
(0.14581988 0.00015662423 0)
(0.14529983 0.00015491947 0)
(0.1448149 0.00015309066 0)
(0.1443049 0.00015145669 0)
(0.14383229 0.00014967873 0)
(0.14333185 0.00014811335 0)
(0.1428713 0.0001463824 0)
(0.14237996 0.00014488375 0)
(0.14193122 0.00014319597 0)
(0.1414485 0.00014176243 0)
(0.14101138 0.00014011401 0)
(0.14053682 0.00013874414 0)
(0.14011114 0.00013713138 0)
(0.13964428 0.00013582432 0)
(0.13922988 0.00013424378 0)
(0.13877027 0.00013299891 0)
(0.13836703 0.00013144694 0)
(0.1379142 0.00013026368 0)
(0.13752203 0.0001287367 0)
(0.13707551 0.00012761507 0)
(0.13669435 0.00012610968 0)
(0.13625366 0.00012504992 0)
(0.13588348 0.00012356244 0)
(0.13544814 0.00012256514 0)
(0.13508894 0.00012109197 0)
(0.13465844 0.00012015834 0)
(0.13431026 0.00011869593 0)
(0.13388409 0.00011782726 0)
(0.133547 0.00011637174 0)
(0.1331246 0.00011556991 0)
(0.13279873 0.0001141174 0)
(0.13237952 0.00011338479 0)
(0.13206502 0.00011193143 0)
(0.1316484 0.00011127111 0)
(0.13134547 0.00010981288 0)
(0.13093078 0.00010922828 0)
(0.13063968 0.00010776072 0)
(0.13022622 0.0001072559 0)
(0.12994728 0.00010577481 0)
(0.12953428 0.00010535484 0)
(0.12926788 0.00010385553 0)
(0.1288545 0.00010352592 0)
(0.1286011 0.00010200358 0)
(0.12818642 0.00010177105 0)
(0.12794657 0.00010022099 0)
(0.12752956 0.00010009324 0)
(0.12730391 9.8510512e-05 0)
(0.12688342 9.849625e-05 0)
(0.12667275 9.687622e-05 0)
(0.12624745 9.6985272e-05 0)
(0.12605269 9.5323606e-05 0)
(0.12562106 9.556739e-05 0)
(0.12544334 9.3860823e-05 0)
(0.12500361 9.4251799e-05 0)
(0.12484428 9.2498996e-05 0)
(0.12439434 9.3050417e-05 0)
(0.1242551 9.1254605e-05 0)
(0.12379237 9.1979502e-05 0)
(0.12367536 9.0152382e-05 0)
(0.12319661 9.1061247e-05 0)
(0.1231046 8.9232075e-05 0)
(0.12260566 9.0335899e-05 0)
(0.12254234 8.8558957e-05 0)
(0.12201769 9.0011858e-05 0)
(0.12198756 8.8328662e-05 0)
(0.12143096 9.2831626e-05 0)
(0.485719 0.016050725 0)
(0.49005599 0.022583235 0)
(0.49782059 0.022343687 0)
(0.50336379 0.018866514 0)
(0.50487815 0.015207005 0)
(0.50313326 0.012810126 0)
(0.4996495 0.011328526 0)
(0.49538734 0.010222684 0)
(0.49067888 0.0092715782 0)
(0.48557238 0.0084493343 0)
(0.48007452 0.0077528298 0)
(0.47423193 0.0071570624 0)
(0.46812267 0.0066335833 0)
(0.46182968 0.006163819 0)
(0.4554282 0.0057385188 0)
(0.44898005 0.0053527364 0)
(0.44253637 0.0050026452 0)
(0.43613737 0.004684587 0)
(0.42981604 0.0043951472 0)
(0.42359715 0.0041312515 0)
(0.41750063 0.0038902252 0)
(0.41154007 0.003669697 0)
(0.40572612 0.0034675952 0)
(0.40006452 0.0032820501 0)
(0.39455967 0.0031114197 0)
(0.38921217 0.0029542112 0)
(0.38402247 0.0028091231 0)
(0.37898796 0.002674964 0)
(0.3741068 0.0025507046 0)
(0.36937451 0.0024353927 0)
(0.36478806 0.0023282153 0)
(0.36034197 0.0022284089 0)
(0.3560327 0.0021353313 0)
(0.35185435 0.0020483673 0)
(0.34780333 0.0019670086 0)
(0.34387359 0.001890756 0)
(0.34006175 0.0018192067 0)
(0.33636182 0.0017519511 0)
(0.33277077 0.0016886689 0)
(0.32928274 0.0016290211 0)
(0.32589516 0.0015727532 0)
(0.32260232 0.0015195812 0)
(0.31940214 0.001469303 0)
(0.31628907 0.0014216779 0)
(0.3132615 0.0013765458 0)
(0.31031406 0.0013337004 0)
(0.30744563 0.0012930152 0)
(0.30465093 0.0012543114 0)
(0.30192934 0.00121749 0)
(0.29927567 0.0011823938 0)
(0.29668976 0.0011489466 0)
(0.29416646 0.0011170083 0)
(0.2917061 0.0010865218 0)
(0.28930351 0.0010573608 0)
(0.2869595 0.0010294837 0)
(0.28466884 0.0010027757 0)
(0.28243281 0.00097720838 0)
(0.2802461 0.00095267584 0)
(0.27811047 0.00092916091 0)
(0.27602045 0.00090656512 0)
(0.27397829 0.00088488084 0)
(0.27197836 0.00086401552 0)
(0.27002338 0.00084396979 0)
(0.2681075 0.00082465586 0)
(0.26623395 0.0008060815 0)
(0.26439662 0.00078816284 0)
(0.26259925 0.00077091387 0)
(0.26083541 0.00075425394 0)
(0.25910942 0.00073820245 0)
(0.25741446 0.0007226814 0)
(0.25575544 0.00070771488 0)
(0.25412513 0.000693227 0)
(0.25252902 0.00067924597 0)
(0.25095946 0.00066569769 0)
(0.24942256 0.000652614 0)
(0.24791015 0.00063992241 0)
(0.24642903 0.00062765793 0)
(0.24497047 0.00061574938 0)
(0.24354197 0.00060423437 0)
(0.2421342 0.00059304291 0)
(0.24075541 0.00058221486 0)
(0.23939559 0.00057168148 0)
(0.23806382 0.00056148455 0)
(0.23674933 0.00055155654 0)
(0.23546208 0.0005419406 0)
(0.23419049 0.00053257035 0)
(0.23294545 0.00052348998 0)
(0.2317145 0.00051463453 0)
(0.23050951 0.00050604892 0)
(0.22931709 0.00049766966 0)
(0.22815018 0.00048954189 0)
(0.22699432 0.00048160371 0)
(0.22586362 0.0004739001 0)
(0.22474249 0.00046637113 0)
(0.22364628 0.0004590612 0)
(0.22255817 0.00045191255 0)
(0.22149484 0.00044496846 0)
(0.22043814 0.00043817373 0)
(0.21940619 0.00043157007 0)
(0.21837939 0.00042510525 0)
(0.21737742 0.00041881881 0)
(0.21637912 0.00041266189 0)
(0.21540582 0.00040667134 0)
(0.21443468 0.00040080221 0)
(0.21348883 0.00039508803 0)
(0.2125436 0.00038948824 0)
(0.21162406 0.00038403235 0)
(0.21070357 0.00037868493 0)
(0.20980927 0.00037347078 0)
(0.20891239 0.00036836026 0)
(0.20804233 0.00036337246 0)
(0.20716801 0.00035848443 0)
(0.20632127 0.00035370883 0)
(0.2054685 0.0003490301 0)
(0.2046442 0.00034445357 0)
(0.20381204 0.00033997208 0)
(0.20300936 0.00033558227 0)
(0.20219691 0.00033128674 0)
(0.20141509 0.00032707249 0)
(0.20062149 0.00032295247 0)
(0.19985982 0.00031890303 0)
(0.19908424 0.00031494911 0)
(0.19834206 0.00031105453 0)
(0.19758371 0.00030725785 0)
(0.1968604 0.000303509 0)
(0.19611854 0.00029986131 0)
(0.19541352 0.00029624945 0)
(0.19468743 0.00029274334 0)
(0.19400017 0.00028926032 0)
(0.19328913 0.00028588876 0)
(0.19261915 0.00028252687 0)
(0.1919225 0.00027928355 0)
(0.19126934 0.00027603555 0)
(0.19058642 0.00027291454 0)
(0.18994967 0.00026977357 0)
(0.18927985 0.00026676948 0)
(0.18865912 0.00026372907 0)
(0.18800177 0.00026083695 0)
(0.18739673 0.00025789088 0)
(0.18675125 0.00025510627 0)
(0.1861616 0.00025224876 0)
(0.18552738 0.00024956768 0)
(0.18495284 0.00024679307 0)
(0.1843293 0.00024421189 0)
(0.18376963 0.00024151471 0)
(0.18315618 0.00023903006 0)
(0.18261119 0.00023640505 0)
(0.18200725 0.00023401432 0)
(0.18147678 0.00023145669 0)
(0.18088174 0.00022915756 0)
(0.18036566 0.00022666239 0)
(0.17977895 0.00022445262 0)
(0.17927718 0.00022201521 0)
(0.17869818 0.00021989326 0)
(0.17821067 0.00021750928 0)
(0.17763877 0.00021547391 0)
(0.17716551 0.00021313882 0)
(0.17660009 0.00021118919 0)
(0.17614112 0.0002088987 0)
(0.17558152 0.00020703469 0)
(0.17513692 0.00020478478 0)
(0.17458246 0.00020300634 0)
(0.17415236 0.00020079276 0)
(0.17360233 0.0001991005 0)
(0.17318693 0.00019691923 0)
(0.17264058 0.00019531423 0)
(0.1722401 0.00019316153 0)
(0.17169664 0.00019164565 0)
(0.1713114 0.00018951788 0)
(0.17076997 0.00018809327 0)
(0.17040033 0.00018598655 0)
(0.16986002 0.00018465593 0)
(0.16950645 0.00018256713 0)
(0.16896627 0.00018133427 0)
(0.16862928 0.00017926011 0)
(0.16808814 0.00017812898 0)
(0.16776839 0.00017606664 0)
(0.1672251 0.00017504234 0)
(0.16692332 0.00017298983 0)
(0.16637657 0.00017207819 0)
(0.16609364 0.00017003411 0)
(0.16554194 0.00016924158 0)
(0.16527889 0.000167206 0)
(0.16472057 0.00016653963 0)
(0.16447862 0.0001645144 0)
(0.16391179 0.00016398223 0)
(0.16369236 0.00016197229 0)
(0.16311483 0.00016158238 0)
(0.16291963 0.00015959729 0)
(0.16232886 0.00015935739 0)
(0.16215991 0.00015741465 0)
(0.16155289 0.00015733191 0)
(0.16141265 0.00015545989 0)
(0.16078578 0.00015554402 0)
(0.1606772 0.00015378108 0)
(0.16002621 0.00015407648 0)
(0.15995267 0.00015243253 0)
(0.15927266 0.00015328306 0)
(0.15923745 0.00015166805 0)
(0.15852402 0.00015594913 0)
(0.48712435 0.014785528 0)
(0.49045791 0.021076997 0)
(0.49712113 0.021400233 0)
(0.50294406 0.018455531 0)
(0.50590308 0.015080836 0)