# vtk DataFile Version 2.0
symmBound
ASCII
DATASET POLYDATA
POINTS 82 float
-0.02 0 0 -0.018734 0 0 -0.018734 0 0.001 -0.02 0
0.001 -0.0175406 0 0 -0.0175406 0 0.001 -0.0164157 0 0
-0.0164157 0 0.001 -0.0153552 0 0 -0.0153552 0 0.001 -0.0143555
0 0 -0.0143555 0 0.001 -0.0134132 0 0 -0.0134132 0
0.001 -0.0125248 0 0 -0.0125248 0 0.001 -0.0116874 0 0
-0.0116874 0 0.001 -0.010898 0 0 -0.010898 0 0.001 -0.0101539
0 0 -0.0101539 0 0.001 -0.0094524 0 0 -0.0094524 0
0.001 -0.00879114 0 0 -0.00879114 0 0.001 -0.00816779 0 0
-0.00816779 0 0.001 -0.00758018 0 0 -0.00758018 0 0.001 -0.00702626
0 0 -0.00702626 0 0.001 -0.00650409 0 0 -0.00650409 0
0.001 -0.00601187 0 0 -0.00601187 0 0.001 -0.00554786 0 0
-0.00554786 0 0.001 -0.00511045 0 0 -0.00511045 0 0.001 -0.00469812
0 0 -0.00469812 0 0.001 -0.00430943 0 0 -0.00430943 0
0.001 -0.00394303 0 0 -0.00394303 0 0.001 -0.00359763 0 0
-0.00359763 0 0.001 -0.00327203 0 0 -0.00327203 0 0.001 -0.0029651
0 0 -0.0029651 0 0.001 -0.00267577 0 0 -0.00267577 0
0.001 -0.00240302 0 0 -0.00240302 0 0.001 -0.00214592 0 0
-0.00214592 0 0.001 -0.00190355 0 0 -0.00190355 0 0.001 -0.00167508
0 0 -0.00167508 0 0.001 -0.0014597 0 0 -0.0014597 0
0.001 -0.00125668 0 0 -0.00125668 0 0.001 -0.00106529 0 0
-0.00106529 0 0.001 -0.000884876 0 0 -0.000884876 0 0.001 -0.000714806
0 0 -0.000714806 0 0.001 -0.000554486 0 0 -0.000554486 0
0.001 -0.000403357 0 0 -0.000403357 0 0.001 -0.000260893 0 0
-0.000260893 0 0.001 -0.000126597 0 0 -0.000126597 0 0.001 0
0 0 0 0 0.001 
POLYGONS 40 200
4 0 1 2 3 4 1 4 5 2 4
4 6 7 5 4 6 8 9 7 4
8 10 11 9 4 10 12 13 11 4
12 14 15 13 4 14 16 17 15 4
16 18 19 17 4 18 20 21 19 4
20 22 23 21 4 22 24 25 23 4
24 26 27 25 4 26 28 29 27 4
28 30 31 29 4 30 32 33 31 4
32 34 35 33 4 34 36 37 35 4
36 38 39 37 4 38 40 41 39 4
40 42 43 41 4 42 44 45 43 4
44 46 47 45 4 46 48 49 47 4
48 50 51 49 4 50 52 53 51 4
52 54 55 53 4 54 56 57 55 4
56 58 59 57 4 58 60 61 59 4
60 62 63 61 4 62 64 65 63 4
64 66 67 65 4 66 68 69 67 4
68 70 71 69 4 70 72 73 71 4
72 74 75 73 4 74 76 77 75 4
76 78 79 77 4 78 80 81 79 
CELL_DATA 40
FIELD attributes 3
patchID 1 40 float
4 4 4 4 4 4 4 4 4 4 4
4 4 4 4 4 4 4 4 4 4
4 4 4 4 4 4 4 4 4 4
4 4 4 4 4 4 4 4 4 
p 1 40 float
0.0114183 0.0112354 0.0112749 0.0113772 0.0115476 0.011683 0.0118491 0.0119961 0.0121823 0.012358 0.0125673
0.0127711 0.0130064 0.0132413 0.0134944 0.0137603 0.0140397 0.014341 0.0146535 0.0149959 0.0153516
0.0157474 0.0161579 0.016621 0.0171083 0.0176592 0.0182463 0.0189038 0.019613 0.0204126 0.0212896
0.0222892 0.0234158 0.024723 0.0262236 0.027994 0.0300651 0.0325278 0.0353695 0.0385629 
U 3 40 float
0.964024 0.000756537 0 1.03622 -0.000805037 0 0.965697 0.000751978 0 1.03407 -0.000757106
0 0.966888 0.000788128 0 1.03198 -0.000726258 0 0.967977 0.000764136 0
1.02998 -0.000730538 0 0.968886 0.000794025 0 1.02804 -0.000695904 0 0.969672
0.000874864 0 1.02621 -0.000648931 0 0.970365 0.00091269 0 1.02442 -0.000613038
0 0.970951 0.000920481 0 1.02267 -0.000583592 0 0.971394 0.000938674 0
1.02093 -0.000537386 0 0.97169 0.00097413 0 1.0192 -0.000460591 0 0.971851
0.00102089 0 1.01744 -0.00036611 0 0.971861 0.0010716 0 1.01563 -0.000269909
0 0.971687 0.00112323 0 1.01373 -0.000176754 0 0.971282 0.00117989 0
1.01169 -7.72877e-05 0 0.970605 0.00122828 0 1.00943 3.3186e-05 0 0.969567
0.00127482 0 1.00686 0.000153751 0 0.968021 0.00133349 0 1.00378 0.000304778
0 0.965719 0.00146157 0 0.999931 0.000581199 0 0.96229 0.00184718 0
0.994894 0.00135989 0 0.957244 0.00323436 0 0.988453 0.00386165 0 
POINT_DATA  82
FIELD attributes 2
p 1 82 float
0.0114183 0.0113252 0.0113252 0.0114183 0.0112554 0.0112554 0.0113268 0.0113268 0.0114637 0.0114637 0.0116163
0.0116163 0.0117672 0.0117672 0.0119236 0.0119236 0.0120903 0.0120903 0.0122711 0.0122711 0.0124637
0.0124637 0.0126702 0.0126702 0.0128898 0.0128898 0.0131248 0.0131248 0.0133687 0.0133687 0.0136282
0.0136282 0.0139008 0.0139008 0.0141912 0.0141912 0.014498 0.014498 0.0148255 0.0148255 0.0151745
0.0151745 0.0155503 0.0155503 0.0159533 0.0159533 0.0163901 0.0163901 0.0168653 0.0168653 0.0173844
0.0173844 0.0179534 0.0179534 0.0185757 0.0185757 0.019259 0.019259 0.0200134 0.0200134 0.0208517
0.0208517 0.0217901 0.0217901 0.0228532 0.0228532 0.0240701 0.0240701 0.025474 0.025474 0.0271095
0.0271095 0.0290303 0.0290303 0.0312972 0.0312972 0.0339494 0.0339494 0.036967 0.036967 0.0385629
0.0385629 
U 3 82 float
0.964024 0.000756537 0 1.00076 -3.81168e-05 0 1.00076 -3.81168e-05 0 0.964024 0.000756537
0 1.00036 -1.33602e-05 0 1.00036 -1.33602e-05 0 1.00043 -1.46804e-05 0
1.00043 -1.46804e-05 0 0.99997 2.72468e-05 0 0.99997 2.72468e-05 0 0.999902
2.00932e-05 0 0.999902 2.00932e-05 0 0.99955 2.89631e-05 0 0.99955 2.89631e-05
0 0.999368 7.38803e-06 0 0.999368 7.38803e-06 0 0.999074 4.06992e-05 0
0.999074 4.06992e-05 0 0.998784 4.09224e-05 0 0.998784 4.09224e-05 0 0.998558
9.74322e-05 0 0.998558 9.74322e-05 0 0.998203 0.000105838 0 0.998203 0.000105838
0 0.998044 0.000138608 0 0.998044 0.000138608 0 0.997607 0.000143788 0
0.997607 0.000143788 0 0.997493 0.000159281 0 0.997493 0.000159281 0 0.996982
0.000163463 0 0.996982 0.000163463 0 0.996878 0.000182136 0 0.996878 0.000182136
0 0.9963 0.000196592 0 0.9963 0.000196592 0 0.99619 0.000222137 0
0.99619 0.000222137 0 0.995552 0.000253533 0 0.995552 0.000253533 0 0.995428
0.000283169 0 0.995428 0.000283169 0 0.994728 0.000324835 0 0.994728 0.000324835
0 0.994574 0.000355131 0 0.994574 0.000355131 0 0.993811 0.000398844 0
0.993811 0.000398844 0 0.993599 0.000428532 0 0.993599 0.000428532 0 0.992759
0.000471675 0 0.992759 0.000471675 0 0.99246 0.000503031 0 0.99246 0.000503031
0 0.991523 0.000550082 0 0.991523 0.000550082 0 0.99111 0.000576625 0
0.99111 0.000576625 0 0.990047 0.000629805 0 0.990047 0.000629805 0 0.989471
0.000654865 0 0.989471 0.000654865 0 0.988236 0.000713594 0 0.988236 0.000713594
0 0.987419 0.000744273 0 0.987419 0.000744273 0 0.985921 0.000818628 0
0.985921 0.000818628 0 0.984735 0.000883682 0 0.984735 0.000883682 0 0.982838
0.00102104 0 0.982838 0.00102104 0 0.981097 0.00121463 0 0.981097 0.00121463
0 0.978602 0.00160339 0 0.978602 0.00160339 0 0.976058 0.00229765 0
0.976058 0.00229765 0 0.972856 0.00354816 0 0.972856 0.00354816 0 0.988453
0.00386165 0 0.988453 0.00386165 0 
