# vtk DataFile Version 2.0
symmBound
ASCII
DATASET POLYDATA
POINTS 82 float
-0.02 0 0 -0.018734 0 0 -0.018734 0 0.001 -0.02 0
0.001 -0.0175406 0 0 -0.0175406 0 0.001 -0.0164157 0 0
-0.0164157 0 0.001 -0.0153552 0 0 -0.0153552 0 0.001 -0.0143555
0 0 -0.0143555 0 0.001 -0.0134132 0 0 -0.0134132 0
0.001 -0.0125248 0 0 -0.0125248 0 0.001 -0.0116874 0 0
-0.0116874 0 0.001 -0.010898 0 0 -0.010898 0 0.001 -0.0101539
0 0 -0.0101539 0 0.001 -0.0094524 0 0 -0.0094524 0
0.001 -0.00879114 0 0 -0.00879114 0 0.001 -0.00816779 0 0
-0.00816779 0 0.001 -0.00758018 0 0 -0.00758018 0 0.001 -0.00702626
0 0 -0.00702626 0 0.001 -0.00650409 0 0 -0.00650409 0
0.001 -0.00601187 0 0 -0.00601187 0 0.001 -0.00554786 0 0
-0.00554786 0 0.001 -0.00511045 0 0 -0.00511045 0 0.001 -0.00469812
0 0 -0.00469812 0 0.001 -0.00430943 0 0 -0.00430943 0
0.001 -0.00394303 0 0 -0.00394303 0 0.001 -0.00359763 0 0
-0.00359763 0 0.001 -0.00327203 0 0 -0.00327203 0 0.001 -0.0029651
0 0 -0.0029651 0 0.001 -0.00267577 0 0 -0.00267577 0
0.001 -0.00240302 0 0 -0.00240302 0 0.001 -0.00214592 0 0
-0.00214592 0 0.001 -0.00190355 0 0 -0.00190355 0 0.001 -0.00167508
0 0 -0.00167508 0 0.001 -0.0014597 0 0 -0.0014597 0
0.001 -0.00125668 0 0 -0.00125668 0 0.001 -0.00106529 0 0
-0.00106529 0 0.001 -0.000884876 0 0 -0.000884876 0 0.001 -0.000714806
0 0 -0.000714806 0 0.001 -0.000554486 0 0 -0.000554486 0
0.001 -0.000403357 0 0 -0.000403357 0 0.001 -0.000260893 0 0
-0.000260893 0 0.001 -0.000126597 0 0 -0.000126597 0 0.001 0
0 0 0 0 0.001 
POLYGONS 40 200
4 0 1 2 3 4 1 4 5 2 4
4 6 7 5 4 6 8 9 7 4
8 10 11 9 4 10 12 13 11 4
12 14 15 13 4 14 16 17 15 4
16 18 19 17 4 18 20 21 19 4
20 22 23 21 4 22 24 25 23 4
24 26 27 25 4 26 28 29 27 4
28 30 31 29 4 30 32 33 31 4
32 34 35 33 4 34 36 37 35 4
36 38 39 37 4 38 40 41 39 4
40 42 43 41 4 42 44 45 43 4
44 46 47 45 4 46 48 49 47 4
48 50 51 49 4 50 52 53 51 4
52 54 55 53 4 54 56 57 55 4
56 58 59 57 4 58 60 61 59 4
60 62 63 61 4 62 64 65 63 4
64 66 67 65 4 66 68 69 67 4
68 70 71 69 4 70 72 73 71 4
72 74 75 73 4 74 76 77 75 4
76 78 79 77 4 78 80 81 79 
CELL_DATA 40
FIELD attributes 3
patchID 1 40 float
4 4 4 4 4 4 4 4 4 4 4
4 4 4 4 4 4 4 4 4 4
4 4 4 4 4 4 4 4 4 4
4 4 4 4 4 4 4 4 4 
p 1 40 float
0.0141598 0.0139422 0.0139281 0.0139562 0.0140441 0.0140825 0.01415 0.0141894 0.0142699 0.0143418 0.0144526
0.0145646 0.0147089 0.0148633 0.0150447 0.0152456 0.0154702 0.0157234 0.0159992 0.0163128 0.0166505
0.0170354 0.0174488 0.0179198 0.0184266 0.0190026 0.0196237 0.0203239 0.021082 0.0219352 0.0228689
0.0239274 0.0251073 0.0264668 0.0280187 0.0298424 0.0319661 0.0344793 0.0373676 0.0406046 
U 3 40 float
0.964131 0.000759489 0 1.03615 -0.000810694 0 0.965879 0.000772975 0 1.03418 -0.000788043
0 0.967202 0.000776743 0 1.03224 -0.000770729 0 0.968451 0.000786271 0
1.03046 -0.000750631 0 0.969603 0.000800245 0 1.02876 -0.000729245 0 0.970613
0.000817545 0 1.02711 -0.000705065 0 0.971474 0.000838565 0 1.02549 -0.000675985
0 0.972186 0.000863224 0 1.02389 -0.000639807 0 0.972745 0.000891116 0
1.02228 -0.000594318 0 0.973143 0.000921969 0 1.02064 -0.000537583 0 0.973367
0.00095543 0 1.01894 -0.000468442 0 0.973397 0.000990514 0 1.01714 -0.000388716
0 0.973204 0.00102476 0 1.01521 -0.000297598 0 0.972747 0.00106473 0
1.0131 -0.000189231 0 0.971983 0.00111687 0 1.01076 -6.4763e-05 0 0.970842
0.0011808 0 1.00808 7.55708e-05 0 0.969191 0.00126435 0 1.00491 0.000248792
0 0.966794 0.00141372 0 1.00096 0.000544897 0 0.963266 0.00181943 0
0.995826 0.00134206 0 0.958132 0.0032234 0 0.989302 0.00385651 0 
POINT_DATA  82
FIELD attributes 2
p 1 82 float
0.0141598 0.0140491 0.0140491 0.0141598 0.013935 0.013935 0.0139424 0.0139424 0.0140009 0.0140009 0.0140636
0.0140636 0.0141167 0.0141167 0.01417 0.01417 0.0142301 0.0142301 0.0143062 0.0143062 0.0143978
0.0143978 0.0145091 0.0145091 0.0146374 0.0146374 0.0147867 0.0147867 0.0149547 0.0149547 0.0151458
0.0151458 0.0153586 0.0153586 0.0155975 0.0155975 0.015862 0.015862 0.0161567 0.0161567 0.0164824
0.0164824 0.0168437 0.0168437 0.0172428 0.0172428 0.017685 0.017685 0.0181739 0.0181739 0.0187153
0.0187153 0.0193138 0.0193138 0.0199745 0.0199745 0.0207036 0.0207036 0.0215093 0.0215093 0.0224027
0.0224027 0.0233988 0.0233988 0.024518 0.024518 0.0257877 0.0257877 0.0272434 0.0272434 0.0289312
0.0289312 0.030905 0.030905 0.0332235 0.0332235 0.0359242 0.0359242 0.0389869 0.0389869 0.0406046
0.0406046 
U 3 82 float
0.964131 0.000759489 0 1.00078 -3.9546e-05 0 1.00078 -3.9546e-05 0 0.964131 0.000759489
0 1.00042 -5.4644e-06 0 1.00042 -5.4644e-06 0 1.00058 -2.00666e-05 0
1.00058 -2.00666e-05 0 1.00018 6.23474e-06 0 1.00018 6.23474e-06 0 1.00019
-8.07207e-06 0 1.00019 -8.07207e-06 0 0.999916 1.82424e-05 0 0.999916 1.82424e-05
0 0.999845 8.14328e-06 0 0.999845 8.14328e-06 0 0.999673 3.39172e-05 0
0.999673 3.39172e-05 0 0.999504 2.71454e-05 0 0.999504 2.71454e-05 0 0.999392
5.19808e-05 0 0.999392 5.19808e-05 0 0.999125 4.91175e-05 0 0.999125 4.91175e-05
0 0.999051 7.3401e-05 0 0.999051 7.3401e-05 0 0.998695 7.52956e-05 0
0.998695 7.52956e-05 0 0.998644 9.91997e-05 0 0.998644 9.91997e-05 0 0.998207
0.00010673 0 0.998207 0.00010673 0 0.998161 0.000130276 0 0.998161 0.000130276
0 0.997647 0.000144321 0 0.997647 0.000144321 0 0.997587 0.000167602 0
0.997587 0.000167602 0 0.996997 0.0001889 0 0.996997 0.0001889 0 0.996905
0.000211968 0 0.996905 0.000211968 0 0.996235 0.000240873 0 0.996235 0.000240873
0 0.996091 0.000263456 0 0.996091 0.000263456 0 0.995335 0.00029884 0
0.995335 0.00029884 0 0.995114 0.00031992 0 0.995114 0.00031992 0 0.994259
0.00036199 0 0.994259 0.00036199 0 0.993934 0.000385037 0 0.993934 0.000385037
0 0.992964 0.000436535 0 0.992964 0.000436535 0 0.992507 0.000464951 0
0.992507 0.000464951 0 0.9914 0.000525138 0 0.9914 0.000525138 0 0.990771
0.000558883 0 0.990771 0.000558883 0 0.989484 0.000627504 0 0.989484 0.000627504
0 0.988614 0.000670616 0 0.988614 0.000670616 0 0.987067 0.000756069 0
0.987067 0.000756069 0 0.985835 0.000831768 0 0.985835 0.000831768 0 0.98389
0.000978968 0 0.98389 0.000978968 0 0.9821 0.00118261 0 0.9821 0.00118261
0 0.979556 0.0015806 0 0.979556 0.0015806 0 0.976968 0.00228325 0
0.976968 0.00228325 0 0.973724 0.00354012 0 0.973724 0.00354012 0 0.989302
0.00385651 0 0.989302 0.00385651 0 
