# vtk DataFile Version 2.0
symmBound
ASCII
DATASET POLYDATA
POINTS 82 float
-0.02 0 0 -0.018734 0 0 -0.018734 0 0.001 -0.02 0
0.001 -0.0175406 0 0 -0.0175406 0 0.001 -0.0164157 0 0
-0.0164157 0 0.001 -0.0153552 0 0 -0.0153552 0 0.001 -0.0143555
0 0 -0.0143555 0 0.001 -0.0134132 0 0 -0.0134132 0
0.001 -0.0125248 0 0 -0.0125248 0 0.001 -0.0116874 0 0
-0.0116874 0 0.001 -0.010898 0 0 -0.010898 0 0.001 -0.0101539
0 0 -0.0101539 0 0.001 -0.0094524 0 0 -0.0094524 0
0.001 -0.00879114 0 0 -0.00879114 0 0.001 -0.00816779 0 0
-0.00816779 0 0.001 -0.00758018 0 0 -0.00758018 0 0.001 -0.00702626
0 0 -0.00702626 0 0.001 -0.00650409 0 0 -0.00650409 0
0.001 -0.00601187 0 0 -0.00601187 0 0.001 -0.00554786 0 0
-0.00554786 0 0.001 -0.00511045 0 0 -0.00511045 0 0.001 -0.00469812
0 0 -0.00469812 0 0.001 -0.00430943 0 0 -0.00430943 0
0.001 -0.00394303 0 0 -0.00394303 0 0.001 -0.00359763 0 0
-0.00359763 0 0.001 -0.00327203 0 0 -0.00327203 0 0.001 -0.0029651
0 0 -0.0029651 0 0.001 -0.00267577 0 0 -0.00267577 0
0.001 -0.00240302 0 0 -0.00240302 0 0.001 -0.00214592 0 0
-0.00214592 0 0.001 -0.00190355 0 0 -0.00190355 0 0.001 -0.00167508
0 0 -0.00167508 0 0.001 -0.0014597 0 0 -0.0014597 0
0.001 -0.00125668 0 0 -0.00125668 0 0.001 -0.00106529 0 0
-0.00106529 0 0.001 -0.000884876 0 0 -0.000884876 0 0.001 -0.000714806
0 0 -0.000714806 0 0.001 -0.000554486 0 0 -0.000554486 0
0.001 -0.000403357 0 0 -0.000403357 0 0.001 -0.000260893 0 0
-0.000260893 0 0.001 -0.000126597 0 0 -0.000126597 0 0.001 0
0 0 0 0 0.001 
POLYGONS 40 200
4 0 1 2 3 4 1 4 5 2 4
4 6 7 5 4 6 8 9 7 4
8 10 11 9 4 10 12 13 11 4
12 14 15 13 4 14 16 17 15 4
16 18 19 17 4 18 20 21 19 4
20 22 23 21 4 22 24 25 23 4
24 26 27 25 4 26 28 29 27 4
28 30 31 29 4 30 32 33 31 4
32 34 35 33 4 34 36 37 35 4
36 38 39 37 4 38 40 41 39 4
40 42 43 41 4 42 44 45 43 4
44 46 47 45 4 46 48 49 47 4
48 50 51 49 4 50 52 53 51 4
52 54 55 53 4 54 56 57 55 4
56 58 59 57 4 58 60 61 59 4
60 62 63 61 4 62 64 65 63 4
64 66 67 65 4 66 68 69 67 4
68 70 71 69 4 70 72 73 71 4
72 74 75 73 4 74 76 77 75 4
76 78 79 77 4 78 80 81 79 
CELL_DATA 40
FIELD attributes 3
patchID 1 40 float
4 4 4 4 4 4 4 4 4 4 4
4 4 4 4 4 4 4 4 4 4
4 4 4 4 4 4 4 4 4 4
4 4 4 4 4 4 4 4 4 
p 1 40 float
0.0141487 0.0139317 0.0139183 0.0139475 0.0140366 0.0140763 0.0141453 0.0141862 0.0142681 0.0143415 0.0144538
0.0145672 0.0147129 0.0148685 0.0150511 0.0152531 0.0154786 0.0157327 0.0160092 0.0163234 0.0166617
0.017047 0.0174608 0.017932 0.0184391 0.0190151 0.0196364 0.0203366 0.0210947 0.0219477 0.0228813
0.0239397 0.0251195 0.0264788 0.0280306 0.0298542 0.0319778 0.0344909 0.037379 0.0406159 
U 3 40 float
0.96413 0.000759236 0 1.03615 -0.000810415 0 0.965876 0.000772794 0 1.03418 -0.000787705
0 0.967198 0.000776673 0 1.03223 -0.000770298 0 0.968444 0.000786335 0
1.03045 -0.000750083 0 0.969593 0.00080046 0 1.02875 -0.000728568 0 0.9706
0.000817919 0 1.0271 -0.000704253 0 0.971458 0.000839102 0 1.02547 -0.00067504
0 0.972167 0.000863926 0 1.02387 -0.000638732 0 0.972724 0.000891978 0
1.02226 -0.000593144 0 0.973121 0.000922959 0 1.02061 -0.000536325 0 0.973344
0.000956554 0 1.01891 -0.000467117 0 0.973374 0.000991713 0 1.01712 -0.000387353
0 0.97318 0.00102604 0 1.01519 -0.00029618 0 0.972722 0.00106611 0
1.01308 -0.000187754 0 0.971959 0.00111834 0 1.01073 -6.32899e-05 0 0.970817
0.0011822 0 1.00806 7.69608e-05 0 0.969166 0.00126564 0 1.00488 0.000250078
0 0.96677 0.0014149 0 1.00093 0.000546073 0 0.963242 0.00182048 0
0.995802 0.00134306 0 0.958108 0.00322424 0 0.989278 0.00385729 0 
POINT_DATA  82
FIELD attributes 2
p 1 82 float
0.0141487 0.0140383 0.0140383 0.0141487 0.0139249 0.0139249 0.0139331 0.0139331 0.0139927 0.0139927 0.0140567
0.0140567 0.0141112 0.0141112 0.014166 0.014166 0.0142276 0.0142276 0.0143052 0.0143052 0.0143982
0.0143982 0.014511 0.014511 0.0146407 0.0146407 0.0147913 0.0147913 0.0149605 0.0149605 0.0151528
0.0151528 0.0153665 0.0153665 0.0156063 0.0156063 0.0158716 0.0158716 0.016167 0.016167 0.0164933
0.0164933 0.016855 0.016855 0.0172546 0.0172546 0.0176971 0.0176971 0.0181862 0.0181862 0.0187278
0.0187278 0.0193264 0.0193264 0.0199871 0.0199871 0.0207163 0.0207163 0.0215219 0.0215219 0.0224152
0.0224152 0.0234112 0.0234112 0.0245302 0.0245302 0.0257998 0.0257998 0.0272554 0.0272554 0.0289431
0.0289431 0.0309167 0.0309167 0.0332351 0.0332351 0.0359358 0.0359358 0.0389983 0.0389983 0.0406159
0.0406159 
U 3 82 float
0.96413 0.000759236 0 1.00078 -3.95282e-05 0 1.00078 -3.95282e-05 0 0.96413 0.000759236
0 1.00042 -5.41915e-06 0 1.00042 -5.41915e-06 0 1.00057 -1.99841e-05 0
1.00057 -1.99841e-05 0 1.00018 6.36506e-06 0 1.00018 6.36506e-06 0 1.00018
-7.88807e-06 0 1.00018 -7.88807e-06 0 0.99991 1.84877e-05 0 0.99991 1.84877e-05
0 0.999838 8.45224e-06 0 0.999838 8.45224e-06 0 0.999664 3.42968e-05 0
0.999664 3.42968e-05 0 0.999494 2.75943e-05 0 0.999494 2.75943e-05 0 0.99938
5.25051e-05 0 0.99938 5.25051e-05 0 0.999112 4.97128e-05 0 0.999112 4.97128e-05
0 0.999037 7.40745e-05 0 0.999037 7.40745e-05 0 0.998679 7.60381e-05 0
0.998679 7.60381e-05 0 0.998627 0.000100022 0 0.998627 0.000100022 0 0.998189
0.00010762 0 0.998189 0.00010762 0 0.998142 0.000131244 0 0.998142 0.000131244
0 0.997626 0.00014534 0 0.997626 0.00014534 0 0.997566 0.000168684 0
0.997566 0.000168684 0 0.996975 0.000190025 0 0.996975 0.000190025 0 0.996883
0.000213159 0 0.996883 0.000213159 0 0.996212 0.000242098 0 0.996212 0.000242098
0 0.996068 0.000264718 0 0.996068 0.000264718 0 0.995311 0.000300121 0
0.995311 0.000300121 0 0.99509 0.000321242 0 0.99509 0.000321242 0 0.994235
0.000363339 0 0.994235 0.000363339 0 0.993909 0.000386434 0 0.993909 0.000386434
0 0.992939 0.000437963 0 0.992939 0.000437963 0 0.992483 0.000466426 0
0.992483 0.000466426 0 0.991375 0.000526611 0 0.991375 0.000526611 0 0.990747
0.000560319 0 0.990747 0.000560319 0 0.989459 0.000628898 0 0.989459 0.000628898
0 0.988589 0.000671955 0 0.988589 0.000671955 0 0.987043 0.000757356 0
0.987043 0.000757356 0 0.98581 0.000833002 0 0.98581 0.000833002 0 0.983866
0.000980147 0 0.983866 0.000980147 0 0.982075 0.00118372 0 0.982075 0.00118372
0 0.979532 0.00158162 0 0.979532 0.00158162 0 0.976944 0.00228417 0
0.976944 0.00228417 0 0.9737 0.00354092 0 0.9737 0.00354092 0 0.989278
0.00385729 0 0.989278 0.00385729 0 
