# vtk DataFile Version 2.0
symmBound
ASCII
DATASET POLYDATA
POINTS 82 float
-0.02 0 0 -0.018734 0 0 -0.018734 0 0.001 -0.02 0
0.001 -0.0175406 0 0 -0.0175406 0 0.001 -0.0164157 0 0
-0.0164157 0 0.001 -0.0153552 0 0 -0.0153552 0 0.001 -0.0143555
0 0 -0.0143555 0 0.001 -0.0134132 0 0 -0.0134132 0
0.001 -0.0125248 0 0 -0.0125248 0 0.001 -0.0116874 0 0
-0.0116874 0 0.001 -0.010898 0 0 -0.010898 0 0.001 -0.0101539
0 0 -0.0101539 0 0.001 -0.0094524 0 0 -0.0094524 0
0.001 -0.00879114 0 0 -0.00879114 0 0.001 -0.00816779 0 0
-0.00816779 0 0.001 -0.00758018 0 0 -0.00758018 0 0.001 -0.00702626
0 0 -0.00702626 0 0.001 -0.00650409 0 0 -0.00650409 0
0.001 -0.00601187 0 0 -0.00601187 0 0.001 -0.00554786 0 0
-0.00554786 0 0.001 -0.00511045 0 0 -0.00511045 0 0.001 -0.00469812
0 0 -0.00469812 0 0.001 -0.00430943 0 0 -0.00430943 0
0.001 -0.00394303 0 0 -0.00394303 0 0.001 -0.00359763 0 0
-0.00359763 0 0.001 -0.00327203 0 0 -0.00327203 0 0.001 -0.0029651
0 0 -0.0029651 0 0.001 -0.00267577 0 0 -0.00267577 0
0.001 -0.00240302 0 0 -0.00240302 0 0.001 -0.00214592 0 0
-0.00214592 0 0.001 -0.00190355 0 0 -0.00190355 0 0.001 -0.00167508
0 0 -0.00167508 0 0.001 -0.0014597 0 0 -0.0014597 0
0.001 -0.00125668 0 0 -0.00125668 0 0.001 -0.00106529 0 0
-0.00106529 0 0.001 -0.000884876 0 0 -0.000884876 0 0.001 -0.000714806
0 0 -0.000714806 0 0.001 -0.000554486 0 0 -0.000554486 0
0.001 -0.000403357 0 0 -0.000403357 0 0.001 -0.000260893 0 0
-0.000260893 0 0.001 -0.000126597 0 0 -0.000126597 0 0.001 0
0 0 0 0 0.001 
POLYGONS 40 200
4 0 1 2 3 4 1 4 5 2 4
4 6 7 5 4 6 8 9 7 4
8 10 11 9 4 10 12 13 11 4
12 14 15 13 4 14 16 17 15 4
16 18 19 17 4 18 20 21 19 4
20 22 23 21 4 22 24 25 23 4
24 26 27 25 4 26 28 29 27 4
28 30 31 29 4 30 32 33 31 4
32 34 35 33 4 34 36 37 35 4
36 38 39 37 4 38 40 41 39 4
40 42 43 41 4 42 44 45 43 4
44 46 47 45 4 46 48 49 47 4
48 50 51 49 4 50 52 53 51 4
52 54 55 53 4 54 56 57 55 4
56 58 59 57 4 58 60 61 59 4
60 62 63 61 4 62 64 65 63 4
64 66 67 65 4 66 68 69 67 4
68 70 71 69 4 70 72 73 71 4
72 74 75 73 4 74 76 77 75 4
76 78 79 77 4 78 80 81 79 
CELL_DATA 40
FIELD attributes 3
patchID 1 40 float
4 4 4 4 4 4 4 4 4 4 4
4 4 4 4 4 4 4 4 4 4
4 4 4 4 4 4 4 4 4 4
4 4 4 4 4 4 4 4 4 
p 1 40 float
0.0141173 0.0139011 0.013889 0.0139199 0.0140108 0.0140526 0.0141236 0.0141665 0.0142502 0.0143253 0.0144389
0.0145536 0.0147002 0.0148566 0.0150398 0.0152421 0.0154678 0.015722 0.0159985 0.0163126 0.0166506
0.0170356 0.0174491 0.0179201 0.0184268 0.0190026 0.0196235 0.0203234 0.0210813 0.021934 0.0228674
0.0239256 0.0251052 0.0264645 0.0280162 0.0298397 0.0319632 0.0344762 0.0373643 0.0406012 
U 3 40 float
0.964128 0.000759053 0 1.03615 -0.000810176 0 0.965872 0.00077273 0 1.03417 -0.00078735
0 0.96719 0.000776773 0 1.03223 -0.000769791 0 0.968433 0.000786623 0
1.03044 -0.000749413 0 0.969578 0.000800934 0 1.02874 -0.000727747 0 0.970581
0.000818553 0 1.02708 -0.000703308 0 0.971438 0.000839869 0 1.02545 -0.000674002
0 0.972146 0.000864796 0 1.02385 -0.000637625 0 0.972702 0.000892929 0
1.02223 -0.000592011 0 0.973099 0.000923952 0 1.02059 -0.000535173 0 0.973322
0.000957596 0 1.01889 -0.000465956 0 0.973353 0.000992775 0 1.0171 -0.00038619
0 0.973159 0.00102713 0 1.01517 -0.000295006 0 0.972702 0.00106724 0
1.01306 -0.000186553 0 0.971939 0.00111953 0 1.01071 -6.21006e-05 0 0.970798
0.00118333 0 1.00804 7.8086e-05 0 0.969148 0.00126668 0 1.00487 0.000251128
0 0.966752 0.00141587 0 1.00092 0.000547045 0 0.963224 0.00182134 0
0.995784 0.00134389 0 0.95809 0.00322495 0 0.989259 0.00385795 0 
POINT_DATA  82
FIELD attributes 2
p 1 82 float
0.0141173 0.0140073 0.0140073 0.0141173 0.0138949 0.0138949 0.0139047 0.0139047 0.013966 0.013966 0.014032
0.014032 0.0140886 0.0140886 0.0141453 0.0141453 0.0142088 0.0142088 0.0142881 0.0142881 0.0143827
0.0143827 0.0144968 0.0144968 0.0146275 0.0146275 0.014779 0.014779 0.0149488 0.0149488 0.0151416
0.0151416 0.0153557 0.0153557 0.0155956 0.0155956 0.015861 0.015861 0.0161563 0.0161563 0.0164823
0.0164823 0.0168438 0.0168438 0.0172431 0.0172431 0.0176853 0.0176853 0.0181741 0.0181741 0.0187154
0.0187154 0.0193137 0.0193137 0.0199742 0.0199742 0.020703 0.020703 0.0215083 0.0215083 0.0224014
0.0224014 0.0233972 0.0233972 0.0245161 0.0245161 0.0257855 0.0257855 0.027241 0.027241 0.0289287
0.0289287 0.0309022 0.0309022 0.0332205 0.0332205 0.0359211 0.0359211 0.0389836 0.0389836 0.0406012
0.0406012 
U 3 82 float
0.964128 0.000759053 0 1.00078 -3.94961e-05 0 1.00078 -3.94961e-05 0 0.964128 0.000759053
0 1.00042 -5.33432e-06 0 1.00042 -5.33432e-06 0 1.00057 -1.98352e-05 0
1.00057 -1.98352e-05 0 1.00017 6.59077e-06 0 1.00017 6.59077e-06 0 1.00017
-7.58176e-06 0 1.00017 -7.58176e-06 0 0.999901 1.88839e-05 0 0.999901 1.88839e-05
0 0.999827 8.93383e-06 0 0.999827 8.93383e-06 0 0.999652 3.48676e-05 0
0.999652 3.48676e-05 0 0.99948 2.82438e-05 0 0.99948 2.82438e-05 0 0.999364
5.32318e-05 0 0.999364 5.32318e-05 0 0.999094 5.05041e-05 0 0.999094 5.05041e-05
0 0.999018 7.49298e-05 0 0.999018 7.49298e-05 0 0.99866 7.69419e-05 0
0.99866 7.69419e-05 0 0.998607 0.000100976 0 0.998607 0.000100976 0 0.998168
0.000108609 0 0.998168 0.000108609 0 0.99812 0.000132272 0 0.99812 0.000132272
0 0.997604 0.000146383 0 0.997604 0.000146383 0 0.997544 0.000169747 0
0.997544 0.000169747 0 0.996953 0.000191098 0 0.996953 0.000191098 0 0.996861
0.000214256 0 0.996861 0.000214256 0 0.996191 0.0002432 0 0.996191 0.0002432
0 0.996047 0.000265829 0 0.996047 0.000265829 0 0.99529 0.000301234 0
0.99529 0.000301234 0 0.995069 0.000322368 0 0.995069 0.000322368 0 0.994214
0.000364472 0 0.994214 0.000364472 0 0.993889 0.000387588 0 0.993889 0.000387588
0 0.99292 0.00043913 0 0.99292 0.00043913 0 0.992463 0.000467622 0
0.992463 0.000467622 0 0.991356 0.000527801 0 0.991356 0.000527801 0 0.990728
0.000561479 0 0.990728 0.000561479 0 0.989441 0.000630026 0 0.989441 0.000630026
0 0.988571 0.000673039 0 0.988571 0.000673039 0 0.987025 0.000758402 0
0.987025 0.000758402 0 0.985792 0.000834011 0 0.985792 0.000834011 0 0.983847
0.000981117 0 0.983847 0.000981117 0 0.982057 0.00118464 0 0.982057 0.00118464
0 0.979514 0.00158247 0 0.979514 0.00158247 0 0.976926 0.00228494 0
0.976926 0.00228494 0 0.973682 0.0035416 0 0.973682 0.0035416 0 0.989259
0.00385795 0 0.989259 0.00385795 0 
