# vtk DataFile Version 2.0
symmBound
ASCII
DATASET POLYDATA
POINTS 82 float
-0.02 0 0 -0.018734 0 0 -0.018734 0 0.001 -0.02 0
0.001 -0.0175406 0 0 -0.0175406 0 0.001 -0.0164157 0 0
-0.0164157 0 0.001 -0.0153552 0 0 -0.0153552 0 0.001 -0.0143555
0 0 -0.0143555 0 0.001 -0.0134132 0 0 -0.0134132 0
0.001 -0.0125248 0 0 -0.0125248 0 0.001 -0.0116874 0 0
-0.0116874 0 0.001 -0.010898 0 0 -0.010898 0 0.001 -0.0101539
0 0 -0.0101539 0 0.001 -0.0094524 0 0 -0.0094524 0
0.001 -0.00879114 0 0 -0.00879114 0 0.001 -0.00816779 0 0
-0.00816779 0 0.001 -0.00758018 0 0 -0.00758018 0 0.001 -0.00702626
0 0 -0.00702626 0 0.001 -0.00650409 0 0 -0.00650409 0
0.001 -0.00601187 0 0 -0.00601187 0 0.001 -0.00554786 0 0
-0.00554786 0 0.001 -0.00511045 0 0 -0.00511045 0 0.001 -0.00469812
0 0 -0.00469812 0 0.001 -0.00430943 0 0 -0.00430943 0
0.001 -0.00394303 0 0 -0.00394303 0 0.001 -0.00359763 0 0
-0.00359763 0 0.001 -0.00327203 0 0 -0.00327203 0 0.001 -0.0029651
0 0 -0.0029651 0 0.001 -0.00267577 0 0 -0.00267577 0
0.001 -0.00240302 0 0 -0.00240302 0 0.001 -0.00214592 0 0
-0.00214592 0 0.001 -0.00190355 0 0 -0.00190355 0 0.001 -0.00167508
0 0 -0.00167508 0 0.001 -0.0014597 0 0 -0.0014597 0
0.001 -0.00125668 0 0 -0.00125668 0 0.001 -0.00106529 0 0
-0.00106529 0 0.001 -0.000884876 0 0 -0.000884876 0 0.001 -0.000714806
0 0 -0.000714806 0 0.001 -0.000554486 0 0 -0.000554486 0
0.001 -0.000403357 0 0 -0.000403357 0 0.001 -0.000260893 0 0
-0.000260893 0 0.001 -0.000126597 0 0 -0.000126597 0 0.001 0
0 0 0 0 0.001 
POLYGONS 40 200
4 0 1 2 3 4 1 4 5 2 4
4 6 7 5 4 6 8 9 7 4
8 10 11 9 4 10 12 13 11 4
12 14 15 13 4 14 16 17 15 4
16 18 19 17 4 18 20 21 19 4
20 22 23 21 4 22 24 25 23 4
24 26 27 25 4 26 28 29 27 4
28 30 31 29 4 30 32 33 31 4
32 34 35 33 4 34 36 37 35 4
36 38 39 37 4 38 40 41 39 4
40 42 43 41 4 42 44 45 43 4
44 46 47 45 4 46 48 49 47 4
48 50 51 49 4 50 52 53 51 4
52 54 55 53 4 54 56 57 55 4
56 58 59 57 4 58 60 61 59 4
60 62 63 61 4 62 64 65 63 4
64 66 67 65 4 66 68 69 67 4
68 70 71 69 4 70 72 73 71 4
72 74 75 73 4 74 76 77 75 4
76 78 79 77 4 78 80 81 79 
CELL_DATA 40
FIELD attributes 3
patchID 1 40 float
4 4 4 4 4 4 4 4 4 4 4
4 4 4 4 4 4 4 4 4 4
4 4 4 4 4 4 4 4 4 4
4 4 4 4 4 4 4 4 4 
p 1 40 float
0.0141861 0.0139678 0.0139527 0.0139796 0.014066 0.0141025 0.014168 0.0142051 0.0142831 0.0143525 0.0144607
0.0145699 0.0147116 0.0148633 0.0150422 0.0152405 0.0154627 0.0157137 0.0159875 0.0162992 0.0166353
0.0170186 0.0174307 0.0179005 0.0184063 0.0189813 0.0196017 0.0203013 0.0210591 0.0219119 0.0228455
0.0239039 0.0250838 0.0264431 0.027995 0.0298187 0.0319425 0.0344558 0.0373442 0.0405814 
U 3 40 float
0.964134 0.000759994 0 1.03614 -0.000811221 0 0.965883 0.000773386 0 1.03418 -0.000788629
0 0.967209 0.000777007 0 1.03224 -0.000771434 0 0.968461 0.000786343 0
1.03047 -0.000751501 0 0.969617 0.000800081 0 1.02877 -0.000730327 0 0.970632
0.000817111 0 1.02713 -0.00070639 0 0.971498 0.000837827 0 1.02551 -0.000677572
0 0.972215 0.00086216 0 1.02392 -0.000641665 0 0.972779 0.000889719 0
1.02231 -0.000596414 0 0.973181 0.000920264 0 1.02068 -0.00053989 0 0.973409
0.000953416 0 1.01898 -0.000470915 0 0.973442 0.000988314 0 1.01719 -0.000391288
0 0.973251 0.00102236 0 1.01526 -0.00030032 0 0.972796 0.00106208 0
1.01315 -0.000192111 0 0.972033 0.001114 0 1.01081 -6.76564e-05 0 0.970892
0.00117806 0 1.00813 7.28265e-05 0 0.969241 0.00126181 0 1.00496 0.000246239
0 0.966845 0.00141137 0 1.00101 0.000542552 0 0.963317 0.00181735 0
0.995877 0.00134005 0 0.958183 0.00322173 0 0.989353 0.00385496 0 
POINT_DATA  82
FIELD attributes 2
p 1 82 float
0.0141861 0.014075 0.014075 0.0141861 0.0139601 0.0139601 0.0139664 0.0139664 0.0140235 0.0140235 0.0140845
0.0140845 0.0141357 0.0141357 0.0141868 0.0141868 0.0142446 0.0142446 0.0143182 0.0143182 0.0144071
0.0144071 0.0145158 0.0145158 0.0146414 0.0146414 0.0147881 0.0147881 0.0149534 0.0149534 0.015142
0.015142 0.0153523 0.0153523 0.0155889 0.0155889 0.0158513 0.0158513 0.016144 0.016144 0.0164679
0.0164679 0.0168276 0.0168276 0.0172254 0.0172254 0.0176663 0.0176663 0.0181541 0.0181541 0.0186945
0.0186945 0.0192922 0.0192922 0.0199522 0.0199522 0.0206808 0.0206808 0.0214862 0.0214862 0.0223794
0.0223794 0.0233754 0.0233754 0.0244945 0.0244945 0.0257641 0.0257641 0.0272198 0.0272198 0.0289076
0.0289076 0.0308814 0.0308814 0.0331999 0.0331999 0.0359008 0.0359008 0.0389636 0.0389636 0.0405814
0.0405814 
U 3 82 float
0.964134 0.000759994 0 1.00078 -3.95663e-05 0 1.00078 -3.95663e-05 0 0.964134 0.000759994
0 1.00042 -5.51488e-06 0 1.00042 -5.51488e-06 0 1.00058 -2.01628e-05 0
1.00058 -2.01628e-05 0 1.00018 6.07973e-06 0 1.00018 6.07973e-06 0 1.00019
-8.29923e-06 0 1.00019 -8.29923e-06 0 0.999923 1.79314e-05 0 0.999923 1.79314e-05
0 0.999854 7.73838e-06 0 0.999854 7.73838e-06 0 0.999685 3.34047e-05 0
0.999685 3.34047e-05 0 0.999519 2.65179e-05 0 0.999519 2.65179e-05 0 0.999408
5.12263e-05 0 0.999408 5.12263e-05 0 0.999144 4.82338e-05 0 0.999144 4.82338e-05
0 0.999073 7.2372e-05 0 0.999073 7.2372e-05 0 0.99872 7.41296e-05 0
0.99872 7.41296e-05 0 0.998672 9.78759e-05 0 0.998672 9.78759e-05 0 0.998237
0.000105267 0 0.998237 0.000105267 0 0.998193 0.00012865 0 0.998193 0.00012865
0 0.997681 0.000142573 0 0.997681 0.000142573 0 0.997624 0.000165703 0
0.997624 0.000165703 0 0.997036 0.000186893 0 0.997036 0.000186893 0 0.996946
0.000209809 0 0.996946 0.000209809 0 0.996278 0.000238629 0 0.996278 0.000238629
0 0.996135 0.00026112 0 0.996135 0.00026112 0 0.99538 0.000296453 0
0.99538 0.000296453 0 0.99516 0.000317432 0 0.99516 0.000317432 0 0.994306
0.000359426 0 0.994306 0.000359426 0 0.993982 0.000382354 0 0.993982 0.000382354
0 0.993013 0.000433773 0 0.993013 0.000433773 0 0.992557 0.000462074 0
0.992557 0.000462074 0 0.991449 0.000522255 0 0.991449 0.000522255 0 0.990821
0.000556063 0 0.990821 0.000556063 0 0.989534 0.000624758 0 0.989534 0.000624758
0 0.988664 0.000667974 0 0.988664 0.000667974 0 0.987118 0.000753523 0
0.987118 0.000753523 0 0.985886 0.000829319 0 0.985886 0.000829319 0 0.983941
0.000976623 0 0.983941 0.000976623 0 0.982151 0.0011804 0 0.982151 0.0011804
0 0.979607 0.00157855 0 0.979607 0.00157855 0 0.97702 0.00228141 0
0.97702 0.00228141 0 0.973776 0.0035385 0 0.973776 0.0035385 0 0.989353
0.00385496 0 0.989353 0.00385496 0 
