# vtk DataFile Version 2.0
symmBound
ASCII
DATASET POLYDATA
POINTS 82 float
-0.02 0 0 -0.018734 0 0 -0.018734 0 0.001 -0.02 0
0.001 -0.0175406 0 0 -0.0175406 0 0.001 -0.0164157 0 0
-0.0164157 0 0.001 -0.0153552 0 0 -0.0153552 0 0.001 -0.0143555
0 0 -0.0143555 0 0.001 -0.0134132 0 0 -0.0134132 0
0.001 -0.0125248 0 0 -0.0125248 0 0.001 -0.0116874 0 0
-0.0116874 0 0.001 -0.010898 0 0 -0.010898 0 0.001 -0.0101539
0 0 -0.0101539 0 0.001 -0.0094524 0 0 -0.0094524 0
0.001 -0.00879114 0 0 -0.00879114 0 0.001 -0.00816779 0 0
-0.00816779 0 0.001 -0.00758018 0 0 -0.00758018 0 0.001 -0.00702626
0 0 -0.00702626 0 0.001 -0.00650409 0 0 -0.00650409 0
0.001 -0.00601187 0 0 -0.00601187 0 0.001 -0.00554786 0 0
-0.00554786 0 0.001 -0.00511045 0 0 -0.00511045 0 0.001 -0.00469812
0 0 -0.00469812 0 0.001 -0.00430943 0 0 -0.00430943 0
0.001 -0.00394303 0 0 -0.00394303 0 0.001 -0.00359763 0 0
-0.00359763 0 0.001 -0.00327203 0 0 -0.00327203 0 0.001 -0.0029651
0 0 -0.0029651 0 0.001 -0.00267577 0 0 -0.00267577 0
0.001 -0.00240302 0 0 -0.00240302 0 0.001 -0.00214592 0 0
-0.00214592 0 0.001 -0.00190355 0 0 -0.00190355 0 0.001 -0.00167508
0 0 -0.00167508 0 0.001 -0.0014597 0 0 -0.0014597 0
0.001 -0.00125668 0 0 -0.00125668 0 0.001 -0.00106529 0 0
-0.00106529 0 0.001 -0.000884876 0 0 -0.000884876 0 0.001 -0.000714806
0 0 -0.000714806 0 0.001 -0.000554486 0 0 -0.000554486 0
0.001 -0.000403357 0 0 -0.000403357 0 0.001 -0.000260893 0 0
-0.000260893 0 0.001 -0.000126597 0 0 -0.000126597 0 0.001 0
0 0 0 0 0.001 
POLYGONS 40 200
4 0 1 2 3 4 1 4 5 2 4
4 6 7 5 4 6 8 9 7 4
8 10 11 9 4 10 12 13 11 4
12 14 15 13 4 14 16 17 15 4
16 18 19 17 4 18 20 21 19 4
20 22 23 21 4 22 24 25 23 4
24 26 27 25 4 26 28 29 27 4
28 30 31 29 4 30 32 33 31 4
32 34 35 33 4 34 36 37 35 4
36 38 39 37 4 38 40 41 39 4
40 42 43 41 4 42 44 45 43 4
44 46 47 45 4 46 48 49 47 4
48 50 51 49 4 50 52 53 51 4
52 54 55 53 4 54 56 57 55 4
56 58 59 57 4 58 60 61 59 4
60 62 63 61 4 62 64 65 63 4
64 66 67 65 4 66 68 69 67 4
68 70 71 69 4 70 72 73 71 4
72 74 75 73 4 74 76 77 75 4
76 78 79 77 4 78 80 81 79 
CELL_DATA 40
FIELD attributes 3
patchID 1 40 float
4 4 4 4 4 4 4 4 4 4 4
4 4 4 4 4 4 4 4 4 4
4 4 4 4 4 4 4 4 4 4
4 4 4 4 4 4 4 4 4 
p 1 40 float
0.0141865 0.0139683 0.0139535 0.0139806 0.0140673 0.0141042 0.0141701 0.0142077 0.0142862 0.014356 0.0144647
0.0145745 0.0147166 0.0148688 0.0150482 0.0152469 0.0154696 0.015721 0.0159951 0.0163071 0.0166434
0.017027 0.0174394 0.0179093 0.0184152 0.0189903 0.0196108 0.0203105 0.0210683 0.0219211 0.0228546
0.0239129 0.0250927 0.026452 0.0280038 0.0298274 0.0319511 0.0344643 0.0373526 0.0405897 
U 3 40 float
0.964133 0.000759818 0 1.03615 -0.000811052 0 0.965881 0.000773245 0 1.03418 -0.000788453
0 0.967207 0.000776914 0 1.03224 -0.000771234 0 0.968458 0.000786307 0
1.03046 -0.00075126 0 0.969614 0.000800115 0 1.02877 -0.000730031 0 0.970627
0.000817224 0 1.02712 -0.000706027 0 0.971492 0.000838031 0 1.02551 -0.000677133
0 0.972208 0.000862463 0 1.02391 -0.000641144 0 0.97277 0.000890123 0
1.0223 -0.000595815 0 0.973172 0.000920766 0 1.02067 -0.000539218 0 0.973399
0.000954016 0 1.01897 -0.000470184 0 0.973431 0.000988978 0 1.01718 -0.000390515
0 0.973239 0.00102309 0 1.01525 -0.000299489 0 0.972783 0.0010629 0
1.01314 -0.000191223 0 0.97202 0.00111488 0 1.01079 -6.67567e-05 0 0.970879
0.00117891 0 1.00812 7.36895e-05 0 0.969228 0.00126261 0 1.00495 0.000247051
0 0.966832 0.00141212 0 1.001 0.000543302 0 0.963304 0.00181802 0
0.995864 0.0013407 0 0.95817 0.00322227 0 0.98934 0.00385546 0 
POINT_DATA  82
FIELD attributes 2
p 1 82 float
0.0141865 0.0140754 0.0140754 0.0141865 0.0139608 0.0139608 0.0139673 0.0139673 0.0140246 0.0140246 0.014086
0.014086 0.0141376 0.0141376 0.0141891 0.0141891 0.0142474 0.0142474 0.0143215 0.0143215 0.0144109
0.0144109 0.0145201 0.0145201 0.0146462 0.0146462 0.0147933 0.0147933 0.0149591 0.0149591 0.0151482
0.0151482 0.0153589 0.0153589 0.0155959 0.0155959 0.0158587 0.0158587 0.0161518 0.0161518 0.016476
0.016476 0.016836 0.016836 0.0172339 0.0172339 0.017675 0.017675 0.0181629 0.0181629 0.0187035
0.0187035 0.0193013 0.0193013 0.0199613 0.0199613 0.02069 0.02069 0.0214953 0.0214953 0.0223885
0.0223885 0.0233844 0.0233844 0.0245035 0.0245035 0.025773 0.025773 0.0272286 0.0272286 0.0289163
0.0289163 0.03089 0.03089 0.0332085 0.0332085 0.0359093 0.0359093 0.038972 0.038972 0.0405897
0.0405897 
U 3 82 float
0.964133 0.000759818 0 1.00078 -3.95664e-05 0 1.00078 -3.95664e-05 0 0.964133 0.000759818
0 1.00042 -5.50353e-06 0 1.00042 -5.50353e-06 0 1.00058 -2.01427e-05 0
1.00058 -2.01427e-05 0 1.00018 6.11893e-06 0 1.00018 6.11893e-06 0 1.00019
-8.24422e-06 0 1.00019 -8.24422e-06 0 0.999921 1.80118e-05 0 0.999921 1.80118e-05
0 0.999852 7.8426e-06 0 0.999852 7.8426e-06 0 0.999682 3.35406e-05 0
0.999682 3.35406e-05 0 0.999515 2.66839e-05 0 0.999515 2.66839e-05 0 0.999404
5.14298e-05 0 0.999404 5.14298e-05 0 0.999139 4.84731e-05 0 0.999139 4.84731e-05
0 0.999068 7.26549e-05 0 0.999068 7.26549e-05 0 0.998714 7.44523e-05 0
0.998714 7.44523e-05 0 0.998665 9.82463e-05 0 0.998665 9.82463e-05 0 0.99823
0.000105679 0 0.99823 0.000105679 0 0.998185 0.000129112 0 0.998185 0.000129112
0 0.997673 0.000143075 0 0.997673 0.000143075 0 0.997615 0.000166254 0
0.997615 0.000166254 0 0.997026 0.00018748 0 0.997026 0.00018748 0 0.996936
0.000210444 0 0.996936 0.000210444 0 0.996267 0.000239295 0 0.996267 0.000239295
0 0.996124 0.000261818 0 0.996124 0.000261818 0 0.995368 0.000297172 0
0.995368 0.000297172 0 0.995148 0.000318185 0 0.995148 0.000318185 0 0.994294
0.000360209 0 0.994294 0.000360209 0 0.99397 0.000383175 0 0.99397 0.000383175
0 0.993 0.000434623 0 0.993 0.000434623 0 0.992544 0.000462959 0
0.992544 0.000462959 0 0.991437 0.000523145 0 0.991437 0.000523145 0 0.990808
0.000556939 0 0.990808 0.000556939 0 0.989521 0.000625615 0 0.989521 0.000625615
0 0.988651 0.000668807 0 0.988651 0.000668807 0 0.987105 0.00075433 0
0.987105 0.00075433 0 0.985873 0.000830098 0 0.985873 0.000830098 0 0.983928
0.000977371 0 0.983928 0.000977371 0 0.982138 0.00118111 0 0.982138 0.00118111
0 0.979594 0.00157921 0 0.979594 0.00157921 0 0.977007 0.002282 0
0.977007 0.002282 0 0.973763 0.00353902 0 0.973763 0.00353902 0 0.98934
0.00385546 0 0.98934 0.00385546 0 
