# vtk DataFile Version 2.0
symmBound
ASCII
DATASET POLYDATA
POINTS 82 float
-0.02 0 0 -0.018734 0 0 -0.018734 0 0.001 -0.02 0
0.001 -0.0175406 0 0 -0.0175406 0 0.001 -0.0164157 0 0
-0.0164157 0 0.001 -0.0153552 0 0 -0.0153552 0 0.001 -0.0143555
0 0 -0.0143555 0 0.001 -0.0134132 0 0 -0.0134132 0
0.001 -0.0125248 0 0 -0.0125248 0 0.001 -0.0116874 0 0
-0.0116874 0 0.001 -0.010898 0 0 -0.010898 0 0.001 -0.0101539
0 0 -0.0101539 0 0.001 -0.0094524 0 0 -0.0094524 0
0.001 -0.00879114 0 0 -0.00879114 0 0.001 -0.00816779 0 0
-0.00816779 0 0.001 -0.00758018 0 0 -0.00758018 0 0.001 -0.00702626
0 0 -0.00702626 0 0.001 -0.00650409 0 0 -0.00650409 0
0.001 -0.00601187 0 0 -0.00601187 0 0.001 -0.00554786 0 0
-0.00554786 0 0.001 -0.00511045 0 0 -0.00511045 0 0.001 -0.00469812
0 0 -0.00469812 0 0.001 -0.00430943 0 0 -0.00430943 0
0.001 -0.00394303 0 0 -0.00394303 0 0.001 -0.00359763 0 0
-0.00359763 0 0.001 -0.00327203 0 0 -0.00327203 0 0.001 -0.0029651
0 0 -0.0029651 0 0.001 -0.00267577 0 0 -0.00267577 0
0.001 -0.00240302 0 0 -0.00240302 0 0.001 -0.00214592 0 0
-0.00214592 0 0.001 -0.00190355 0 0 -0.00190355 0 0.001 -0.00167508
0 0 -0.00167508 0 0.001 -0.0014597 0 0 -0.0014597 0
0.001 -0.00125668 0 0 -0.00125668 0 0.001 -0.00106529 0 0
-0.00106529 0 0.001 -0.000884876 0 0 -0.000884876 0 0.001 -0.000714806
0 0 -0.000714806 0 0.001 -0.000554486 0 0 -0.000554486 0
0.001 -0.000403357 0 0 -0.000403357 0 0.001 -0.000260893 0 0
-0.000260893 0 0.001 -0.000126597 0 0 -0.000126597 0 0.001 0
0 0 0 0 0.001 
POLYGONS 40 200
4 0 1 2 3 4 1 4 5 2 4
4 6 7 5 4 6 8 9 7 4
8 10 11 9 4 10 12 13 11 4
12 14 15 13 4 14 16 17 15 4
16 18 19 17 4 18 20 21 19 4
20 22 23 21 4 22 24 25 23 4
24 26 27 25 4 26 28 29 27 4
28 30 31 29 4 30 32 33 31 4
32 34 35 33 4 34 36 37 35 4
36 38 39 37 4 38 40 41 39 4
40 42 43 41 4 42 44 45 43 4
44 46 47 45 4 46 48 49 47 4
48 50 51 49 4 50 52 53 51 4
52 54 55 53 4 54 56 57 55 4
56 58 59 57 4 58 60 61 59 4
60 62 63 61 4 62 64 65 63 4
64 66 67 65 4 66 68 69 67 4
68 70 71 69 4 70 72 73 71 4
72 74 75 73 4 74 76 77 75 4
76 78 79 77 4 78 80 81 79 
CELL_DATA 40
FIELD attributes 3
patchID 1 40 float
4 4 4 4 4 4 4 4 4 4 4
4 4 4 4 4 4 4 4 4 4
4 4 4 4 4 4 4 4 4 4
4 4 4 4 4 4 4 4 4 
p 1 40 float
0.0128926 0.0126883 0.0126958 0.0127522 0.0128715 0.0129426 0.0130416 0.0131095 0.013214 0.0133052 0.0134299
0.0135509 0.0136993 0.0138538 0.0140319 0.0142267 0.0144431 0.0146868 0.0149522 0.0152551 0.0155819
0.0159561 0.0163592 0.0168204 0.0173179 0.0178853 0.0184985 0.0191913 0.0199426 0.0207893 0.0217173
0.0227706 0.023946 0.0253015 0.02685 0.0286706 0.0307916 0.0333025 0.0361887 0.0394239 
U 3 40 float
0.964105 0.000757433 0 1.03616 -0.000806872 0 0.965823 0.000772927 0 1.03413 -0.00078354
0 0.967086 0.00077865 0 1.03213 -0.000764359 0 0.968269 0.000793018 0
1.03028 -0.000740352 0 0.969367 0.000809838 0 1.02853 -0.000716892 0 0.970342
0.000827846 0 1.02685 -0.000692301 0 0.971187 0.000849386 0 1.02522 -0.00066308
0 0.971899 0.000874921 0 1.02362 -0.000626606 0 0.97247 0.000903615 0
1.02202 -0.000580817 0 0.972886 0.000934895 0 1.0204 -0.000524077 0 0.973131
0.000968311 0 1.01872 -0.000455194 0 0.973182 0.001003 0 1.01694 -0.000375799
0 0.973007 0.00103686 0 1.01503 -0.000285088 0 0.972566 0.00107653 0
1.01293 -0.000177021 0 0.971816 0.00112858 0 1.0106 -5.31526e-05 0 0.970686
0.00119157 0 1.00793 8.62945e-05 0 0.969043 0.00127419 0 1.00477 0.000258683
0 0.966653 0.00142277 0 1.00082 0.000553978 0 0.96313 0.0018275 0
0.995692 0.00134989 0 0.957999 0.00323002 0 0.98917 0.00386273 0 
POINT_DATA  82
FIELD attributes 2
p 1 82 float
0.0128926 0.0127887 0.0127887 0.0128926 0.0126921 0.0126921 0.0127244 0.0127244 0.0128128 0.0128128 0.0129076
0.0129076 0.0129928 0.0129928 0.013076 0.013076 0.0131624 0.0131624 0.0132601 0.0132601 0.0133682
0.0133682 0.013491 0.013491 0.0136257 0.0136257 0.0137771 0.0137771 0.0139435 0.0139435 0.0141299
0.0141299 0.0143355 0.0143355 0.0145656 0.0145656 0.0148202 0.0148202 0.0151043 0.0151043 0.0154192
0.0154192 0.0157697 0.0157697 0.0161583 0.0161583 0.0165905 0.0165905 0.0170698 0.0170698 0.0176023
0.0176023 0.0181926 0.0181926 0.0188456 0.0188456 0.0195676 0.0195676 0.0203666 0.0203666 0.0212539
0.0212539 0.0222446 0.0222446 0.0233589 0.0233589 0.0246244 0.0246244 0.0260764 0.0260764 0.027761
0.027761 0.0297319 0.0297319 0.0320478 0.0320478 0.0347464 0.0347464 0.0378071 0.0378071 0.0394239
0.0394239 
U 3 82 float
0.964105 0.000757433 0 1.00077 -3.86107e-05 0 1.00077 -3.86107e-05 0 0.964105 0.000757433
0 1.00039 -3.61074e-06 0 1.00039 -3.61074e-06 0 1.00053 -1.78033e-05 0
1.00053 -1.78033e-05 0 1.0001 9.41958e-06 0 1.0001 9.41958e-06 0 1.00007
-3.90151e-06 0 1.00007 -3.90151e-06 0 0.999768 2.48039e-05 0 0.999768 2.48039e-05
0 0.999666 1.66784e-05 0 0.999666 1.66784e-05 0 0.999466 4.38488e-05 0
0.999466 4.38488e-05 0 0.999274 3.81334e-05 0 0.999274 3.81334e-05 0 0.999143
6.32975e-05 0 0.999143 6.32975e-05 0 0.998861 6.06615e-05 0 0.998861 6.06615e-05
0 0.99878 8.51853e-05 0 0.99878 8.51853e-05 0 0.998418 8.71669e-05 0
0.998418 8.71669e-05 0 0.998367 0.000111496 0 0.998367 0.000111496 0 0.997932
0.000119184 0 0.997932 0.000119184 0 0.997891 0.000143124 0 0.997891 0.000143124
0 0.997383 0.000157324 0 0.997383 0.000157324 0 0.997333 0.000180815 0
0.997333 0.000180815 0 0.996751 0.000202117 0 0.996751 0.000202117 0 0.99667
0.00022516 0 0.99667 0.00022516 0 0.996009 0.000253938 0 0.996009 0.000253938
0 0.995875 0.000276323 0 0.995875 0.000276323 0 0.995127 0.000311544 0
0.995127 0.000311544 0 0.994915 0.000332426 0 0.994915 0.000332426 0 0.994068
0.000374294 0 0.994068 0.000374294 0 0.993751 0.000397194 0 0.993751 0.000397194
0 0.992787 0.000448543 0 0.992787 0.000448543 0 0.992338 0.000476909 0
0.992338 0.000476909 0 0.991236 0.000536797 0 0.991236 0.000536797 0 0.990613
0.000570073 0 0.990613 0.000570073 0 0.98933 0.000638251 0 0.98933 0.000638251
0 0.988465 0.000680897 0 0.988465 0.000680897 0 0.986922 0.000765935 0
0.986922 0.000765935 0 0.985692 0.000841238 0 0.985692 0.000841238 0 0.98375
0.000988033 0 0.98375 0.000988033 0 0.981962 0.00119118 0 0.981962 0.00119118
0 0.979421 0.00158855 0 0.979421 0.00158855 0 0.976835 0.00229048 0
0.976835 0.00229048 0 0.973592 0.00354653 0 0.973592 0.00354653 0 0.98917
0.00386273 0 0.98917 0.00386273 0 
