# vtk DataFile Version 2.0
symmBound
ASCII
DATASET POLYDATA
POINTS 82 float
-0.02 0 0 -0.018734 0 0 -0.018734 0 0.001 -0.02 0
0.001 -0.0175406 0 0 -0.0175406 0 0.001 -0.0164157 0 0
-0.0164157 0 0.001 -0.0153552 0 0 -0.0153552 0 0.001 -0.0143555
0 0 -0.0143555 0 0.001 -0.0134132 0 0 -0.0134132 0
0.001 -0.0125248 0 0 -0.0125248 0 0.001 -0.0116874 0 0
-0.0116874 0 0.001 -0.010898 0 0 -0.010898 0 0.001 -0.0101539
0 0 -0.0101539 0 0.001 -0.0094524 0 0 -0.0094524 0
0.001 -0.00879114 0 0 -0.00879114 0 0.001 -0.00816779 0 0
-0.00816779 0 0.001 -0.00758018 0 0 -0.00758018 0 0.001 -0.00702626
0 0 -0.00702626 0 0.001 -0.00650409 0 0 -0.00650409 0
0.001 -0.00601187 0 0 -0.00601187 0 0.001 -0.00554786 0 0
-0.00554786 0 0.001 -0.00511045 0 0 -0.00511045 0 0.001 -0.00469812
0 0 -0.00469812 0 0.001 -0.00430943 0 0 -0.00430943 0
0.001 -0.00394303 0 0 -0.00394303 0 0.001 -0.00359763 0 0
-0.00359763 0 0.001 -0.00327203 0 0 -0.00327203 0 0.001 -0.0029651
0 0 -0.0029651 0 0.001 -0.00267577 0 0 -0.00267577 0
0.001 -0.00240302 0 0 -0.00240302 0 0.001 -0.00214592 0 0
-0.00214592 0 0.001 -0.00190355 0 0 -0.00190355 0 0.001 -0.00167508
0 0 -0.00167508 0 0.001 -0.0014597 0 0 -0.0014597 0
0.001 -0.00125668 0 0 -0.00125668 0 0.001 -0.00106529 0 0
-0.00106529 0 0.001 -0.000884876 0 0 -0.000884876 0 0.001 -0.000714806
0 0 -0.000714806 0 0.001 -0.000554486 0 0 -0.000554486 0
0.001 -0.000403357 0 0 -0.000403357 0 0.001 -0.000260893 0 0
-0.000260893 0 0.001 -0.000126597 0 0 -0.000126597 0 0.001 0
0 0 0 0 0.001 
POLYGONS 40 200
4 0 1 2 3 4 1 4 5 2 4
4 6 7 5 4 6 8 9 7 4
8 10 11 9 4 10 12 13 11 4
12 14 15 13 4 14 16 17 15 4
16 18 19 17 4 18 20 21 19 4
20 22 23 21 4 22 24 25 23 4
24 26 27 25 4 26 28 29 27 4
28 30 31 29 4 30 32 33 31 4
32 34 35 33 4 34 36 37 35 4
36 38 39 37 4 38 40 41 39 4
40 42 43 41 4 42 44 45 43 4
44 46 47 45 4 46 48 49 47 4
48 50 51 49 4 50 52 53 51 4
52 54 55 53 4 54 56 57 55 4
56 58 59 57 4 58 60 61 59 4
60 62 63 61 4 62 64 65 63 4
64 66 67 65 4 66 68 69 67 4
68 70 71 69 4 70 72 73 71 4
72 74 75 73 4 74 76 77 75 4
76 78 79 77 4 78 80 81 79 
CELL_DATA 40
FIELD attributes 3
patchID 1 40 float
4 4 4 4 4 4 4 4 4 4 4
4 4 4 4 4 4 4 4 4 4
4 4 4 4 4 4 4 4 4 4
4 4 4 4 4 4 4 4 4 
p 1 40 float
0.0138855 0.0136718 0.0136638 0.0137001 0.013797 0.013845 0.013922 0.0139704 0.0140589 0.0141379 0.0142544
0.014371 0.0145187 0.0146754 0.0148581 0.0150595 0.0152838 0.0155364 0.015811 0.0161232 0.0164593
0.0168426 0.0172544 0.0177239 0.0182293 0.018804 0.019424 0.0201231 0.0208802 0.0217323 0.0226652
0.0237229 0.0249023 0.0262614 0.027813 0.0296364 0.03176 0.0342729 0.0371611 0.0403979 
U 3 40 float
0.964123 0.000758604 0 1.03615 -0.000809572 0 0.965862 0.000772647 0 1.03417 -0.000786349
0 0.967168 0.000777267 0 1.03221 -0.000768281 0 0.968398 0.000787687 0
1.03041 -0.000747483 0 0.969533 0.000802497 0 1.02869 -0.000725469 0 0.970529
0.000820504 0 1.02703 -0.000700771 0 0.971382 0.000842081 0 1.0254 -0.000671321
0 0.97209 0.000867135 0 1.0238 -0.00063494 0 0.972649 0.000895255 0
1.02219 -0.000589377 0 0.973049 0.000926264 0 1.02055 -0.000532603 0 0.973276
0.000959894 0 1.01885 -0.000463439 0 0.973309 0.00099506 0 1.01706 -0.000383691
0 0.973119 0.00102947 0 1.01513 -0.000292473 0 0.972664 0.00106968 0
1.01302 -0.000183935 0 0.971902 0.00112212 0 1.01068 -5.94675e-05 0 0.970762
0.00118583 0 1.008 8.06194e-05 0 0.969112 0.00126903 0 1.00483 0.000253532
0 0.966716 0.00141809 0 1.00088 0.000549308 0 0.963188 0.00182337 0
0.995748 0.00134589 0 0.958054 0.00322664 0 0.989223 0.00385956 0 
POINT_DATA  82
FIELD attributes 2
p 1 82 float
0.0138855 0.0137768 0.0137768 0.0138855 0.0136678 0.0136678 0.0136822 0.0136822 0.0137493 0.0137493 0.0138213
0.0138213 0.013884 0.013884 0.0139465 0.0139465 0.0140152 0.0140152 0.0140988 0.0140988 0.0141967
0.0141967 0.0143133 0.0143133 0.0144455 0.0144455 0.0145977 0.0145977 0.0147674 0.0147674 0.0149595
0.0149595 0.0151724 0.0151724 0.0154108 0.0154108 0.0156744 0.0156744 0.0159678 0.0159678 0.0162919
0.0162919 0.0166517 0.0166517 0.0170492 0.0170492 0.0174899 0.0174899 0.0179773 0.0179773 0.0185174
0.0185174 0.0191147 0.0191147 0.0197742 0.0197742 0.0205023 0.0205023 0.0213069 0.0213069 0.0221994
0.0221994 0.0231947 0.0231947 0.0243133 0.0243133 0.0255825 0.0255825 0.0270379 0.0270379 0.0287254
0.0287254 0.0306989 0.0306989 0.0330172 0.0330172 0.0357178 0.0357178 0.0387803 0.0387803 0.0403979
0.0403979 
U 3 82 float
0.964123 0.000758604 0 1.00078 -3.94094e-05 0 1.00078 -3.94094e-05 0 0.964123 0.000758604
0 1.00041 -5.07969e-06 0 1.00041 -5.07969e-06 0 1.00056 -1.93675e-05 0
1.00056 -1.93675e-05 0 1.00016 7.33461e-06 0 1.00016 7.33461e-06 0 1.00015
-6.57215e-06 0 1.00015 -6.57215e-06 0 0.999874 2.01681e-05 0 0.999874 2.01681e-05
0 0.999793 1.04364e-05 0 0.999793 1.04364e-05 0 0.999612 3.6612e-05 0
0.999612 3.6612e-05 0 0.999435 3.01682e-05 0 0.999435 3.01682e-05 0 0.999316
5.53445e-05 0 0.999316 5.53445e-05 0 0.999043 5.27507e-05 0 0.999043 5.27507e-05
0 0.998965 7.73031e-05 0 0.998965 7.73031e-05 0 0.998606 7.93902e-05 0
0.998606 7.93902e-05 0 0.998553 0.000103484 0 0.998553 0.000103484 0 0.998114
0.000111122 0 0.998114 0.000111122 0 0.998067 0.000134777 0 0.998067 0.000134777
0 0.997553 0.000148863 0 0.997553 0.000148863 0 0.997495 0.000172219 0
0.997495 0.000172219 0 0.996905 0.000193539 0 0.996905 0.000193539 0 0.996815
0.000216689 0 0.996815 0.000216689 0 0.996146 0.000245607 0 0.996146 0.000245607
0 0.996003 0.00026823 0 0.996003 0.00026823 0 0.995248 0.000303626 0
0.995248 0.000303626 0 0.995028 0.000324783 0 0.995028 0.000324783 0 0.994175
0.000366904 0 0.994175 0.000366904 0 0.993851 0.000390074 0 0.993851 0.000390074
0 0.992882 0.000441659 0 0.992882 0.000441659 0 0.992426 0.000470224 0
0.992426 0.000470224 0 0.991319 0.000530411 0 0.991319 0.000530411 0 0.990692
0.000564043 0 0.990692 0.000564043 0 0.989405 0.00063254 0 0.989405 0.00063254
0 0.988535 0.000675481 0 0.988535 0.000675481 0 0.986989 0.00076078 0
0.986989 0.00076078 0 0.985757 0.000836324 0 0.985757 0.000836324 0 0.983812
0.000983359 0 0.983812 0.000983359 0 0.982021 0.00118679 0 0.982021 0.00118679
0 0.979478 0.00158448 0 0.979478 0.00158448 0 0.97689 0.00228679 0
0.97689 0.00228679 0 0.973646 0.00354325 0 0.973646 0.00354325 0 0.989223
0.00385956 0 0.989223 0.00385956 0 
