# vtk DataFile Version 2.0
symmBound
ASCII
DATASET POLYDATA
POINTS 82 float
-0.02 0 0 -0.018734 0 0 -0.018734 0 0.001 -0.02 0
0.001 -0.0175406 0 0 -0.0175406 0 0.001 -0.0164157 0 0
-0.0164157 0 0.001 -0.0153552 0 0 -0.0153552 0 0.001 -0.0143555
0 0 -0.0143555 0 0.001 -0.0134132 0 0 -0.0134132 0
0.001 -0.0125248 0 0 -0.0125248 0 0.001 -0.0116874 0 0
-0.0116874 0 0.001 -0.010898 0 0 -0.010898 0 0.001 -0.0101539
0 0 -0.0101539 0 0.001 -0.0094524 0 0 -0.0094524 0
0.001 -0.00879114 0 0 -0.00879114 0 0.001 -0.00816779 0 0
-0.00816779 0 0.001 -0.00758018 0 0 -0.00758018 0 0.001 -0.00702626
0 0 -0.00702626 0 0.001 -0.00650409 0 0 -0.00650409 0
0.001 -0.00601187 0 0 -0.00601187 0 0.001 -0.00554786 0 0
-0.00554786 0 0.001 -0.00511045 0 0 -0.00511045 0 0.001 -0.00469812
0 0 -0.00469812 0 0.001 -0.00430943 0 0 -0.00430943 0
0.001 -0.00394303 0 0 -0.00394303 0 0.001 -0.00359763 0 0
-0.00359763 0 0.001 -0.00327203 0 0 -0.00327203 0 0.001 -0.0029651
0 0 -0.0029651 0 0.001 -0.00267577 0 0 -0.00267577 0
0.001 -0.00240302 0 0 -0.00240302 0 0.001 -0.00214592 0 0
-0.00214592 0 0.001 -0.00190355 0 0 -0.00190355 0 0.001 -0.00167508
0 0 -0.00167508 0 0.001 -0.0014597 0 0 -0.0014597 0
0.001 -0.00125668 0 0 -0.00125668 0 0.001 -0.00106529 0 0
-0.00106529 0 0.001 -0.000884876 0 0 -0.000884876 0 0.001 -0.000714806
0 0 -0.000714806 0 0.001 -0.000554486 0 0 -0.000554486 0
0.001 -0.000403357 0 0 -0.000403357 0 0.001 -0.000260893 0 0
-0.000260893 0 0.001 -0.000126597 0 0 -0.000126597 0 0.001 0
0 0 0 0 0.001 
POLYGONS 40 200
4 0 1 2 3 4 1 4 5 2 4
4 6 7 5 4 6 8 9 7 4
8 10 11 9 4 10 12 13 11 4
12 14 15 13 4 14 16 17 15 4
16 18 19 17 4 18 20 21 19 4
20 22 23 21 4 22 24 25 23 4
24 26 27 25 4 26 28 29 27 4
28 30 31 29 4 30 32 33 31 4
32 34 35 33 4 34 36 37 35 4
36 38 39 37 4 38 40 41 39 4
40 42 43 41 4 42 44 45 43 4
44 46 47 45 4 46 48 49 47 4
48 50 51 49 4 50 52 53 51 4
52 54 55 53 4 54 56 57 55 4
56 58 59 57 4 58 60 61 59 4
60 62 63 61 4 62 64 65 63 4
64 66 67 65 4 66 68 69 67 4
68 70 71 69 4 70 72 73 71 4
72 74 75 73 4 74 76 77 75 4
76 78 79 77 4 78 80 81 79 
CELL_DATA 40
FIELD attributes 3
patchID 1 40 float
4 4 4 4 4 4 4 4 4 4 4
4 4 4 4 4 4 4 4 4 4
4 4 4 4 4 4 4 4 4 4
4 4 4 4 4 4 4 4 4 
p 1 40 float
0.0141935 0.0139752 0.0139603 0.0139873 0.0140739 0.0141105 0.0141762 0.0142134 0.0142916 0.014361 0.0144692
0.0145786 0.0147202 0.0148719 0.0150507 0.0152489 0.015471 0.0157219 0.0159955 0.0163071 0.016643
0.0170262 0.0174381 0.0179077 0.0184133 0.0189882 0.0196085 0.0203079 0.0210655 0.0219183 0.0228517
0.02391 0.0250897 0.026449 0.0280008 0.0298244 0.0319481 0.0344613 0.0373496 0.0405867 
U 3 40 float
0.964134 0.000760009 0 1.03614 -0.00081123 0 0.965883 0.000773409 0 1.03418 -0.000788627
0 0.967208 0.000777044 0 1.03224 -0.000771417 0 0.96846 0.000786393 0
1.03047 -0.000751472 0 0.969616 0.000800142 0 1.02877 -0.000730291 0 0.970631
0.000817177 0 1.02713 -0.000706352 0 0.971497 0.000837893 0 1.02551 -0.000677537
0 0.972214 0.000862221 0 1.02392 -0.000641638 0 0.972778 0.000889769 0
1.02231 -0.000596398 0 0.973181 0.000920301 0 1.02068 -0.000539886 0 0.973409
0.000953437 0 1.01898 -0.000470923 0 0.973442 0.000988322 0 1.01719 -0.000391305
0 0.973251 0.00102235 0 1.01526 -0.000300352 0 0.972796 0.00106206 0
1.01315 -0.000192161 0 0.972034 0.00111395 0 1.01081 -6.77193e-05 0 0.970893
0.001178 0 1.00813 7.27558e-05 0 0.969243 0.00126174 0 1.00496 0.000246163
0 0.966846 0.0014113 0 1.00101 0.000542471 0 0.963319 0.00181728 0
0.995879 0.00133997 0 0.958185 0.00322166 0 0.989355 0.00385489 0 
POINT_DATA  82
FIELD attributes 2
p 1 82 float
0.0141935 0.0140824 0.0140824 0.0141935 0.0139676 0.0139676 0.013974 0.013974 0.0140312 0.0140312 0.0140925
0.0140925 0.0141438 0.0141438 0.014195 0.014195 0.014253 0.014253 0.0143267 0.0143267 0.0144157
0.0144157 0.0145244 0.0145244 0.01465 0.01465 0.0147966 0.0147966 0.0149619 0.0149619 0.0151504
0.0151504 0.0153606 0.0153606 0.0155971 0.0155971 0.0158594 0.0158594 0.016152 0.016152 0.0164757
0.0164757 0.0168353 0.0168353 0.0172328 0.0172328 0.0176736 0.0176736 0.0181612 0.0181612 0.0187014
0.0187014 0.019299 0.019299 0.0199588 0.0199588 0.0206874 0.0206874 0.0214926 0.0214926 0.0223856
0.0223856 0.0233815 0.0233815 0.0245005 0.0245005 0.02577 0.02577 0.0272256 0.0272256 0.0289133
0.0289133 0.030887 0.030887 0.0332055 0.0332055 0.0359063 0.0359063 0.038969 0.038969 0.0405867
0.0405867 
U 3 82 float
0.964134 0.000760009 0 1.00078 -3.95636e-05 0 1.00078 -3.95636e-05 0 0.964134 0.000760009
0 1.00042 -5.5075e-06 0 1.00042 -5.5075e-06 0 1.00058 -2.01499e-05 0
1.00058 -2.01499e-05 0 1.00018 6.09948e-06 0 1.00018 6.09948e-06 0 1.00019
-8.27282e-06 0 1.00019 -8.27282e-06 0 0.999922 1.7965e-05 0 0.999922 1.7965e-05
0 0.999853 7.77748e-06 0 0.999853 7.77748e-06 0 0.999684 3.34494e-05 0
0.999684 3.34494e-05 0 0.999518 2.6566e-05 0 0.999518 2.6566e-05 0 0.999407
5.12774e-05 0 0.999407 5.12774e-05 0 0.999143 4.82857e-05 0 0.999143 4.82857e-05
0 0.999072 7.24241e-05 0 0.999072 7.24241e-05 0 0.998719 7.418e-05 0
0.998719 7.418e-05 0 0.998671 9.79238e-05 0 0.998671 9.79238e-05 0 0.998236
0.000105311 0 0.998236 0.000105311 0 0.998192 0.000128689 0 0.998192 0.000128689
0 0.99768 0.000142606 0 0.99768 0.000142606 0 0.997623 0.00016573 0
0.997623 0.00016573 0 0.997035 0.000186913 0 0.997035 0.000186913 0 0.996946
0.000209821 0 0.996946 0.000209821 0 0.996278 0.000238635 0 0.996278 0.000238635
0 0.996135 0.00026112 0 0.996135 0.00026112 0 0.99538 0.000296449 0
0.99538 0.000296449 0 0.99516 0.000317419 0 0.99516 0.000317419 0 0.994307
0.000359406 0 0.994307 0.000359406 0 0.993982 0.000382323 0 0.993982 0.000382323
0 0.993013 0.000433733 0 0.993013 0.000433733 0 0.992557 0.000462024 0
0.992557 0.000462024 0 0.99145 0.000522198 0 0.99145 0.000522198 0 0.990822
0.000556002 0 0.990822 0.000556002 0 0.989535 0.000624693 0 0.989535 0.000624693
0 0.988666 0.000667906 0 0.988666 0.000667906 0 0.987119 0.000753452 0
0.987119 0.000753452 0 0.985887 0.000829244 0 0.985887 0.000829244 0 0.983943
0.000976546 0 0.983943 0.000976546 0 0.982152 0.00118032 0 0.982152 0.00118032
0 0.979609 0.00157848 0 0.979609 0.00157848 0 0.977022 0.00228134 0
0.977022 0.00228134 0 0.973778 0.00353843 0 0.973778 0.00353843 0 0.989355
0.00385489 0 0.989355 0.00385489 0 
