# vtk DataFile Version 2.0
symmBound
ASCII
DATASET POLYDATA
POINTS 82 float
-0.02 0 0 -0.018734 0 0 -0.018734 0 0.001 -0.02 0
0.001 -0.0175406 0 0 -0.0175406 0 0.001 -0.0164157 0 0
-0.0164157 0 0.001 -0.0153552 0 0 -0.0153552 0 0.001 -0.0143555
0 0 -0.0143555 0 0.001 -0.0134132 0 0 -0.0134132 0
0.001 -0.0125248 0 0 -0.0125248 0 0.001 -0.0116874 0 0
-0.0116874 0 0.001 -0.010898 0 0 -0.010898 0 0.001 -0.0101539
0 0 -0.0101539 0 0.001 -0.0094524 0 0 -0.0094524 0
0.001 -0.00879114 0 0 -0.00879114 0 0.001 -0.00816779 0 0
-0.00816779 0 0.001 -0.00758018 0 0 -0.00758018 0 0.001 -0.00702626
0 0 -0.00702626 0 0.001 -0.00650409 0 0 -0.00650409 0
0.001 -0.00601187 0 0 -0.00601187 0 0.001 -0.00554786 0 0
-0.00554786 0 0.001 -0.00511045 0 0 -0.00511045 0 0.001 -0.00469812
0 0 -0.00469812 0 0.001 -0.00430943 0 0 -0.00430943 0
0.001 -0.00394303 0 0 -0.00394303 0 0.001 -0.00359763 0 0
-0.00359763 0 0.001 -0.00327203 0 0 -0.00327203 0 0.001 -0.0029651
0 0 -0.0029651 0 0.001 -0.00267577 0 0 -0.00267577 0
0.001 -0.00240302 0 0 -0.00240302 0 0.001 -0.00214592 0 0
-0.00214592 0 0.001 -0.00190355 0 0 -0.00190355 0 0.001 -0.00167508
0 0 -0.00167508 0 0.001 -0.0014597 0 0 -0.0014597 0
0.001 -0.00125668 0 0 -0.00125668 0 0.001 -0.00106529 0 0
-0.00106529 0 0.001 -0.000884876 0 0 -0.000884876 0 0.001 -0.000714806
0 0 -0.000714806 0 0.001 -0.000554486 0 0 -0.000554486 0
0.001 -0.000403357 0 0 -0.000403357 0 0.001 -0.000260893 0 0
-0.000260893 0 0.001 -0.000126597 0 0 -0.000126597 0 0.001 0
0 0 0 0 0.001 
POLYGONS 40 200
4 0 1 2 3 4 1 4 5 2 4
4 6 7 5 4 6 8 9 7 4
8 10 11 9 4 10 12 13 11 4
12 14 15 13 4 14 16 17 15 4
16 18 19 17 4 18 20 21 19 4
20 22 23 21 4 22 24 25 23 4
24 26 27 25 4 26 28 29 27 4
28 30 31 29 4 30 32 33 31 4
32 34 35 33 4 34 36 37 35 4
36 38 39 37 4 38 40 41 39 4
40 42 43 41 4 42 44 45 43 4
44 46 47 45 4 46 48 49 47 4
48 50 51 49 4 50 52 53 51 4
52 54 55 53 4 54 56 57 55 4
56 58 59 57 4 58 60 61 59 4
60 62 63 61 4 62 64 65 63 4
64 66 67 65 4 66 68 69 67 4
68 70 71 69 4 70 72 73 71 4
72 74 75 73 4 74 76 77 75 4
76 78 79 77 4 78 80 81 79 
CELL_DATA 40
FIELD attributes 3
patchID 1 40 float
4 4 4 4 4 4 4 4 4 4 4
4 4 4 4 4 4 4 4 4 4
4 4 4 4 4 4 4 4 4 4
4 4 4 4 4 4 4 4 4 
p 1 40 float
0.0141713 0.0139535 0.0139393 0.0139672 0.0140549 0.0140929 0.0141601 0.0141991 0.0142791 0.0143506 0.0144609
0.0145724 0.0147162 0.01487 0.015051 0.0152513 0.0154753 0.0157281 0.0160035 0.0163166 0.016654
0.0170385 0.0174516 0.0179223 0.0184289 0.0190045 0.0196255 0.0203255 0.0210835 0.0219365 0.0228702
0.0239286 0.0251084 0.0264678 0.0280196 0.0298433 0.031967 0.0344801 0.0373684 0.0406054 
U 3 40 float
0.964132 0.000759593 0 1.03615 -0.000810802 0 0.96588 0.000773062 0 1.03418 -0.000788161
0 0.967203 0.000776805 0 1.03224 -0.000770868 0 0.968453 0.000786298 0
1.03046 -0.000750799 0 0.969606 0.000800229 0 1.02876 -0.000729454 0 0.970616
0.000817478 0 1.02711 -0.000705322 0 0.971478 0.000838438 0 1.02549 -0.000676295
0 0.972191 0.000863032 0 1.02389 -0.000640174 0 0.972751 0.000890854 0
1.02228 -0.000594734 0 0.97315 0.000921642 0 1.02064 -0.000538044 0 0.973376
0.000955038 0 1.01894 -0.000468938 0 0.973406 0.000990081 0 1.01715 -0.000389233
0 0.973214 0.00102429 0 1.01522 -0.000298148 0 0.972757 0.0010642 0
1.01311 -0.000189819 0 0.971993 0.00111628 0 1.01077 -6.53583e-05 0 0.970852
0.00118024 0 1.00809 7.50008e-05 0 0.969201 0.00126382 0 1.00492 0.000248256
0 0.966805 0.00141323 0 1.00097 0.000544398 0 0.963277 0.00181899 0
0.995837 0.00134162 0 0.958143 0.00322304 0 0.989313 0.00385617 0 
POINT_DATA  82
FIELD attributes 2
p 1 82 float
0.0141713 0.0140605 0.0140605 0.0141713 0.0139463 0.0139463 0.0139535 0.0139535 0.0140117 0.0140117 0.0140742
0.0140742 0.014127 0.014127 0.0141799 0.0141799 0.0142396 0.0142396 0.0143153 0.0143153 0.0144063
0.0144063 0.0145172 0.0145172 0.0146449 0.0146449 0.0147937 0.0147937 0.0149612 0.0149612 0.0151518
0.0151518 0.015364 0.015364 0.0156024 0.0156024 0.0158665 0.0158665 0.0161608 0.0161608 0.016486
0.016486 0.0168469 0.0168469 0.0172457 0.0172457 0.0176877 0.0176877 0.0181763 0.0181763 0.0187174
0.0187174 0.0193157 0.0193157 0.0199762 0.0199762 0.0207051 0.0207051 0.0215107 0.0215107 0.022404
0.022404 0.0234 0.0234 0.0245191 0.0245191 0.0257888 0.0257888 0.0272444 0.0272444 0.0289322
0.0289322 0.0309059 0.0309059 0.0332243 0.0332243 0.0359251 0.0359251 0.0389877 0.0389877 0.0406054
0.0406054 
U 3 82 float
0.964132 0.000759593 0 1.00078 -3.95501e-05 0 1.00078 -3.95501e-05 0 0.964132 0.000759593
0 1.00042 -5.47353e-06 0 1.00042 -5.47353e-06 0 1.00058 -2.00839e-05 0
1.00058 -2.00839e-05 0 1.00018 6.20769e-06 0 1.00018 6.20769e-06 0 1.00019
-8.11218e-06 0 1.00019 -8.11218e-06 0 0.999917 1.81876e-05 0 0.999917 1.81876e-05
0 0.999847 8.07139e-06 0 0.999847 8.07139e-06 0 0.999675 3.38259e-05 0
0.999675 3.38259e-05 0 0.999507 2.7032e-05 0 0.999507 2.7032e-05 0 0.999395
5.18437e-05 0 0.999395 5.18437e-05 0 0.999128 4.89547e-05 0 0.999128 4.89547e-05
0 0.999055 7.32099e-05 0 0.999055 7.32099e-05 0 0.9987 7.50766e-05 0
0.9987 7.50766e-05 0 0.998649 9.89487e-05 0 0.998649 9.89487e-05 0 0.998213
0.00010645 0 0.998213 0.00010645 0 0.998167 0.000129962 0 0.998167 0.000129962
0 0.997653 0.000143982 0 0.997653 0.000143982 0 0.997594 0.000167232 0
0.997594 0.000167232 0 0.997004 0.000188506 0 0.997004 0.000188506 0 0.996913
0.000211542 0 0.996913 0.000211542 0 0.996244 0.000240429 0 0.996244 0.000240429
0 0.9961 0.000262992 0 0.9961 0.000262992 0 0.995344 0.000298366 0
0.995344 0.000298366 0 0.995123 0.000319423 0 0.995123 0.000319423 0 0.994268
0.000361476 0 0.994268 0.000361476 0 0.993944 0.000384496 0 0.993944 0.000384496
0 0.992974 0.000435976 0 0.992974 0.000435976 0 0.992517 0.000464364 0
0.992517 0.000464364 0 0.99141 0.000524548 0 0.99141 0.000524548 0 0.990782
0.000558303 0 0.990782 0.000558303 0 0.989494 0.000626936 0 0.989494 0.000626936
0 0.988624 0.000670067 0 0.988624 0.000670067 0 0.987078 0.000755537 0
0.987078 0.000755537 0 0.985846 0.000831253 0 0.985846 0.000831253 0 0.983901
0.000978471 0 0.983901 0.000978471 0 0.982111 0.00118214 0 0.982111 0.00118214
0 0.979567 0.00158016 0 0.979567 0.00158016 0 0.97698 0.00228285 0
0.97698 0.00228285 0 0.973736 0.00353976 0 0.973736 0.00353976 0 0.989313
0.00385617 0 0.989313 0.00385617 0 
