/*--------------------------------*- C++ -*----------------------------------*\
| =========                 |                                                 |
| \\      /  F ield         | OpenFOAM: The Open Source CFD Toolbox           |
|  \\    /   O peration     | Version:  5.x                                   |
|   \\  /    A nd           | Web:      www.OpenFOAM.org                      |
|    \\/     M anipulation  |                                                 |
\*---------------------------------------------------------------------------*/
FoamFile
{
    version     2.0;
    format      ascii;
    class       volScalarField;
    location    "0.3";
    object      p;
}
// * * * * * * * * * * * * * * * * * * * * * * * * * * * * * * * * * * * * * //

dimensions      [0 2 -2 0 0 0 0];

internalField   nonuniform List<scalar> 
10800
(
0.03746
0.0331718
0.0270042
0.021393
0.0162727
0.0112376
0.00626069
0.00189486
-0.000963263
-0.00193526
-0.00145929
-0.000327436
0.000872921
0.00185314
0.00252435
0.00291211
0.00309291
0.00314877
0.00314453
0.00312248
0.00310448
0.00309603
0.00309253
0.00308782
0.0030793
0.00306763
0.00305383
0.003038
0.00301972
0.00299932
0.00297715
0.00295252
0.00292432
0.00289287
0.00285878
0.00282191
0.00278183
0.00273978
0.00269689
0.00265362
0.00260943
0.00256456
0.00251935
0.00247442
0.0024293
0.00238384
0.00233836
0.00229425
0.00225112
0.00220774
0.00216296
0.00211763
0.00207226
0.00202706
0.00198123
0.00193488
0.0018875
0.00184002
0.00179211
0.00174442
0.00169636
0.00164891
0.00160139
0.0015539
0.00150562
0.00145819
0.00141053
0.00136225
0.00131271
0.00126319
0.00121227
0.00116141
0.00110973
0.00105835
0.00100633
0.000954988
0.000902609
0.000850005
0.000796099
0.000742485
0.00068755
0.000633089
0.000578072
0.00052423
0.000470139
0.000416095
0.000362545
0.000309996
0.000258344
0.000208269
0.000160202
0.00011415
7.33331e-05
3.4905e-05
5.25518e-06
-2.24235e-05
-3.65535e-05
-4.83609e-05
-3.719e-05
-2.71709e-05
0.0342463
0.0317955
0.0265583
0.0211274
0.0160774
0.0112018
0.00643695
0.00224784
-0.000577582
-0.00163377
-0.00125357
-0.000183121
0.000976794
0.00192786
0.00257919
0.00295468
0.00312809
0.00317933
0.0031718
0.00314708
0.00312679
0.00311639
0.00311118
0.00310493
0.00309502
0.00308211
0.00306723
0.00305043
0.00303129
0.00301012
0.00298728
0.00296203
0.00293327
0.0029013
0.00286673
0.00282942
0.00278893
0.00274648
0.00270324
0.00265963
0.00261514
0.00256998
0.0025245
0.00247932
0.00243398
0.00238829
0.00234259
0.00229829
0.00225499
0.00221144
0.0021665
0.002121
0.00207549
0.00203015
0.00198419
0.00193772
0.00189022
0.00184262
0.00179461
0.00174682
0.00169866
0.00165112
0.00160352
0.00155594
0.00150758
0.00146007
0.00141234
0.001364
0.00131439
0.0012648
0.00121383
0.00116291
0.00111117
0.00105974
0.00100767
0.000956267
0.000903846
0.00085119
0.000797243
0.00074358
0.000688608
0.000634097
0.000579046
0.000525156
0.000471038
0.000416945
0.000363367
0.000310772
0.000259093
0.000208971
0.000160883
0.00011478
7.39451e-05
3.54657e-05
5.80306e-06
-2.19252e-05
-3.60623e-05
-4.7919e-05
-3.67428e-05
-2.67606e-05
0.0317962
0.0305063
0.0261726
0.0209772
0.0159784
0.0112619
0.00679353
0.00288882
0.000140816
-0.00105902
-0.000888336
3.23597e-05
0.00110639
0.00200596
0.00262888
0.00299103
0.00315939
0.00320927
0.0032014
0.00317592
0.00315406
0.00314147
0.00313387
0.00312534
0.00311338
0.00309865
0.00308217
0.00306398
0.00304363
0.00302141
0.00299766
0.00297162
0.00294216
0.00290955
0.00287443
0.00283662
0.00279567
0.00275278
0.00270916
0.0026652
0.00262038
0.00257493
0.00252917
0.00248374
0.00243818
0.00239227
0.00234637
0.00230188
0.00225841
0.00221471
0.00216961
0.00212396
0.00207832
0.00203286
0.00198678
0.0019402
0.00189259
0.00184489
0.00179678
0.00174889
0.00170065
0.00165302
0.00160535
0.0015577
0.00150927
0.00146168
0.00141391
0.0013655
0.00131582
0.00126619
0.00121516
0.00116418
0.0011124
0.00106091
0.0010088
0.000957358
0.000904901
0.000852202
0.000798218
0.000744514
0.00068951
0.000634957
0.000579875
0.000525944
0.000471803
0.000417669
0.000364066
0.000311432
0.00025973
0.000209567
0.000161458
0.000115311
7.44601e-05
3.59344e-05
6.25938e-06
-2.15154e-05
-3.56627e-05
-4.75676e-05
-3.64002e-05
-2.64613e-05
0.029923
0.0292353
0.0256882
0.0208361
0.0159439
0.0113841
0.00720302
0.00358834
0.000952655
-0.000359484
-0.00041038
0.000321623
0.00128259
0.002122
0.00271199
0.00305554
0.00321347
0.00325777
0.00324678
0.00321875
0.00319375
0.00317734
0.00316582
0.00315376
0.00313882
0.00312152
0.00310275
0.00308253
0.0030604
0.00303663
0.00301153
0.00298433
0.00295386
0.00292036
0.00288445
0.00284594
0.00280435
0.00276089
0.00271671
0.00267224
0.00262694
0.00258105
0.0025349
0.00248911
0.00244322
0.00239702
0.00235086
0.00230612
0.00226243
0.00221852
0.00217322
0.00212739
0.00208158
0.00203596
0.00198972
0.001943
0.00189525
0.00184742
0.00179919
0.0017512
0.00170285
0.00165512
0.00160736
0.00155963
0.00151111
0.00146345
0.00141561
0.00136713
0.00131738
0.00126768
0.0012166
0.00116556
0.00111372
0.00106218
0.00101002
0.000958531
0.000906032
0.000853286
0.000799262
0.000745515
0.000690474
0.00063588
0.000580764
0.000526791
0.000472623
0.000418447
0.000364818
0.000312147
0.000260415
0.000210212
0.000162078
0.000115886
7.50155e-05
3.64413e-05
6.74646e-06
-2.10779e-05
-3.52482e-05
-4.72039e-05
-3.60822e-05
-2.61841e-05
0.028362
0.0279674
0.0250627
0.0206416
0.0159386
0.0115412
0.00760573
0.00424816
0.00173584
0.000350021
0.000101644
0.000641581
0.00148011
0.00225637
0.00281379
0.00313834
0.00328425
0.00332119
0.00330583
0.0032745
0.00324571
0.00322468
0.00320834
0.00319195
0.00317332
0.00315276
0.003131
0.00310806
0.00308352
0.0030576
0.00303057
0.00300168
0.00296976
0.002935
0.00289795
0.00285845
0.00281602
0.00277181
0.0027269
0.00268172
0.00263576
0.00258927
0.00254256
0.00249625
0.00244989
0.00240328
0.00235675
0.00231166
0.00226763
0.00222342
0.00217785
0.00213179
0.00208574
0.0020399
0.00199345
0.00194653
0.00189859
0.00185059
0.0018022
0.00175406
0.00170556
0.00165771
0.00160982
0.00156197
0.00151335
0.00146559
0.00141766
0.00136909
0.00131926
0.00126948
0.00121831
0.00116719
0.00111529
0.00106369
0.00101147
0.000959919
0.000907368
0.000854566
0.000800493
0.000746696
0.000691614
0.000636974
0.00058182
0.000527797
0.000473596
0.000419374
0.000365719
0.000313007
0.000261242
0.000210993
0.00016283
0.00011659
7.56942e-05
3.70658e-05
7.33958e-06
-2.05412e-05
-3.47545e-05
-4.67667e-05
-3.57507e-05
-2.58897e-05
0.0269904
0.0267322
0.0243313
0.0203873
0.0159518
0.0117299
0.00799662
0.00485517
0.00246706
0.00104032
0.000625138
0.000980478
0.00169086
0.00239925
0.00292351
0.00322993
0.0033641
0.00339316
0.00337271
0.00333756
0.00330473
0.00327891
0.00325761
0.00323679
0.00321435
0.00319035
0.00316535
0.00313939
0.00311211
0.0030837
0.00305437
0.00302343
0.00298975
0.00295344
0.00291498
0.00287426
0.00283082
0.00278572
0.00273993
0.00269388
0.00264711
0.00259988
0.00255248
0.0025055
0.00245852
0.00241138
0.00236436
0.0023188
0.0022743
0.00222967
0.00218377
0.0021374
0.00209107
0.00204493
0.0019982
0.00195102
0.00190285
0.00185463
0.00180602
0.00175767
0.00170899
0.00166096
0.0016129
0.0015649
0.00151614
0.00146826
0.00142021
0.00137152
0.00132158
0.00127169
0.00122041
0.0011692
0.00111721
0.00106553
0.00101325
0.000961619
0.000909001
0.000856131
0.000801998
0.000748137
0.000693007
0.000638319
0.000583122
0.000529038
0.000474794
0.000420525
0.000366845
0.000314089
0.000262284
0.000211983
0.000163788
0.000117499
7.65711e-05
3.78808e-05
8.10811e-06
-1.98378e-05
-3.4122e-05
-4.61973e-05
-3.53741e-05
-2.55452e-05
0.0257506
0.0255613
0.0235545
0.0200832
0.0159722
0.0119464
0.00838225
0.00541599
0.00314452
0.00170332
0.00115253
0.0013361
0.00191501
0.00254971
0.00303885
0.00332782
0.00345105
0.00347204
0.00344562
0.00340572
0.00336821
0.00333727
0.00331088
0.00328557
0.00325927
0.00323175
0.0032034
0.00317431
0.00314418
0.00311313
0.00308136
0.00304822
0.00301264
0.00297464
0.00293464
0.00289258
0.00284806
0.00280201
0.00275528
0.00270828
0.00266064
0.00261262
0.00256446
0.00251673
0.00246905
0.00242129
0.00237372
0.00232758
0.0022825
0.00223735
0.00219103
0.0021443
0.00209762
0.00205114
0.00200407
0.00195658
0.00190813
0.00185965
0.00181078
0.00176218
0.00171327
0.00166501
0.00161673
0.00156854
0.00151962
0.00147157
0.00142337
0.00137454
0.00132447
0.00127443
0.00122302
0.00117168
0.00111959
0.00106782
0.00101545
0.000963725
0.000911024
0.000858073
0.000803866
0.000749926
0.000694742
0.000640002
0.000584758
0.000530598
0.000476302
0.000421981
0.000368282
0.000315479
0.000263629
0.000213267
0.000165037
0.000118699
7.77345e-05
3.8973e-05
9.13582e-06
-1.88849e-05
-3.32766e-05
-4.54212e-05
-3.49053e-05
-2.50996e-05
0.0246139
0.024471
0.0227794
0.0197429
0.0159839
0.0121774
0.00876421
0.00593741
0.00376901
0.00233264
0.00167683
0.00170606
0.00215365
0.00270905
0.00315994
0.00343145
0.00354454
0.00355749
0.00352421
0.00347841
0.00343534
0.00339878
0.00336704
0.00333707
0.00330681
0.00327566
0.00324385
0.00321153
0.00317846
0.0031447
0.00311041
0.00307499
0.00303743
0.00299767
0.00295605
0.00291259
0.00286694
0.0028199
0.00277219
0.00272423
0.0026757
0.00262689
0.00257798
0.00252948
0.00248107
0.00243268
0.00238451
0.00233774
0.00229201
0.00224627
0.00219948
0.00215235
0.00210527
0.0020584
0.00201095
0.00196313
0.00191439
0.00186562
0.00181647
0.00176759
0.00171842
0.00166989
0.00162136
0.00157293
0.00152382
0.00147557
0.00142718
0.00137819
0.00132797
0.00127778
0.00122621
0.00117472
0.0011225
0.00107061
0.00101814
0.000966303
0.000913506
0.000860461
0.000806172
0.000752136
0.000696893
0.000642097
0.000586803
0.000532549
0.000478191
0.000423816
0.000370107
0.000317254
0.000265358
0.000214924
0.000166662
0.000120275
7.92712e-05
4.04277e-05
1.05068e-05
-1.75979e-05
-3.21417e-05
-4.43604e-05
-3.42866e-05
-2.44924e-05
0.0235673
0.0234702
0.0220351
0.0193801
0.0159731
0.0124043
0.00913791
0.00642462
0.00434407
0.00292548
0.00219279
0.00208782
0.00240761
0.00287884
0.00328731
0.00354021
0.00364357
0.00364872
0.00360804
0.00355537
0.00350583
0.00346307
0.00342563
0.00339082
0.00335648
0.00332159
0.00328622
0.00325055
0.00321444
0.00317789
0.00314101
0.00310324
0.00306364
0.00302204
0.00297875
0.00293382
0.00288699
0.00283891
0.0027902
0.00274123
0.0026918
0.00264219
0.00259253
0.00254327
0.00249414
0.0024451
0.00239634
0.00234891
0.00230249
0.00225614
0.00220885
0.00216128
0.00211378
0.00206648
0.00201864
0.00197046
0.00192143
0.00187237
0.00182293
0.00177376
0.00172432
0.00167552
0.00162671
0.00157802
0.00152869
0.00148022
0.00143162
0.00138243
0.00133206
0.00128169
0.00122996
0.00117831
0.00112596
0.00107393
0.00102135
0.00096937
0.000916466
0.000863316
0.000808943
0.000754795
0.000699496
0.000644639
0.000589298
0.00053493
0.000480504
0.00042607
0.000372367
0.000319462
0.000267523
0.000217007
0.000168718
0.000122282
8.12434e-05
4.23068e-05
1.22838e-05
-1.59121e-05
-3.06567e-05
-4.29536e-05
-3.3465e-05
-2.36723e-05
0.0226067
0.0225602
0.0213366
0.0190072
0.0159325
0.0126116
0.00949762
0.00688404
0.00487747
0.00348315
0.00269649
0.00247732
0.00267569
0.00305948
0.00342108
0.00365333
0.00374697
0.00374481
0.00369675
0.00363657
0.00357973
0.0035301
0.00348658
0.00344671
0.00340814
0.00336943
0.00333038
0.00329124
0.00325199
0.00321257
0.003173
0.00313281
0.00309108
0.00304758
0.00300253
0.00295608
0.00290801
0.00285884
0.00280907
0.00275907
0.00270872
0.00265828
0.00260786
0.00255783
0.00250797
0.00245827
0.0024089
0.0023608
0.0023137
0.0022667
0.00221889
0.00217086
0.00212292
0.00207517
0.00202693
0.00197838
0.00192906
0.00187971
0.00182999
0.00178052
0.00173081
0.00168173
0.00163263
0.00158367
0.00153413
0.00148541
0.00143657
0.00138718
0.00133663
0.00128608
0.0012342
0.00118238
0.0011299
0.00107772
0.00102503
0.000972885
0.000919866
0.0008666
0.00081215
0.00075788
0.000702535
0.000647616
0.000592238
0.000537736
0.000483242
0.00042874
0.000375065
0.000322106
0.000270135
0.000219527
0.000171224
0.000124739
8.3673e-05
4.46333e-05
1.44929e-05
-1.37982e-05
-2.87925e-05
-4.11715e-05
-3.24067e-05
-2.26153e-05
0.0217292
0.0217378
0.0206901
0.0186358
0.0158627
0.0127912
0.00983917
0.00732104
0.00537669
0.00400729
0.00318345
0.00286897
0.00295516
0.00325078
0.00356163
0.00377073
0.00385415
0.00384518
0.0037901
0.00372218
0.0036573
0.00360006
0.00354997
0.00350477
0.00346181
0.00341916
0.00337633
0.00333362
0.0032911
0.00324869
0.00320635
0.00316364
0.00311971
0.00307423
0.00302736
0.0029793
0.00292993
0.00287963
0.00282876
0.00277768
0.00272635
0.00267506
0.00262385
0.00257304
0.00252243
0.00247205
0.00242206
0.00237328
0.00232547
0.00227781
0.00222947
0.00218096
0.00213255
0.00208435
0.00203568
0.00198676
0.00193714
0.00188749
0.00183749
0.00178771
0.00173774
0.00168837
0.00163899
0.00158975
0.00154
0.00149102
0.00144194
0.00139232
0.0013416
0.00129084
0.00123882
0.00118683
0.00113424
0.00108191
0.00102911
0.000976782
0.000923641
0.000870246
0.000815727
0.000761328
0.000705956
0.000650976
0.000595576
0.000540924
0.000486364
0.000431788
0.000378161
0.000325147
0.000273159
0.000222452
0.000174153
0.000127619
8.65371e-05
4.73863e-05
1.71166e-05
-1.12695e-05
-2.65588e-05
-3.90245e-05
-3.11066e-05
-2.13373e-05
0.0209292
0.0209984
0.0200995
0.018277
0.0157708
0.0129407
0.010158
0.00773652
0.00584601
0.00449908
0.00365005
0.00325802
0.00324343
0.00345273
0.00370981
0.00389297
0.00396508
0.00394944
0.00388779
0.00381217
0.00373874
0.00367314
0.00361591
0.00356505
0.0035175
0.00347077
0.00342408
0.00337769
0.00333178
0.00328627
0.00324106
0.00319574
0.00314953
0.00310199
0.00305322
0.00300349
0.00295275
0.00290125
0.00284923
0.00279703
0.00274469
0.00269251
0.00264048
0.00258885
0.00253747
0.0024864
0.00243576
0.00238628
0.00233775
0.00228942
0.00224051
0.0021915
0.00214261
0.00209393
0.00204483
0.00199552
0.00194559
0.00189564
0.00184535
0.00179526
0.00174502
0.00169537
0.0016457
0.00159618
0.00154622
0.00149697
0.00144764
0.00139778
0.00134687
0.0012959
0.00124373
0.00119158
0.0011389
0.00108642
0.00103352
0.000980988
0.000927721
0.000874183
0.000819601
0.000765069
0.000709687
0.000654649
0.000599244
0.000544429
0.000489811
0.000435155
0.000381594
0.000328521
0.000276532
0.000225723
0.000177448
0.000130866
8.97789e-05
5.05121e-05
2.01019e-05
-8.37512e-06
-2.40001e-05
-3.65573e-05
-2.95879e-05
-1.98902e-05
0.0201991
0.0203382
0.0195679
0.0179404
0.0156657
0.0130599
0.0104488
0.00812825
0.00628796
0.00496077
0.00409493
0.00364127
0.00353821
0.00366495
0.00386627
0.00402062
0.00407985
0.00405717
0.00398925
0.00390624
0.00382411
0.00374954
0.00368451
0.00362759
0.00357523
0.00352427
0.00347362
0.00342347
0.00337406
0.00332532
0.00327715
0.00322914
0.00318055
0.00313087
0.00308013
0.00302866
0.00297649
0.00292374
0.0028705
0.00281713
0.00276374
0.00271063
0.00265775
0.00260528
0.00255309
0.00250129
0.00244998
0.00239979
0.00235051
0.00230149
0.002252
0.00220247
0.00215309
0.00210392
0.00205437
0.00200464
0.0019544
0.00190413
0.00185354
0.00180314
0.00175262
0.00170267
0.00165271
0.0016029
0.00155273
0.00150321
0.00145363
0.00140351
0.0013524
0.0013012
0.00124889
0.00119658
0.00114381
0.00109119
0.00103818
0.000985446
0.00093205
0.000878358
0.000823715
0.000769044
0.000713666
0.000658572
0.000603175
0.00054819
0.000493521
0.000438781
0.0003853
0.000332165
0.000280184
0.000229273
0.000181037
0.000134413
9.33269e-05
5.39434e-05
2.33789e-05
-5.18157e-06
-2.118e-05
-3.38345e-05
-2.78926e-05
-1.83445e-05
0.0195315
0.0197531
0.0190963
0.0176318
0.0155549
0.0131509
0.010708
0.0084935
0.00670411
0.00539503
0.00451806
0.0040162
0.00383698
0.00388637
0.0040311
0.00415398
0.00419848
0.00416805
0.00409391
0.00400398
0.00391337
0.00382947
0.00375598
0.00369249
0.00363506
0.0035797
0.00352495
0.00347097
0.00341796
0.00336588
0.00331463
0.00326385
0.0032128
0.0031609
0.00310811
0.00305483
0.00300116
0.00294709
0.00289259
0.002838
0.00278351
0.00272944
0.00267567
0.00262232
0.0025693
0.00251673
0.00246472
0.0024138
0.00236377
0.00231403
0.00226394
0.00221386
0.00216396
0.00211429
0.00206427
0.00201412
0.00196355
0.00191295
0.00186205
0.00181132
0.00176052
0.00171026
0.00166001
0.00160989
0.0015595
0.00150971
0.00145987
0.00140949
0.00135818
0.00130674
0.00125428
0.00120179
0.00114894
0.00109617
0.00104307
0.000990123
0.000936593
0.000882739
0.000828033
0.000773218
0.000717852
0.000662705
0.000607322
0.000552162
0.000497444
0.00044262
0.000389227
0.00033603
0.000284059
0.000233047
0.000184859
0.000138202
9.71146e-05
5.7618e-05
2.68802e-05
-1.75375e-06
-1.81631e-05
-3.09223e-05
-2.6067e-05
-1.67684e-05
0.0189191
0.0192365
0.0186831
0.0173544
0.0154447
0.0132186
0.0109349
0.00882967
0.00709462
0.00580386
0.00491983
0.00438077
0.00413715
0.00411545
0.00420395
0.00429319
0.00432108
0.004282
0.00420145
0.00410497
0.00400636
0.00391309
0.00383055
0.00375986
0.00369701
0.00363708
0.00357806
0.00352015
0.0034635
0.00340798
0.00335354
0.0032999
0.0032463
0.0031921
0.00313718
0.00308203
0.00302679
0.00297135
0.00291553
0.00285966
0.00280403
0.00274895
0.00269426
0.00263999
0.0025861
0.00253275
0.00248001
0.00242832
0.00237751
0.00232705
0.00227633
0.00222569
0.00217526
0.00212506
0.00207456
0.00202397
0.00197305
0.00192211
0.00187089
0.00181981
0.00176872
0.00171814
0.00166758
0.00161715
0.00156654
0.00151647
0.00146637
0.00141571
0.00136418
0.0013125
0.00125988
0.00120722
0.00115429
0.00110136
0.00104816
0.000995
0.000941332
0.00088731
0.000832536
0.000777574
0.000722221
0.000667023
0.000611656
0.000556319
0.000501548
0.000446644
0.00039334
0.000340084
0.000288117
0.000237008
0.000188866
0.000142189
0.000101091
6.14897e-05
3.05535e-05
1.85737e-06
-1.50014e-05
-2.78765e-05
-2.41503e-05
-1.52131e-05
0.0183556
0.0187802
0.0183248
0.0171104
0.0153409
0.0132685
0.0111305
0.0091347
0.00745862
0.0061885
0.0053008
0.0047333
0.00443624
0.0043505
0.00438431
0.00443835
0.00444786
0.00439915
0.00431177
0.00420883
0.00410273
0.00400036
0.00390839
0.00382984
0.00376112
0.00369641
0.00363298
0.003571
0.00351067
0.00345166
0.00339392
0.00333732
0.0032811
0.00322451
0.00316739
0.00311028
0.0030534
0.00299653
0.00293933
0.00288213
0.00282531
0.00276918
0.00271353
0.00265832
0.00260352
0.00254934
0.00249584
0.00244337
0.00239177
0.00234056
0.00228919
0.00223796
0.00218698
0.00213624
0.00208525
0.0020342
0.00198292
0.00193162
0.00188006
0.00182862
0.00177722
0.00172632
0.00167544
0.00162468
0.00157384
0.00152349
0.00147311
0.00142218
0.00137043
0.00131848
0.0012657
0.00121286
0.00115983
0.00110676
0.00105346
0.00100007
0.000946262
0.000892067
0.00083722
0.000782109
0.000726766
0.000671518
0.000616163
0.000560648
0.000505819
0.000450839
0.000397621
0.000344311
0.000292337
0.000241138
0.000193033
0.000146349
0.000105224
6.5529e-05
3.43648e-05
5.61753e-06
-1.17289e-05
-2.47374e-05
-2.21688e-05
-1.37092e-05
0.0178346
0.0183748
0.018016
0.0169
0.0152473
0.0133056
0.0112979
0.00940795
0.00779494
0.00654936
0.00566135
0.00507247
0.004732
0.00458987
0.00457157
0.00458954
0.004579
0.00451956
0.0044248
0.00431521
0.00420202
0.00409109
0.00398962
0.00390257
0.00382742
0.0037577
0.00368975
0.00362356
0.00355946
0.00349695
0.00343583
0.00337614
0.00331722
0.00325816
0.00319874
0.00313961
0.00308102
0.00302265
0.00296402
0.00290545
0.00284738
0.00279016
0.0027335
0.00267731
0.00262157
0.00256653
0.00251225
0.00245897
0.00240655
0.00235457
0.00230253
0.00225069
0.00219913
0.00214784
0.00209634
0.00204481
0.00199316
0.00194149
0.00188958
0.00183776
0.00178603
0.0017348
0.00168359
0.0016325
0.00158142
0.00153078
0.00148012
0.00142891
0.00137691
0.0013247
0.00127174
0.00121871
0.00116559
0.00111236
0.00105895
0.00100534
0.000951382
0.000897013
0.000842083
0.000786822
0.000731485
0.000676191
0.000620839
0.000565147
0.000510251
0.000455201
0.000402062
0.000348706
0.000296711
0.000245428
0.000197345
0.000150668
0.000109495
6.97199e-05
3.82958e-05
9.50613e-06
-8.36386e-06
-2.15316e-05
-2.01367e-05
-1.22706e-05
0.0173505
0.0180117
0.0177502
0.0167216
0.0151664
0.0133348
0.0114411
0.00965032
0.0081025
0.006886
0.00600165
0.00539737
0.00502245
0.00483192
0.00476502
0.00474664
0.00471452
0.00464321
0.00454048
0.00442391
0.00430376
0.00418487
0.00407419
0.00397823
0.00389603
0.00382098
0.00374842
0.00367789
0.00360986
0.00354382
0.00347929
0.0034164
0.00335466
0.00329307
0.00323128
0.00317003
0.00310967
0.00304974
0.00298962
0.00292961
0.00287026
0.0028119
0.00275419
0.00269699
0.00264027
0.00258433
0.00252923
0.00247512
0.00242187
0.00236909
0.00231636
0.00226389
0.00221174
0.00215988
0.00210784
0.00205583
0.00200378
0.00195173
0.00189944
0.00184723
0.00179517
0.00174359
0.00169205
0.00164061
0.00158928
0.00153834
0.0014874
0.00143589
0.00138364
0.00133115
0.00127801
0.00122479
0.00117157
0.00111817
0.00106465
0.00101082
0.000956697
0.00090215
0.000847129
0.00079172
0.000736382
0.000681045
0.000625685
0.000569818
0.000514842
0.000459732
0.000406662
0.000353269
0.000301234
0.000249878
0.000201798
0.000155144
0.000113898
7.40547e-05
4.23387e-05
1.35113e-05
-4.91391e-06
-1.82751e-05
-1.80602e-05
-1.09006e-05
0.0168986
0.0176839
0.0175207
0.0165729
0.0150999
0.0133604
0.0115646
0.00986392
0.00838086
0.00719767
0.00632171
0.0057075
0.00530589
0.00507486
0.0049637
0.00490934
0.00485436
0.00477001
0.00465872
0.00453486
0.00440766
0.00428128
0.00416196
0.004057
0.00396714
0.00388629
0.00380897
0.003734
0.00366188
0.0035922
0.00352428
0.00345812
0.00339346
0.00332927
0.00326503
0.00320158
0.00313938
0.00307782
0.00301616
0.00295466
0.00289396
0.00283441
0.00277563
0.00271737
0.00265964
0.00260276
0.00254682
0.00249185
0.00243774
0.00238415
0.0023307
0.00227757
0.00222481
0.00217236
0.00211978
0.00206726
0.00201481
0.00196235
0.00190967
0.00185706
0.00180465
0.0017527
0.00170081
0.00164901
0.00159743
0.00154619
0.00149495
0.00144314
0.00139063
0.00133785
0.00128452
0.0012311
0.00117777
0.00112421
0.00107056
0.0010165
0.000962214
0.000907486
0.000852364
0.000796808
0.000741462
0.000686084
0.000630704
0.000574665
0.000519596
0.000464434
0.000411422
0.000358002
0.000305909
0.000254488
0.000206392
0.000159775
0.000118431
7.85302e-05
4.64924e-05
1.76259e-05
-1.38057e-06
-1.49781e-05
-1.59413e-05
-9.59705e-06
0.0164756
0.0173861
0.0173218
0.0164507
0.0150486
0.0133856
0.0116725
0.0100517
0.00863067
0.00748383
0.00662129
0.0060025
0.00558081
0.00531667
0.00516634
0.00507723
0.00499845
0.00489995
0.00477944
0.00464799
0.00451358
0.00437992
0.0042526
0.00413889
0.00404091
0.00395365
0.00387132
0.00379189
0.00371556
0.0036421
0.00357078
0.00350136
0.00343366
0.00336677
0.00330002
0.00323428
0.00317016
0.00310692
0.00304364
0.00298059
0.00291851
0.00285773
0.00279782
0.00273846
0.00267969
0.00262185
0.00256501
0.00250916
0.00245417
0.00239975
0.00234556
0.00229175
0.00223836
0.0021853
0.00213216
0.00207911
0.00202624
0.00197336
0.00192028
0.00186724
0.00181446
0.00176214
0.00170989
0.00165773
0.00160588
0.00155434
0.00150279
0.00145066
0.00139789
0.00134481
0.00129126
0.00123765
0.00118421
0.00113048
0.00107669
0.00102241
0.00096794
0.000913026
0.000857791
0.000802093
0.000746732
0.000691316
0.000635901
0.000579692
0.000524519
0.000469315
0.000416348
0.000362909
0.000310738
0.000259263
0.000211129
0.000164562
0.000123097
8.31449e-05
5.07588e-05
2.18449e-05
2.23743e-06
-1.16467e-05
-1.37807e-05
-8.35512e-06
0.0160787
0.0171145
0.0171486
0.0163515
0.0150119
0.0134125
0.0117683
0.0102171
0.00885368
0.0077444
0.00689982
0.00628182
0.00584589
0.00555534
0.00537143
0.00524976
0.00514672
0.00503301
0.00490257
0.00476322
0.00462145
0.00448051
0.00434566
0.00422369
0.00411739
0.00402314
0.00393545
0.00385154
0.00377097
0.00369356
0.00361875
0.0035461
0.00347531
0.00340558
0.00333626
0.00326815
0.00320202
0.00313704
0.0030721
0.00300745
0.00294392
0.00288186
0.00282079
0.0027603
0.00270043
0.00264159
0.00258384
0.00252708
0.00247119
0.00241591
0.00236096
0.00230645
0.0022524
0.00219872
0.002145
0.00209141
0.00203809
0.00198478
0.00193127
0.00187779
0.00182464
0.00177192
0.00171929
0.00166677
0.00161465
0.00156279
0.00151093
0.00145847
0.00140541
0.00135203
0.00129827
0.00124444
0.00119089
0.00113699
0.00108304
0.00102853
0.00097388
0.000918778
0.000863417
0.000807582
0.000752198
0.000696747
0.000641279
0.000584905
0.000529614
0.000474379
0.000421443
0.000367995
0.000315726
0.000264204
0.000216015
0.000169507
0.000127898
8.78977e-05
5.51413e-05
2.61642e-05
5.9422e-06
-8.28523e-06
-1.15796e-05
-7.16903e-06
0.0157053
0.0168661
0.016997
0.0162715
0.0149882
0.0134421
0.0118551
0.0103636
0.00905235
0.00797993
0.0071566
0.00654472
0.00610014
0.00578912
0.00557725
0.00542613
0.00529899
0.00516917
0.0050281
0.00488046
0.00473115
0.00458283
0.00444065
0.00431102
0.00419661
0.0040949
0.0040014
0.00391291
0.00382812
0.00374661
0.00366813
0.00359226
0.0035184
0.00344574
0.00337374
0.00330322
0.00323499
0.0031682
0.00310156
0.00303524
0.00297021
0.00290683
0.00284455
0.00278288
0.00272189
0.002662
0.00260331
0.00254561
0.0024888
0.00243264
0.0023769
0.00232166
0.00226694
0.00221262
0.0021583
0.00210415
0.00205038
0.00199662
0.00194266
0.00188872
0.00183517
0.00178206
0.00172904
0.00167614
0.00162374
0.00157156
0.00151937
0.00146658
0.0014132
0.00135952
0.00130554
0.0012515
0.00119781
0.00114374
0.00108963
0.00103488
0.00098004
0.00092475
0.000869249
0.000813282
0.000757867
0.000702383
0.000646844
0.00059031
0.000534888
0.000479632
0.000426713
0.000373263
0.000320878
0.000269314
0.000221053
0.000174611
0.000132838
9.27874e-05
5.96438e-05
3.05798e-05
9.73551e-06
-4.89631e-06
-9.33978e-06
-6.0325e-06
0.0153528
0.0166381
0.0168639
0.0162071
0.0149756
0.013475
0.0119353
0.0104942
0.00922935
0.00819171
0.00739131
0.00679036
0.00634275
0.0060166
0.00578199
0.00560521
0.00545499
0.00530841
0.00515598
0.00499955
0.00484246
0.00468669
0.00453727
0.00440049
0.00427844
0.00416908
0.00406923
0.00397592
0.00388695
0.00380129
0.00371893
0.00363976
0.00356292
0.00348728
0.00341248
0.00333949
0.0032691
0.00320041
0.00313201
0.00306397
0.00299739
0.00293264
0.00286911
0.00280623
0.00274408
0.00268311
0.00262344
0.00256478
0.00250702
0.00244996
0.0023934
0.00233741
0.002282
0.00222702
0.00217209
0.00211736
0.00206312
0.00200889
0.00195446
0.00190004
0.00184608
0.00179255
0.00173913
0.00168585
0.00163315
0.00158065
0.00152813
0.00147499
0.00142129
0.00136728
0.00131308
0.00125882
0.00120498
0.00115075
0.00109647
0.00104147
0.000986425
0.000930947
0.000875296
0.0008192
0.000763747
0.00070823
0.000652602
0.000595911
0.000540347
0.00048508
0.000432164
0.000378717
0.000326198
0.000274598
0.000226249
0.000179876
0.000137922
9.7813e-05
6.42703e-05
3.50884e-05
1.36184e-05
-1.48155e-06
-7.06409e-06
-4.93906e-06
0.0150188
0.0164277
0.0167462
0.0161556
0.0149719
0.013511
0.0120105
0.0106116
0.00938735
0.00838168
0.0076043
0.00701793
0.00657282
0.00623661
0.00598396
0.00578559
0.00561418
0.00545059
0.00528605
0.00512035
0.00495523
0.004792
0.00463537
0.00449171
0.00436259
0.00424567
0.00413898
0.00404049
0.00394736
0.00385762
0.00377121
0.00368856
0.00360879
0.00353024
0.00345251
0.00337694
0.00330437
0.0032337
0.00316346
0.00309366
0.00302547
0.0029593
0.0028945
0.00283036
0.002767
0.00270492
0.00264423
0.00258458
0.00252585
0.00246787
0.00241048
0.00235372
0.0022976
0.00224193
0.00218636
0.00213105
0.00207632
0.0020216
0.00196667
0.00191176
0.00185737
0.00180341
0.00174958
0.00169592
0.00164291
0.00159009
0.00153722
0.00148372
0.00142967
0.00137532
0.00132088
0.00126643
0.00121242
0.00115801
0.00110355
0.00104831
0.000993043
0.000937374
0.000881563
0.000825346
0.000769845
0.000714296
0.000658557
0.000601713
0.000545998
0.000490729
0.000437802
0.00038436
0.000331693
0.000280056
0.000231609
0.000185301
0.000143155
0.000102973
6.90242e-05
3.9687e-05
1.7591e-05
1.95856e-06
-4.75601e-06
-3.88257e-06
0.0147013
0.0162324
0.0166417
0.0161147
0.0149754
0.0135495
0.0120818
0.0107179
0.0095288
0.00855205
0.00779656
0.00722683
0.00678923
0.00644816
0.00618176
0.00596568
0.00577562
0.00559539
0.00541817
0.00524284
0.00506945
0.00489862
0.00473479
0.00458432
0.0044486
0.00432451
0.0042107
0.00410659
0.00400924
0.00391554
0.00382503
0.00373867
0.00365594
0.00357459
0.00349388
0.00341556
0.00334075
0.00326809
0.00319593
0.00312433
0.00305446
0.00298683
0.00292071
0.00285528
0.00279068
0.00272745
0.00266571
0.00260504
0.00254532
0.00248639
0.00242814
0.00237058
0.00231373
0.00225738
0.00220115
0.00214524
0.00208999
0.00203477
0.00197932
0.00192389
0.00186906
0.00181466
0.0017604
0.00170635
0.00165302
0.00159987
0.00154664
0.00149276
0.00143836
0.00138367
0.00132897
0.00127433
0.00122015
0.00116555
0.00111087
0.00105542
0.00099991
0.000944034
0.000888056
0.000831729
0.000776168
0.000720583
0.000664716
0.000607723
0.000551847
0.000496584
0.000443633
0.000390194
0.000337368
0.000285692
0.000237138
0.000190888
0.000148539
0.000108267
7.3908e-05
4.43734e-05
2.16523e-05
5.42459e-06
-2.4192e-06
-2.85731e-06
0.0143988
0.0160498
0.0165484
0.0160825
0.0149846
0.0135896
0.0121496
0.0108148
0.00965583
0.008705
0.00796965
0.00741702
0.00699091
0.00665027
0.00637432
0.00614395
0.00593804
0.00574237
0.00555224
0.00536696
0.00518508
0.00500638
0.00483526
0.00467806
0.00453604
0.00440533
0.00428443
0.00417425
0.00407252
0.003975
0.00388041
0.00379012
0.00370424
0.00362023
0.0035366
0.00345536
0.00337822
0.00330357
0.00322944
0.00315597
0.0030844
0.00301522
0.00294774
0.002881
0.00281512
0.0027507
0.00268788
0.00262617
0.00256543
0.00250553
0.0024464
0.00238802
0.00233042
0.00227336
0.00221645
0.00215992
0.00210414
0.0020484
0.00199241
0.00193644
0.00188114
0.00182629
0.0017716
0.00171717
0.0016635
0.00161001
0.00155641
0.00150214
0.00144736
0.00139232
0.00133735
0.00128251
0.00122818
0.00117337
0.00111845
0.00106277
0.00100704
0.00095094
0.00089478
0.000838356
0.000782729
0.000727098
0.000671084
0.000613945
0.000557903
0.000502649
0.000449663
0.000396223
0.000343229
0.000291507
0.000242842
0.000196637
0.000154078
0.000113694
7.89232e-05
4.91456e-05
2.58001e-05
8.91739e-06
-5.73367e-08
-1.85787e-06
0.0141106
0.015878
0.0164642
0.0160574
0.0149979
0.0136303
0.012214
0.0109034
0.00977016
0.00884246
0.00812541
0.00758917
0.00717706
0.0068418
0.00656063
0.00631905
0.00610009
0.00589086
0.0056881
0.00549249
0.00530199
0.00511516