/*--------------------------------*- C++ -*----------------------------------*\
| =========                 |                                                 |
| \\      /  F ield         | OpenFOAM: The Open Source CFD Toolbox           |
|  \\    /   O peration     | Version:  5.x                                   |
|   \\  /    A nd           | Web:      www.OpenFOAM.org                      |
|    \\/     M anipulation  |                                                 |
\*---------------------------------------------------------------------------*/
FoamFile
{
    version     2.0;
    format      ascii;
    class       surfaceScalarField;
    location    "0.3";
    object      phi;
}
// * * * * * * * * * * * * * * * * * * * * * * * * * * * * * * * * * * * * * //

dimensions      [0 3 -1 0 0 0 0];

internalField   nonuniform List<scalar> 
21390
(
7.40967e-08
6.83353e-09
-8.09303e-08
6.56713e-08
8.42546e-09
5.73924e-08
8.27891e-09
4.93774e-08
8.01499e-09
4.16459e-08
7.73145e-09
3.44955e-08
7.15041e-09
2.84005e-08
6.095e-09
2.37552e-08
4.64535e-09
2.06163e-08
3.13882e-09
1.86408e-08
1.9755e-09
1.73773e-08
1.26352e-09
1.6516e-08
8.61353e-10
1.58789e-08
6.37091e-10
1.53557e-08
5.23207e-10
1.48796e-08
4.76098e-10
1.44205e-08
4.59078e-10
1.39708e-08
4.49717e-10
1.35337e-08
4.37075e-10
1.31157e-08
4.18002e-10
1.27221e-08
3.93596e-10
1.23552e-08
3.66868e-10
1.20144e-08
3.40874e-10
1.16968e-08
3.17557e-10
1.13997e-08
2.97103e-10
1.11208e-08
2.78943e-10
1.08583e-08
2.62484e-10
1.06106e-08
2.47639e-10
1.03763e-08
2.34327e-10
1.01539e-08
2.22433e-10
9.94229e-09
2.1158e-10
9.74057e-09
2.01716e-10
9.54775e-09
1.92825e-10
9.36292e-09
1.84824e-10
9.18559e-09
1.77333e-10
9.01521e-09
1.70379e-10
8.85125e-09
1.63965e-10
8.69316e-09
1.58088e-10
8.54081e-09
1.52353e-10
8.39388e-09
1.46925e-10
8.25211e-09
1.41775e-10
8.11498e-09
1.37121e-10
7.98233e-09
1.32653e-10
7.85384e-09
1.28491e-10
7.72942e-09
1.2442e-10
7.60865e-09
1.20772e-10
7.49139e-09
1.17257e-10
7.37746e-09
1.13928e-10
7.26702e-09
1.10441e-10
7.15971e-09
1.07308e-10
7.05534e-09
1.04379e-10
6.95351e-09
1.01822e-10
6.8544e-09
9.91118e-11
6.75782e-09
9.65834e-11
6.6638e-09
9.4019e-11
6.572e-09
9.17948e-11
6.4825e-09
8.95061e-11
6.39494e-09
8.75537e-11
6.30957e-09
8.53785e-11
6.22602e-09
8.35489e-11
6.14451e-09
8.15043e-11
6.06467e-09
7.98396e-11
5.98682e-09
7.7857e-11
5.91052e-09
7.62921e-11
5.83601e-09
7.4518e-11
5.76285e-09
7.3153e-11
5.69156e-09
7.12924e-11
5.6216e-09
6.99584e-11
5.55322e-09
6.83817e-11
5.48601e-09
6.72136e-11
5.42041e-09
6.55994e-11
5.3558e-09
6.4604e-11
5.29278e-09
6.30279e-11
5.2307e-09
6.20739e-11
5.17018e-09
6.05225e-11
5.11058e-09
5.95997e-11
5.05258e-09
5.79989e-11
4.99539e-09
5.71886e-11
4.93969e-09
5.56993e-11
4.88471e-09
5.49783e-11
4.83131e-09
5.34044e-11
4.77853e-09
5.27769e-11
4.7274e-09
5.11369e-11
4.67691e-09
5.04824e-11
4.6282e-09
4.87111e-11
4.58008e-09
4.81273e-11
4.5336e-09
4.64782e-11
4.48776e-09
4.58377e-11
4.44376e-09
4.40026e-11
4.40033e-09
4.34272e-11
4.35888e-09
4.14489e-11
4.31789e-09
4.09946e-11
4.27895e-09
3.89406e-11
4.24058e-09
3.83626e-11
4.20426e-09
3.63275e-11
4.16857e-09
3.56857e-11
4.13463e-09
3.39412e-11
4.10125e-09
3.3379e-11
4.06917e-09
3.20758e-11
4.03771e-09
3.14626e-11
3.23484e-11
8.5384e-08
6.35026e-09
-8.49008e-08
8.4458e-08
9.35146e-09
8.25618e-08
1.01751e-08
8.01366e-08
1.04403e-08
7.71991e-08
1.06689e-08
7.37747e-08
1.05748e-08
7.00023e-08
9.86739e-09
6.61409e-08
8.50673e-09
6.24988e-08
6.78094e-09
5.9264e-08
5.21034e-09
5.64167e-08
4.11083e-09
5.3865e-08
3.41303e-09
5.15575e-08
2.94457e-09
4.94691e-08
2.61159e-09
4.75703e-08
2.37489e-09
4.58349e-08
2.1945e-09
4.42412e-08
2.04345e-09
4.27725e-08
1.90575e-09
4.14167e-08
1.77382e-09
4.01641e-08
1.64615e-09
3.90053e-08
1.52567e-09
3.79299e-08
1.41626e-09
3.69275e-08
1.31998e-09
3.59891e-08
1.23549e-09
3.51076e-08
1.16042e-09
3.42774e-08
1.09275e-09
3.34933e-08
1.03177e-09
3.27508e-08
9.76818e-10
3.20458e-08
9.27358e-10
3.13751e-08
8.82351e-10
3.07353e-08
8.41517e-10
3.01237e-08
8.04419e-10
2.95379e-08
7.70631e-10
2.8976e-08
7.39173e-10
2.84363e-08
7.10053e-10
2.79173e-08
6.82982e-10
2.74176e-08
6.5781e-10
2.69363e-08
6.33621e-10
2.64724e-08
6.10878e-10
2.60247e-08
5.89422e-10
2.55921e-08
5.69738e-10
2.51738e-08
5.51006e-10
2.47687e-08
5.33574e-10
2.43763e-08
5.16837e-10
2.39955e-08
5.01529e-10
2.3626e-08
4.86758e-10
2.32672e-08
4.72792e-10
2.29188e-08
4.58805e-10
2.258e-08
4.46086e-10
2.22504e-08
4.33988e-10
2.19292e-08
4.22993e-10
2.16166e-08
4.1173e-10
2.1312e-08
4.01227e-10
2.10152e-08
3.90746e-10
2.07256e-08
3.81391e-10
2.04432e-08
3.71941e-10
2.01672e-08
3.6355e-10
1.98979e-08
3.54659e-10
1.96346e-08
3.46878e-10
1.93776e-08
3.3856e-10
1.9126e-08
3.31434e-10
1.88803e-08
3.23506e-10
1.86397e-08
3.1693e-10
1.84045e-08
3.09689e-10
1.81739e-08
3.03727e-10
1.79488e-08
2.96457e-10
1.77279e-08
2.90862e-10
1.75119e-08
2.8436e-10
1.72998e-08
2.79271e-10
1.70926e-08
2.72833e-10
1.68889e-08
2.68339e-10
1.66898e-08
2.62085e-10
1.6494e-08
2.57876e-10
1.63028e-08
2.51699e-10
1.61148e-08
2.47664e-10
1.59313e-08
2.41408e-10
1.57507e-08
2.37819e-10
1.55746e-08
2.31801e-10
1.54011e-08
2.28526e-10
1.52322e-08
2.22305e-10
1.50656e-08
2.19375e-10
1.49039e-08
2.128e-10
1.47446e-08
2.09823e-10
1.45905e-08
2.02811e-10
1.44383e-08
2.00267e-10
1.42915e-08
1.93346e-10
1.41466e-08
1.9069e-10
1.40076e-08
1.82985e-10
1.38705e-08
1.80568e-10
1.37397e-08
1.72248e-10
1.36103e-08
1.7034e-10
1.34879e-08
1.61325e-10
1.3367e-08
1.59334e-10
1.32534e-08
1.4987e-10
1.31409e-08
1.48218e-10
1.30358e-08
1.39041e-10
1.29309e-08
1.38244e-10
1.28333e-08
1.29735e-10
1.27347e-08
1.30071e-10
1.27632e-10
8.92248e-08
5.94e-09
-8.88145e-08
8.96419e-08
8.93434e-09
8.95813e-08
1.02357e-08
8.93294e-08
1.06922e-08
8.89578e-08
1.10405e-08
8.83349e-08
1.11978e-08
8.73381e-08
1.08642e-08
8.59633e-08
9.88152e-09
8.43323e-08
8.41193e-09
8.26249e-08
6.91774e-09
8.09365e-08
5.79922e-09
7.92602e-08
5.08939e-09
7.75787e-08
4.62603e-09
7.58985e-08
4.29183e-09
7.42316e-08
4.04177e-09
7.25847e-08
3.84136e-09
7.09626e-08
3.66561e-09
6.93698e-08
3.49848e-09
6.78122e-08
3.33148e-09
6.62959e-08
3.16242e-09
6.48263e-08
2.99524e-09
6.34066e-08
2.83598e-09
6.20378e-08
2.68881e-09
6.072e-08
2.55331e-09
5.94527e-08
2.42773e-09
5.82349e-08
2.31055e-09
5.70647e-08
2.20193e-09
5.594e-08
2.10156e-09
5.48582e-08
2.00914e-09
5.38171e-08
1.92348e-09
5.2814e-08
1.84457e-09
5.18467e-08
1.77173e-09
5.0913e-08
1.70436e-09
5.00111e-08
1.641e-09
4.91394e-08
1.58182e-09
4.82962e-08
1.52618e-09
4.74802e-08
1.47376e-09
4.66907e-08
1.42312e-09
4.59265e-08
1.37514e-09
4.51863e-08
1.32954e-09
4.44689e-08
1.28717e-09
4.37732e-08
1.24673e-09
4.30978e-08
1.20895e-09
4.24418e-08
1.17281e-09
4.18039e-08
1.13949e-09
4.11833e-08
1.1073e-09
4.05792e-08
1.07688e-09
3.99912e-08
1.04682e-09
3.9418e-08
1.01928e-09
3.88592e-08
9.92854e-10
3.83137e-08
9.68459e-10
3.77817e-08
9.43692e-10
3.72625e-08
9.20499e-10
3.67558e-08
8.9737e-10
3.62608e-08
8.76436e-10
3.57774e-08
8.5537e-10
3.53045e-08
8.36367e-10
3.48426e-08
8.16564e-10
3.43906e-08
7.98964e-10
3.39487e-08
7.80447e-10
3.35158e-08
7.6429e-10
3.30926e-08
7.46742e-10
3.26776e-08
7.31879e-10
3.22716e-08
7.15677e-10
3.18734e-08
7.02011e-10
3.14838e-08
6.85992e-10
3.11014e-08
6.73253e-10
3.07272e-08
6.58547e-10
3.03597e-08
6.46812e-10
3.00001e-08
6.32395e-10
2.96466e-08
6.21894e-10
2.93007e-08
6.07928e-10
2.89605e-08
5.98153e-10
2.86278e-08
5.84333e-10
2.83005e-08
5.74997e-10
2.79808e-08
5.61061e-10
2.7666e-08
5.52691e-10
2.73587e-08
5.39055e-10
2.70559e-08
5.31367e-10
2.67608e-08
5.17383e-10
2.64697e-08
5.10476e-10
2.61869e-08
4.95624e-10
2.5908e-08
4.88685e-10
2.5638e-08
4.72868e-10
2.53712e-08
4.66996e-10
2.51136e-08
4.50978e-10
2.48593e-08
4.45029e-10
2.46151e-08
4.27115e-10
2.4374e-08
4.21739e-10
2.41439e-08
4.02302e-10
2.39161e-08
3.98097e-10
2.37008e-08
3.76659e-10
2.34875e-08
3.72648e-10
2.32878e-08
3.49577e-10
2.30891e-08
3.46919e-10
2.29047e-08
3.2339e-10
2.27198e-08
3.23166e-10
2.25496e-08
2.99955e-10
2.23766e-08
3.0308e-10
2.90989e-10
9.30293e-08
5.78053e-09
-9.28698e-08
9.35463e-08
8.41724e-09
9.38191e-08
9.96294e-09
9.39879e-08
1.05233e-08
9.42256e-08
1.08029e-08
9.44686e-08
1.09547e-08
9.4564e-08
1.07688e-08
9.44054e-08
1.00401e-08
9.39841e-08
8.83322e-09
9.33965e-08
7.50535e-09
9.27451e-08
6.45063e-09
9.2054e-08
5.78051e-09
9.13078e-08
5.37214e-09
9.05042e-08
5.09544e-09
8.96531e-08
4.89294e-09
8.87607e-08
4.73371e-09
8.78299e-08
4.59641e-09
8.68625e-08
4.46588e-09
8.58612e-08
4.33276e-09
8.48306e-08
4.19306e-09
8.37763e-08
4.04957e-09
8.27041e-08
3.90811e-09
8.16197e-08
3.77322e-09
8.05284e-08
3.64465e-09
7.94351e-08
3.52101e-09
7.83444e-08
3.40127e-09
7.72596e-08
3.28667e-09
7.61835e-08
3.1777e-09
7.51177e-08
3.07497e-09
7.40635e-08
2.97768e-09
7.30214e-08
2.8866e-09
7.1992e-08
2.80118e-09
7.09754e-08
2.72093e-09
6.99724e-08
2.64399e-09
6.89834e-08
2.5709e-09
6.80089e-08
2.50066e-09
6.70497e-08
2.43293e-09
6.61071e-08
2.36576e-09
6.51816e-08
2.3006e-09
6.42741e-08
2.23702e-09
6.33847e-08
2.1766e-09
6.25138e-08
2.11766e-09
6.1661e-08
2.06174e-09
6.08262e-08
2.00757e-09
6.00085e-08
1.9572e-09
5.92077e-08
1.90816e-09
5.84228e-08
1.86168e-09
5.76539e-08
1.81573e-09
5.68997e-08
1.77352e-09
5.616e-08
1.7326e-09
5.54338e-08
1.69458e-09
5.47218e-08
1.65574e-09
5.40231e-08
1.61921e-09
5.33381e-08
1.5823e-09
5.2666e-08
1.54858e-09
5.20071e-08
1.51429e-09
5.13604e-08
1.48308e-09
5.07265e-08
1.45045e-09
5.01042e-08
1.42129e-09
4.94941e-08
1.39054e-09
4.88947e-08
1.36361e-09
4.83071e-08
1.33442e-09
4.77293e-08
1.30964e-09
4.71625e-08
1.28247e-09
4.66051e-08
1.25946e-09
4.60584e-08
1.23262e-09
4.55206e-08
1.21111e-09
4.49932e-08
1.18594e-09
4.44741e-08
1.16588e-09
4.39654e-08
1.14117e-09
4.34642e-08
1.12304e-09
4.29731e-08
1.09905e-09
4.2489e-08
1.08221e-09
4.2015e-08
1.05838e-09
4.15477e-08
1.04231e-09
4.10905e-08
1.01819e-09
4.06395e-08
1.0037e-09
4.01988e-08
9.79785e-10
3.97637e-08
9.66413e-10
3.93392e-08
9.41888e-10
3.89198e-08
9.29911e-10
3.85116e-08
9.03789e-10
3.81085e-08
8.91839e-10
3.77174e-08
8.63907e-10
3.73306e-08
8.53838e-10
3.69565e-08
8.25089e-10
3.65864e-08
8.15108e-10
3.62307e-08
7.82795e-10
3.58786e-08
7.73849e-10
3.55423e-08
7.38601e-10
3.52087e-08
7.3172e-10
3.48929e-08
6.92457e-10
3.45793e-08
6.86226e-10
3.42856e-08
6.43341e-10
3.39925e-08
6.39964e-10
3.37209e-08
5.95047e-10
3.34478e-08
5.96173e-10
3.31971e-08
5.50751e-10
3.29424e-08
5.57755e-10
5.29296e-10
9.7063e-08
5.73685e-09
-9.70193e-08
9.75201e-08
7.96013e-09
9.78876e-08
9.59549e-09
9.81312e-08
1.02796e-08
9.84292e-08
1.05049e-08
9.88019e-08
1.0582e-08
9.91449e-08
1.04259e-08
9.93429e-08
9.84208e-09
9.93459e-08
8.83025e-09
9.92013e-08
7.64989e-09
9.89989e-08
6.65307e-09
9.87781e-08
6.00131e-09
9.85299e-08
5.62035e-09
9.82441e-08
5.38119e-09
9.7924e-08
5.21311e-09
9.75733e-08
5.08444e-09
9.71919e-08
4.97779e-09
9.67774e-08
4.88037e-09
9.63269e-08
4.78327e-09
9.58388e-08
4.68111e-09
9.53133e-08
4.57511e-09
9.47518e-08
4.46962e-09
9.41564e-08
4.3686e-09
9.353e-08
4.27105e-09
9.28756e-08
4.1754e-09
9.21966e-08
4.08029e-09
9.14959e-08
3.98733e-09
9.07765e-08
3.89715e-09
9.00404e-08
3.81108e-09
8.92894e-08
3.72859e-09
8.85247e-08
3.65133e-09
8.7747e-08
3.57889e-09
8.69567e-08
3.51126e-09
8.61545e-08
3.44613e-09
8.53411e-08
3.38431e-09
8.45176e-08
3.32421e-09
8.3685e-08
3.26548e-09
8.28455e-08
3.20529e-09
8.20007e-08
3.14537e-09
8.11531e-08
3.08467e-09
8.03044e-08
3.02528e-09
7.94572e-08
2.96486e-09
7.86131e-08
2.90588e-09
7.77739e-08
2.84674e-09
7.69402e-08
2.7909e-09
7.6113e-08
2.73531e-09
7.52924e-08
2.68237e-09
7.44788e-08
2.62928e-09
7.36716e-08
2.58074e-09
7.28711e-08
2.53307e-09
7.20767e-08
2.48899e-09
7.12894e-08
2.44306e-09
7.05087e-08
2.39993e-09
6.97359e-08
2.35513e-09
6.89704e-08
2.31402e-09
6.82138e-08
2.27093e-09
6.74653e-08
2.23152e-09
6.67266e-08
2.18916e-09
6.59966e-08
2.1513e-09
6.52767e-08
2.11045e-09
6.45654e-08
2.07488e-09
6.38643e-08
2.03554e-09
6.31713e-08
2.00261e-09
6.24881e-08
1.9657e-09
6.18126e-08
1.93495e-09
6.1147e-08
1.89824e-09
6.04888e-08
1.86931e-09
5.98406e-08
1.83409e-09
5.91999e-08
1.80657e-09
5.85697e-08
1.77142e-09
5.79466e-08
1.74615e-09
5.73339e-08
1.71169e-09
5.67279e-08
1.68821e-09
5.61326e-08
1.65374e-09
5.55436e-08
1.63131e-09
5.49657e-08
1.59607e-09
5.43937e-08
1.57574e-09
5.38332e-08
1.54022e-09
5.32783e-08
1.5213e-09
5.27356e-08
1.48459e-09
5.21978e-08
1.46773e-09
5.16732e-08
1.42844e-09
5.11533e-08
1.4117e-09
5.06479e-08
1.36936e-09
5.01463e-08
1.35537e-09
4.96603e-08
1.31115e-09
4.91779e-08
1.29751e-09
4.87132e-08
1.24747e-09
4.82517e-08
1.23535e-09
4.78099e-08
1.1804e-09
4.73702e-08
1.17138e-09
4.69529e-08
1.10973e-09
4.65373e-08
1.1019e-09
4.61468e-08
1.03378e-09
4.57562e-08
1.0306e-09
4.53932e-08
9.58071e-10
4.50278e-08
9.61561e-10
4.46912e-08
8.8729e-10
4.43499e-08
8.99132e-10
8.47533e-10
1.01272e-07
5.73218e-09
-1.01267e-07
1.01642e-07
7.58996e-09
1.02046e-07
9.19086e-09
1.02339e-07
9.98707e-09
1.02628e-07
1.02161e-08
1.02981e-07
1.02292e-08
1.03345e-07
1.00616e-08
1.03616e-07
9.57117e-09
1.03732e-07
8.71378e-09
1.03716e-07
7.66633e-09
1.03646e-07
6.72331e-09
1.03571e-07
6.07552e-09
1.03495e-07
5.69661e-09
1.03405e-07
5.47136e-09
1.033e-07
5.31841e-09
1.03183e-07
5.20145e-09
1.03055e-07
5.10566e-09
1.02914e-07
5.02127e-09
1.02756e-07
4.94117e-09
1.02577e-07
4.85961e-09
1.02376e-07
4.7768e-09
1.0215e-07
4.69561e-09
1.01899e-07
4.61937e-09
1.01624e-07
4.54634e-09
1.01324e-07
4.47482e-09
1.01002e-07
4.40286e-09
1.00657e-07
4.33221e-09
1.00291e-07
4.26306e-09
9.99047e-08
4.19727e-09
9.94992e-08
4.13415e-09
9.90743e-08
4.07623e-09
9.86301e-08
4.02305e-09
9.81659e-08
3.97548e-09
9.76812e-08
3.93077e-09
9.71752e-08
3.89031e-09
9.66477e-08
3.85177e-09
9.60981e-08
3.81509e-09
9.5527e-08
3.7763e-09
9.49349e-08
3.73749e-09
9.43232e-08
3.69635e-09
9.36932e-08
3.65535e-09
9.30473e-08
3.61071e-09
9.23876e-08
3.56555e-09
9.17172e-08
3.51717e-09
9.10376e-08
3.47056e-09
9.0351e-08
3.4219e-09
8.96579e-08
3.3754e-09
8.89599e-08
3.32732e-09
8.82563e-08
3.28437e-09
8.7548e-08
3.24136e-09
8.68341e-08
3.20288e-09
8.61158e-08
3.16133e-09
8.53923e-08
3.12344e-09
8.46652e-08
3.08218e-09
8.39342e-08
3.04505e-09
8.32015e-08
3.00362e-09
8.2467e-08
2.96604e-09
8.17333e-08
2.9228e-09
8.1e-08
2.88465e-09
8.02695e-08
2.84091e-09
7.95407e-08
2.80368e-09
7.88162e-08
2.76006e-09
7.8094e-08
2.72486e-09
7.73764e-08
2.68328e-09
7.6661e-08
2.65031e-09
7.59507e-08
2.60857e-09
7.52423e-08
2.57771e-09
7.45395e-08
2.53686e-09
7.38394e-08
2.50669e-09
7.31463e-08
2.46454e-09
7.24566e-08
2.43587e-09
7.17749e-08
2.39333e-09
7.10967e-08
2.36644e-09
7.04271e-08
2.32334e-09
6.97607e-08
2.29775e-09
6.91036e-08
2.2531e-09
6.84495e-08
2.22989e-09
6.78058e-08
2.18387e-09
6.71652e-08
2.1619e-09
6.65364e-08
2.11344e-09
6.59102e-08
2.09391e-09
6.52972e-08
2.04147e-09
6.46868e-08
2.0221e-09
6.40912e-08
1.96498e-09
6.34974e-08
1.9492e-09
6.29199e-08
1.8886e-09
6.2344e-08
1.87337e-09
6.17874e-08
1.80407e-09
6.12321e-08
1.79069e-09
6.06986e-08
1.71392e-09
6.01654e-08
1.70458e-09
5.96573e-08
1.61785e-09
5.91489e-08
1.61024e-09
5.86694e-08
1.51334e-09
5.81878e-08
1.51217e-09
5.77381e-08
1.4078e-09
5.72844e-08
1.41521e-09
5.68643e-08
1.30743e-09
5.6438e-08
1.32542e-09
1.24515e-09
1.05616e-07
5.73146e-09
-1.05615e-07
1.05906e-07
7.29951e-09
1.06312e-07
8.78534e-09
1.06648e-07
9.65109e-09
1.06938e-07
9.92546e-09
1.07261e-07
9.90638e-09
1.07606e-07
9.71665e-09
1.07888e-07
9.28959e-09
1.0804e-07
8.56175e-09
1.08065e-07
7.64091e-09
1.08029e-07
6.75902e-09
1.07989e-07
6.11609e-09
1.07956e-07
5.72897e-09
1.07922e-07
5.50543e-09
1.07882e-07
5.35867e-09
1.07838e-07
5.24521e-09
1.07793e-07
5.15044e-09
1.07748e-07
5.06714e-09
1.07698e-07
4.99078e-09
1.07642e-07
4.91592e-09
1.07576e-07
4.84246e-09
1.075e-07
4.77191e-09
1.07412e-07
4.7073e-09
1.07312e-07
4.64618e-09
1.072e-07
4.58715e-09
1.07075e-07
4.52763e-09
1.06937e-07
4.46977e-09
1.06787e-07
4.41304e-09
1.06625e-07
4.35987e-09
1.0645e-07
4.30904e-09
1.06262e-07
4.26396e-09
1.06061e-07
4.22377e-09
1.05846e-07
4.19049e-09
1.05616e-07
4.1609e-09
1.05369e-07
4.13737e-09
1.05104e-07
4.11675e-09
1.04819e-07
4.09985e-09
1.04514e-07
4.08154e-09
1.04187e-07
4.06473e-09
1.03838e-07
4.0456e-09
1.03466e-07
4.02733e-09
1.03072e-07
4.0042e-09
1.02658e-07
3.97996e-09
1.02225e-07
3.94984e-09
1.01776e-07
3.92023e-09
1.01312e-07
3.88584e-09
1.00834e-07
3.85321e-09
1.00344e-07
3.81718e-09
9.98411e-08
3.78713e-09
9.93266e-08
3.75588e-09
9.87988e-08
3.73073e-09
9.82586e-08
3.70153e-09
9.77041e-08
3.67789e-09
9.71367e-08
3.64962e-09
9.65548e-08
3.62693e-09
9.59608e-08
3.59766e-09
9.53539e-08
3.57291e-09
9.47376e-08
3.53912e-09
9.41111e-08
3.51109e-09
9.34782e-08
3.47387e-09
9.28374e-08
3.44444e-09
9.21926e-08
3.40487e-09
9.15418e-08
3.37566e-09
9.08885e-08
3.33653e-09
9.023e-08
3.30888e-09
8.95696e-08
3.2689e-09
8.89033e-08
3.244e-09
8.82353e-08
3.20494e-09
8.75615e-08
3.18042e-09
8.68878e-08
3.1383e-09
8.62102e-08
3.1134e-09
8.55354e-08
3.06817e-09
8.48582e-08
3.04368e-09
8.41851e-08
2.9964e-09
8.35095e-08
2.97338e-09
8.28388e-08
2.92379e-09
8.21651e-08
2.90358e-09
8.14977e-08
2.85122e-09
8.08281e-08
2.83152e-09
8.01671e-08
2.7745e-09
7.95041e-08
2.75686e-09
7.88518e-08
2.69375e-09
7.81979e-08
2.67606e-09
7.75566e-08
2.60624e-09
7.69129e-08
2.59293e-09
7.62838e-08
2.51764e-09
7.56522e-08
2.50498e-09
7.50387e-08
2.41759e-09
7.44227e-08
2.40665e-09
7.38281e-08
2.3086e-09
7.32303e-08
2.30229e-09
7.26577e-08
2.19053e-09
7.20815e-08
2.18638e-09
7.15347e-08
2.06014e-09
7.09831e-08
2.06382e-09
7.04643e-08
1.9266e-09
6.99394e-08
1.9401e-09
6.94494e-08
1.79746e-09
6.89515e-08
1.82323e-09
1.71186e-09
1.10078e-07
5.72337e-09
-1.1007e-07
1.10308e-07
7.07017e-09
1.10691e-07
8.40156e-09
1.11056e-07
9.2865e-09
1.1136e-07
9.62141e-09
1.11664e-07
9.60281e-09
1.11984e-07
9.39637e-09
1.12262e-07
9.01122e-09
1.12433e-07
8.39074e-09
1.12485e-07
7.58926e-09
1.12466e-07
6.77815e-09
1.12434e-07
6.14796e-09
1.12412e-07
5.75134e-09
1.12393e-07
5.52359e-09
1.12372e-07
5.37961e-09
1.1235e-07
5.26814e-09
1.12328e-07
5.17242e-09
1.12308e-07
5.08657e-09
1.1229e-07
5.00881e-09
1.12272e-07
4.93436e-09
1.12251e-07
4.86348e-09
1.12226e-07
4.79631e-09
1.12198e-07
4.73587e-09
1.12165e-07
4.67882e-09
1.12128e-07
4.62448e-09
1.12086e-07
4.56954e-09
1.12039e-07
4.51688e-09
1.11987e-07
4.46507e-09
1.11929e-07
4.41739e-09
1.11866e-07
4.37167e-09
1.11798e-07
4.33236e-09
1.11724e-07
4.29772e-09
1.11643e-07
4.27117e-09
1.11556e-07
4.24865e-09
1.11459e-07
4.23392e-09
1.11353e-07
4.22278e-09
1.11235e-07
4.21747e-09
1.11105e-07
4.2116e-09
1.10961e-07
4.20951e-09
1.108e-07
4.20576e-09
1.10623e-07
4.20496e-09
1.10428e-07
4.19916e-09
1.10215e-07
4.19329e-09
1.09985e-07
4.17975e-09
1.09738e-07
4.16649e-09
1.09478e-07
4.14579e-09
1.09205e-07
4.12696e-09
1.08919e-07
4.10266e-09
1.08621e-07
4.08566e-09
1.0831e-07
4.06611e-09
1.07986e-07
4.05487e-09
1.07649e-07
4.03867e-09
1.07296e-07
4.03091e-09
1.06928e-07
4.01776e-09
1.06542e-07
4.01316e-09
1.06139e-07
4.00038e-09
1.05718e-07
3.99417e-09
1.05281e-07
3.97569e-09
1.04828e-07
3.96447e-09
1.04362e-07
3.94014e-09
1.0388e-07
3.92552e-09
1.03389e-07
3.89649e-09
1.02884e-07
3.8802e-09
1.02371e-07
3.84939e-09
1.01847e-07
3.83326e-09
1.01316e-07
3.80025e-09
1.00772e-07
3.78754e-09
1.00221e-07
3.7566e-09
9.96551e-08
3.74583e-09
9.90818e-08
3.71164e-09
9.8496e-08
3.69915e-09
9.7906e-08
3.65817e-09
9.73066e-08
3.64307e-09
9.67062e-08
3.59685e-09
9.60969e-08
3.58264e-09
9.54872e-08
3.53355e-09
9.48673e-08
3.52339e-09
9.42477e-08
3.47089e-09
9.36184e-08
3.46076e-09
9.29921e-08
3.40081e-09
9.23576e-08
3.3914e-09
9.17291e-08
3.32228e-09
9.10931e-08
3.31202e-09
9.04656e-08
3.23373e-09
8.983e-08
3.22854e-09
8.92049e-08
3.14277e-09
8.85714e-08
3.13844e-09
8.79518e-08
3.03719e-09
8.73246e-08
3.03389e-09
8.6715e-08
2.9182e-09
8.60978e-08
2.91944e-09
8.55024e-08
2.78599e-09
8.48992e-08
2.78957e-09
8.43221e-08
2.63721e-09
8.37367e-08
2.64924e-09
8.3181e-08
2.48231e-09
8.26168e-08
2.50435e-09
8.20843e-08
2.32994e-09
8.15425e-08
2.36501e-09
2.22478e-09
1.14662e-07
5.70877e-09
-1.14647e-07
1.14851e-07
6.88145e-09
1.15201e-07
8.05126e-09
1.15576e-07
8.91155e-09
1.15897e-07
9.29988e-09
1.16193e-07
9.30751e-09
1.1649e-07
9.09896e-09
1.16759e-07
8.74231e-09
1.16942e-07
8.20783e-09
1.17016e-07
7.5148e-09
1.17013e-07
6.7812e-09
1.16988e-07
6.17321e-09
1.16969e-07
5.77013e-09
1.16958e-07
5.53486e-09
1.16946e-07
5.39127e-09
1.16933e-07
5.28185e-09
1.16919e-07
5.18598e-09
1.16908e-07
5.09751e-09
1.169e-07
5.01721e-09
1.16893e-07
4.94102e-09
1.16886e-07
4.87023e-09
1.16879e-07
4.80365e-09
1.1687e-07
4.74456e-09
1.16861e-07
4.68845e-09
1.16849e-07
4.63562e-09
1.16837e-07
4.58177e-09
1.16823e-07
4.53089e-09
1.16808e-07
4.48039e-09
1.16791e-07
4.43471e-09
1.16772e-07
4.39043e-09
1.16751e-07
4.35322e-09
1.16729e-07
4.32002e-09
1.16704e-07
4.29581e-09
1.16677e-07
4.27529e-09
1.16647e-07
4.26389e-09
1.16614e-07
4.25594e-09
1.16576e-07
4.25563e-09
1.16533e-07
4.25489e-09
1.16482e-07
4.26019e-09
1.16424e-07
4.26409e-09
1.16355e-07
4.27345e-09
1.16277e-07
4.27782e-09
1.16186e-07
4.28417e-09
1.16084e-07
4.28155e-09
1.1597e-07
4.28002e-09
1.15848e-07
4.26854e-09
1.15715e-07
4.25963e-09
1.15575e-07
4.24292e-09
1.15425e-07
4.23515e-09
1.15268e-07
4.22311e-09
1.15101e-07
4.22193e-09
1.14925e-07
4.21449e-09
1.14737e-07
4.21886e-09
1.14538e-07
4.21698e-09
1.14324e-07
4.22764e-09
1.14095e-07
4.22895e-09
1.13849e-07
4.24033e-09
1.13588e-07
4.23659e-09
1.1331e-07
4.24281e-09
1.13018e-07
4.232e-09
1.1271e-07
4.23386e-09
1.12389e-07
4.217e-09
1.12053e-07
4.21625e-09
1.11706e-07
4.19594e-09
1.11346e-07
4.19396e-09
1.10976e-07
4.16952e-09
1.10593e-07
4.17092e-09
1.102e-07
4.14995e-09
1.09789e-07
4.15666e-09
1.09366e-07
4.135e-09
1.08923e-07
4.14125e-09
1.08471e-07
4.11034e-09
1.08004e-07
4.11044e-09
1.07531e-07
4.0695e-09
1.07046e-07
4.06838e-09
1.06556e-07
4.02353e-09
1.0605e-07
4.02848e-09
1.0554e-07
3.98132e-09
1.05013e-07
3.98744e-09
1.04483e-07
3.93086e-09
1.03939e-07
3.93604e-09
1.03394e-07
3.8665e-09
1.02837e-07
3.86928e-09
1.02283e-07
3.78767e-09
1.01716e-07
3.79585e-09
1.01154e-07
3.70506e-09
1.00577e-07
3.71468e-09
1.00009e-07
3.60602e-09
9.94265e-08
3.61599e-09
9.88557e-08
3.48899e-09
9.82728e-08
3.50238e-09
9.77053e-08
3.35343e-09
9.7126e-08
3.36889e-09
9.65659e-08
3.19732e-09
9.59941e-08
3.22104e-09
9.54446e-08
3.03176e-09
9.48846e-08
3.06435e-09
9.43487e-08
2.86586e-09
9.38028e-08
2.91092e-09
2.74926e-09
1.19382e-07
5.69162e-09
-1.19365e-07
1.19546e-07
6.71758e-09
1.1986e-07
7.73714e-09
1.20229e-07
8.54223e-09
1.20566e-07
8.96346e-09
1.2086e-07
9.0131e-09
1.21139e-07
8.81973e-09
1.21395e-07
8.4864e-09
1.21584e-07
8.01927e-09
1.21678e-07
7.42093e-09
1.21692e-07
6.76679e-09
1.21675e-07
6.1901e-09
1.2166e-07
5.78577e-09
1.21653e-07
5.54163e-09
1.21648e-07
5.39599e-09
1.21642e-07
5.28825e-09
1.21634e-07
5.19341e-09
1.21628e-07
5.10327e-09
1.21625e-07
5.02069e-09
1.21624e-07
4.94211e-09
1.21624e-07
4.87049e-09
1.21624e-07
4.80343e-09
1.21624e-07
4.74485e-09
1.21623e-07
4.68874e-09
1.21622e-07
4.63657e-09
1.21621e-07
4.58278e-09
1.21619e-07
4.53275e-09
1.21617e-07
4.48242e-09
1.21614e-07
4.43776e-09
1.21611e-07
4.39372e-09
1.21607e-07
4.35753e-09
1.21602e-07
4.32434e-09
1.21597e-07
4.301e-09
1.21592e-07
4.28042e-09
1.21586e-07
4.27008e-09
1.2158e-07
4.26235e-09
1.21571e-07
4.26375e-09
1.21562e-07
4.26409e-09
1.2155e-07
4.2724e-09
1.21535e-07
4.27884e-09
1.21516e-07
4.29313e-09
1.21491e-07
4.30199e-09
1.2146e-07
4.31526e-09
1.21424e-07
4.31829e-09
1.2138e-07
4.32399e-09
1.21331e-07
4.31734e-09
1.21276e-07
4.31452e-09
1.21218e-07
4.30133e-09
1.21154e-07
4.29893e-09
1.21087e-07
4.29002e-09
1.21014e-07
4.29462e-09
1.20938e-07
4.29106e-09
1.20854e-07
4.30265e-09
1.20764e-07
4.30649e-09
1.20665e-07
4.32712e-09
1.20557e-07
4.33703e-09
1.20436e-07
4.36131e-09
1.20305e-07
4.36781e-09
1.20159e-07
4.38784e-09
1.20004e-07
4.38702e-09
1.19836e-07
4.40265e-09
1.19657e-07
4.39533e-09
1.19465e-07
4.40845e-09
1.19264e-07
4.39711e-09
1.1905e-07
4.40835e-09
1.18828e-07
4.39096e-09
1.18594e-07
4.40466e-09
1.18353e-07
4.39132e-09
1.18096e-07
4.41396e-09
1.17826e-07
4.40437e-09
1.17537e-07
4.43074e-09
1.17235e-07
4.41219e-09
1.16915e-07
4.43016e-09
1.16588e-07
4.39648e-09
1.16247e-07
4.40962e-09
1.15901e-07
4.36981e-09
1.15539e-07
4.39079e-09
1.15169e-07
4.35129e-09
1.14779e-07
4.37684e-09
1.14382e-07
4.3282e-09
1.13966e-07
4.35202e-09
1.13546e-07
4.28675e-09
1.13109e-07
4.30611e-09
1.12671e-07
4.22577e-09
1.12216e-07
4.25036e-09
1.11762e-07
4.15946e-09
1.1129e-07
4.18619e-09
1.10819e-07
4.07675e-09
1.10331e-07
4.10415e-09
1.09847e-07
3.97351e-09
1.09347e-07
4.00227e-09
1.08855e-07
3.8455e-09
1.08348e-07
3.87529e-09
1.07852e-07
3.69361e-09
1.07342e-07
3.73099e-09
1.06844e-07
3.52973e-09
1.06335e-07
3.57367e-09
1.05839e-07
3.36214e-09
1.05333e-07
3.41644e-09
3.24462e-09
1.24259e-07
5.67398e-09
-1.24242e-07
1.24408e-07
6.56911e-09
1.24689e-07
7.45597e-09
1.25043e-07
8.18883e-09
1.25386e-07
8.62012e-09
1.25684e-07
8.71543e-09
1.2595e-07
8.55314e-09
1.26192e-07
8.24426e-09
1.26381e-07
7.8302e-09
1.2649e-07
7.31197e-09
1.26523e-07
6.7345e-09
1.26516e-07
6.19689e-09
1.26504e-07
5.79745e-09
1.26501e-07
5.54511e-09
1.26501e-07
5.39523e-09
1.26502e-07
5.28814e-09
1.265e-07
5.19516e-09
1.26499e-07
5.10442e-09
1.26499e-07
5.02035e-09
1.26502e-07
4.93937e-09
1.26506e-07
4.86651e-09
1.26511e-07
4.79838e-09
1.26516e-07
4.74001e-09
1.26521e-07
4.68368e-09
1.26525e-07
4.63212e-09
1.2653e-07
4.57824e-09
1.26533e-07
4.52904e-09
1.26537e-07
4.47873e-09
1.2654e-07
4.43502e-09
1.26542e-07
4.39104e-09
1.26544e-07
4.35581e-09
1.26546e-07
4.32239e-09
1.26547e-07
4.29972e-09
1.26549e-07
4.27858e-09
1.26551e-07
4.26875e-09
1.26553e-07
4.26025e-09
1.26554e-07
4.26224e-09
1.26556e-07
4.26201e-09
1.26557e-07
4.27147e-09
1.26558e-07
4.27796e-09
1.26557e-07
4.29443e-09
1.26554e-07
4.30448e-09
1.26548e-07
4.32138e-09
1.2654e-07
4.32665e-09
1.26527e-07
4.33663e-09
1.26512e-07
4.33199e-09
1.26494e-07
4.33294e-09
1.26475e-07
4.32085e-09
1.26452e-07
4.32156e-09
1.26429e-07
4.31316e-09
1.26403e-07
4.32084e-09
1.26376e-07
4.31795e-09
1.26345e-07
4.3333e-09
1.26313e-07
4.3387e-09
1.26275e-07
4.36477e-09
1.26234e-07
4.37825e-09
1.26185e-07
4.41045e-09
1.2613e-07
4.42214e-09
1.26067e-07
4.45127e-09
1.25998e-07
4.45583e-09
1.2592e-07
4.48093e-09
1.25836e-07
4.47901e-09
1.25742e-07
4.50222e-09
1.25643e-07
4.49647e-09
1.25533e-07
4.51804e-09
1.2542e-07
4.5049e-09
1.25297e-07
4.52756e-09
1.2517e-07
4.5179e-09
1.25032e-07
4.55201e-09
1.24886e-07
4.55057e-09
1.24723e-07
4.59394e-09
1.24548e-07
4.58638e-09
1.24357e-07
4.62122e-09
1.24159e-07
4.59454e-09
1.23948e-07
4.62039e-09
1.23734e-07
4.58428e-09
1.23506e-07
4.61847e-09
1.23272e-07
4.58553e-09
1.2302e-07
4.62916e-09
1.22758e-07
4.5899e-09
1.22477e-07
4.63272e-09
1.2219e-07
4.57421e-09
1.21886e-07
4.61041e-09
1.21577e-07
4.53426e-09
1.21252e-07
4.57513e-09
1.20924e-07
4.48741e-09
1.2058e-07
4.53073e-09
1.20231e-07
4.42519e-09
1.19865e-07
4.47092e-09
1.19494e-07
4.34376e-09
1.19108e-07
4.38859e-09
1.18722e-07
4.23139e-09
1.18322e-07
4.27505e-09
1.17924e-07
4.09223e-09
1.17512e-07
4.14289e-09
1.17101e-07
3.94055e-09
1.1668e-07
3.99498e-09
1.1626e-07
3.78236e-09
1.15832e-07
3.84358e-09
3.67383e-09
1.29313e-07
5.6547e-09
-1.29294e-07
1.29451e-07
6.43155e-09
1.29705e-07
7.20194e-09
1.30037e-07
7.85647e-09
1.30378e-07
8.27933e-09
1.3068e-07
8.4137e-09
1.30939e-07
8.29353e-09
1.31169e-07
8.01424e-09
1.31356e-07
7.64397e-09
1.31475e-07
7.19227e-09
1.31524e-07
6.68545e-09
1.31529e-07
6.19222e-09
1.31523e-07
5.80394e-09
1.31522e-07
5.54581e-09
1.31527e-07
5.3903e-09
1.31532e-07
5.28249e-09
1.31536e-07
5.19163e-09
1.31539e-07
5.1013e-09
1.31543e-07
5.01674e-09
1.31548e-07
4.93378e-09
1.31555e-07
4.85959e-09
1.31564e-07
4.78996e-09
1.31572e-07
4.73158e-09
1.31581e-07
4.67495e-09
1.31589e-07
4.62413e-09
1.31597e-07
4.57025e-09
1.31604e-07
4.52204e-09
1.31611e-07
4.47185e-09
1.31616e-07
4.42925e-09
1.31622e-07
4.3854e-09
1.31627e-07
4.35128e-09
1.31631e-07
4.31771e-09
1.31635e-07
4.29581e-09
1.3164e-07
4.27409e-09
1.31644e-07
4.26476e-09
1.31649e-07
4.2553e-09
1.31653e-07
4.25765e-09
1.31659e-07
4.25636e-09
1.31664e-07
4.26635e-09
1.3167e-07
4.27189e-09
1.31675e-07
4.28932e-09
1.31681e-07
4.29897e-09
1.31684e-07
4.31775e-09
1.31687e-07
4.32341e-09
1.31688e-07
4.33602e-09
1.31688e-07
4.33198e-09
1.31685e-07
4.33561e-09
1.31683e-07
4.32369e-09
1.31678e-07
4.32661e-09
1.31673e-07
4.31775e-09
1.31666e-07
4.32735e-09
1.31661e-07
4.32381e-09
1.31653e-07
4.34121e-09
1.31645e-07
4.34611e-09
1.31635e-07
4.37491e-09
1.31625e-07
4.38885e-09
1.3161e-07
4.42533e-09
1.31593e-07
4.43858e-09
1.31572e-07
4.47296e-09
1.31548e-07
4.47934e-09
1.31519e-07
4.51015e-09
1.31488e-07
4.51015e-09
1.3145e-07
4.53976e-09
1.3141e-07
4.53642e-09
1.31363e-07
4.56513e-09
1.31314e-07
4.55381e-09
1.31259e-07
4.58233e-09
1.31204e-07
4.57326e-09
1.31142e-07
4.61422e-09
1.31076e-07
4.61654e-09
1.30998e-07
4.67173e-09
1.30913e-07
4.6718e-09
1.30814e-07
4.71991e-09
1.3071e-07
4.69866e-09
1.30596e-07
4.73414e-09
1.3048e-07
4.69987e-09
1.30356e-07
4.74281e-09
1.30228e-07
4.71368e-09
1.30086e-07
4.77081e-09
1.29937e-07
4.73971e-09
1.29771e-07
4.79851e-09
1.29598e-07
4.74703e-09
1.29411e-07
4.79724e-09
1.29219e-07
4.72626e-09
1.29014e-07
4.78057e-09
1.28803e-07
4.69761e-09
1.2858e-07
4.75395e-09
1.28351e-07
4.65431e-09
1.28106e-07
4.71555e-09
1.27853e-07
4.59675e-09
1.27586e-07
4.65566e-09
1.27314e-07
4.50365e-09
1.27031e-07
4.55794e-09
1.26743e-07
4.38071e-09
1.26444e-07
4.44171e-09
1.26137e-07
4.24708e-09
1.25823e-07
4.30957e-09
1.25499e-07
4.1061e-09
1.25172e-07
4.17084e-09
4.01309e-09
1.34558e-07
5.63062e-09
-1.34534e-07
1.34687e-07
6.30283e-09
1.34919e-07
6.9697e-09
1.35229e-07
7.54669e-09
1.3556e-07
7.94852e-09
1.35863e-07
8.11021e-09
1.36121e-07
8.03627e-09
1.36342e-07
7.79329e-09
1.36523e-07
7.46212e-09
1.3665e-07
7.06563e-09
1.36714e-07
6.62185e-09
1.36731e-07
6.17521e-09
1.36731e-07
5.80394e-09
1.36733e-07
5.5435e-09
1.36741e-07
5.38217e-09
1.36751e-07
5.27225e-09
1.3676e-07
5.18329e-09
1.36767e-07
5.09413e-09
1.36773e-07
5.01009e-09
1.36781e-07
4.92591e-09
1.3679e-07
4.85064e-09
1.36801e-07
4.77929e-09
1.36812e-07
4.72063e-09
1.36823e-07