/*--------------------------------*- C++ -*----------------------------------*\
| =========                 |                                                 |
| \\      /  F ield         | OpenFOAM: The Open Source CFD Toolbox           |
|  \\    /   O peration     | Version:  5.x                                   |
|   \\  /    A nd           | Web:      www.OpenFOAM.org                      |
|    \\/     M anipulation  |                                                 |
\*---------------------------------------------------------------------------*/
FoamFile
{
    version     2.0;
    format      ascii;
    class       volVectorField;
    location    "0.3";
    object      U;
}
// * * * * * * * * * * * * * * * * * * * * * * * * * * * * * * * * * * * * * //

dimensions      [0 1 -1 0 0 0 0];

internalField   nonuniform List<vector> 
10800
(
(0.912949 0.0108399 0)
(0.818403 0.0142828 0)
(0.724591 0.0140232 0)
(0.630128 0.0128686 0)
(0.536412 0.0117008 0)
(0.446459 0.0101235 0)
(0.365933 0.00784576 0)
(0.301876 0.00471833 0)
(0.25785 0.00173216 0)
(0.230074 1.19739e-05 0)
(0.212039 -0.000522583 0)
(0.199731 -0.000562648 0)
(0.190944 -0.000453077 0)
(0.184145 -0.000289726 0)
(0.178282 -0.000122545 0)
(0.172795 9.32722e-06 0)
(0.167457 9.43714e-05 0)
(0.162241 0.000138646 0)
(0.157205 0.000154634 0)
(0.152425 0.000154115 0)
(0.147946 0.000145757 0)
(0.143778 0.000135007 0)
(0.139899 0.000124719 0)
(0.136278 0.000115561 0)
(0.132883 0.00010736 0)
(0.129694 9.98262e-05 0)
(0.126687 9.2999e-05 0)
(0.123847 8.6853e-05 0)
(0.121154 8.13192e-05 0)
(0.118597 7.61748e-05 0)
(0.116159 7.14864e-05 0)
(0.113833 6.73098e-05 0)
(0.111605 6.35841e-05 0)
(0.109471 6.00598e-05 0)
(0.107419 5.68063e-05 0)
(0.105447 5.3861e-05 0)
(0.103546 5.11975e-05 0)
(0.101716 4.85454e-05 0)
(0.0999498 4.60305e-05 0)
(0.098248 4.36508e-05 0)
(0.0966014 4.15416e-05 0)
(0.0950112 3.95068e-05 0)
(0.0934692 3.76191e-05 0)
(0.0919783 3.57693e-05 0)
(0.0905303 3.4159e-05 0)
(0.089127 3.26213e-05 0)
(0.0877617 3.11585e-05 0)
(0.0864391 2.95928e-05 0)
(0.0851532 2.82166e-05 0)
(0.083905 2.69704e-05 0)
(0.0826872 2.59121e-05 0)
(0.0815023 2.47764e-05 0)
(0.0803468 2.37176e-05 0)
(0.0792226 2.2655e-05 0)
(0.0781258 2.17465e-05 0)
(0.077056 2.08234e-05 0)
(0.0760111 2.00497e-05 0)
(0.0749902 1.91861e-05 0)
(0.0739939 1.847e-05 0)
(0.0730189 1.76779e-05 0)
(0.072068 1.70392e-05 0)
(0.0711356 1.62819e-05 0)
(0.0702281 1.56849e-05 0)
(0.0693352 1.50356e-05 0)
(0.0684671 1.45329e-05 0)
(0.0676106 1.38547e-05 0)
(0.0667818 1.33644e-05 0)
(0.0659595 1.28279e-05 0)
(0.0651659 1.24112e-05 0)
(0.0643743 1.1869e-05 0)
(0.0636148 1.15222e-05 0)
(0.0628512 1.10092e-05 0)
(0.0621246 1.06784e-05 0)
(0.0613874 1.01997e-05 0)
(0.0606938 9.88699e-06 0)
(0.0599822 9.41106e-06 0)
(0.0593223 9.1391e-06 0)
(0.0586333 8.72728e-06 0)
(0.0580056 8.48892e-06 0)
(0.057337 8.07075e-06 0)
(0.0567426 7.86827e-06 0)
(0.0560925 7.46904e-06 0)
(0.0555339 7.26786e-06 0)
(0.0549021 6.85763e-06 0)
(0.0543827 6.66888e-06 0)
(0.0537654 6.33396e-06 0)
(0.0532863 6.13909e-06 0)
(0.0526818 5.79723e-06 0)
(0.052249 5.6259e-06 0)
(0.0516545 5.28334e-06 0)
(0.0512726 5.14001e-06 0)
(0.0506828 4.83358e-06 0)
(0.0503588 4.65191e-06 0)
(0.0497692 4.40101e-06 0)
(0.0495118 4.17805e-06 0)
(0.0489124 4.03744e-06 0)
(0.048728 3.79675e-06 0)
(0.0481017 3.78985e-06 0)
(0.0480006 3.45039e-06 0)
(0.047315 3.86669e-06 0)
(0.967873 0.0191147 0)
(0.960406 0.0266699 0)
(0.946931 0.0279803 0)
(0.925448 0.0274827 0)
(0.895505 0.0268341 0)
(0.857947 0.0256079 0)
(0.815252 0.0232455 0)
(0.77107 0.0192638 0)
(0.729216 0.0143667 0)
(0.691444 0.00999126 0)
(0.657245 0.00694456 0)
(0.626151 0.00499438 0)
(0.598068 0.00373123 0)
(0.572871 0.00294595 0)
(0.550178 0.00248046 0)
(0.529606 0.00219868 0)
(0.510807 0.00200611 0)
(0.493522 0.00184732 0)
(0.477565 0.00169705 0)
(0.46282 0.00154979 0)
(0.449175 0.00141028 0)
(0.436531 0.00128445 0)
(0.424762 0.00117486 0)
(0.41377 0.00107957 0)
(0.403456 0.000995523 0)
(0.393758 0.000920317 0)
(0.384605 0.000853166 0)
(0.375954 0.00079329 0)
(0.367746 0.000739915 0)
(0.35995 0.000691645 0)
(0.352515 0.000648032 0)
(0.345422 0.00060866 0)
(0.338627 0.000573057 0)
(0.332121 0.000540104 0)
(0.32587 0.000509756 0)
(0.319867 0.000481806 0)
(0.314084 0.000456107 0)
(0.308522 0.000431693 0)
(0.303157 0.000408935 0)
(0.297989 0.000387645 0)
(0.292991 0.000368216 0)
(0.288166 0.000349862 0)
(0.283491 0.000332826 0)
(0.278969 0.000316586 0)
(0.274579 0.000301786 0)
(0.270324 0.00028771 0)
(0.266188 0.000274488 0)
(0.262178 0.000261433 0)
(0.258276 0.000249558 0)
(0.254485 0.000238429 0)
(0.250789 0.00022834 0)
(0.247194 0.000218271 0)
(0.24369 0.000208901 0)
(0.240278 0.00019976 0)
(0.23695 0.00019153 0)
(0.233703 0.000183428 0)
(0.230535 0.000176159 0)
(0.227438 0.000168729 0)
(0.224418 0.000162123 0)
(0.221461 0.000155349 0)
(0.218579 0.000149408 0)
(0.21575 0.000143136 0)
(0.212998 0.000137737 0)
(0.210288 0.000132142 0)
(0.207656 0.00012734 0)
(0.205055 0.000121945 0)
(0.20254 0.000117518 0)
(0.20004 0.000112816 0)
(0.197634 0.000108863 0)
(0.195228 0.000104386 0)
(0.192925 0.000100905 0)
(0.190604 9.67163e-05 0)
(0.188402 9.35073e-05 0)
(0.186161 8.95653e-05 0)
(0.184058 8.65865e-05 0)
(0.181893 8.27995e-05 0)
(0.17989 8.01503e-05 0)
(0.177793 7.66827e-05 0)
(0.17589 7.42938e-05 0)
(0.173854 7.09086e-05 0)
(0.172052 6.87723e-05 0)
(0.170072 6.54601e-05 0)
(0.16838 6.34267e-05 0)
(0.166455 6.01394e-05 0)
(0.164881 5.83391e-05 0)
(0.162999 5.53137e-05 0)
(0.161549 5.35658e-05 0)
(0.159705 5.04866e-05 0)
(0.158398 4.89228e-05 0)
(0.156585 4.58439e-05 0)
(0.155435 4.45208e-05 0)
(0.153639 4.14774e-05 0)
(0.152668 4.01672e-05 0)
(0.150876 3.72539e-05 0)
(0.150111 3.60386e-05 0)
(0.148293 3.34896e-05 0)
(0.147758 3.24951e-05 0)
(0.14587 3.03981e-05 0)
(0.145596 2.96009e-05 0)
(0.143555 2.93555e-05 0)
(0.972112 0.0180098 0)
(0.972825 0.0257239 0)
(0.975268 0.0285498 0)
(0.976472 0.0291775 0)
(0.974589 0.029394 0)
(0.968832 0.029157 0)
(0.959099 0.0277706 0)
(0.945853 0.0246619 0)
(0.930047 0.0203527 0)
(0.912762 0.016125 0)
(0.894498 0.0129557 0)
(0.875655 0.0108527 0)
(0.85667 0.00941633 0)
(0.837905 0.00838009 0)
(0.819451 0.00758935 0)
(0.801324 0.00694541 0)
(0.7835 0.00638672 0)
(0.765989 0.0058762 0)
(0.748815 0.0053942 0)
(0.73205 0.00493517 0)
(0.715749 0.00450584 0)
(0.699978 0.00411622 0)
(0.684748 0.00377127 0)
(0.670084 0.00346717 0)
(0.65597 0.00319726 0)
(0.642411 0.00295567 0)
(0.629376 0.00273953 0)
(0.616857 0.00254595 0)
(0.604813 0.00237245 0)
(0.593235 0.00221584 0)
(0.582077 0.00207459 0)
(0.57133 0.00194673 0)
(0.560952 0.00183062 0)
(0.550941 0.00172378 0)
(0.541259 0.00162572 0)
(0.531903 0.00153522 0)
(0.522844 0.00145159 0)
(0.514087 0.00137293 0)
(0.505604 0.00129991 0)
(0.497398 0.0012319 0)
(0.48944 0.00116947 0)
(0.481732 0.0011109 0)
(0.474246 0.00105664 0)
(0.466984 0.00100542 0)
(0.459919 0.00095824 0)
(0.453053 0.000913421 0)
(0.446367 0.000871408 0)
(0.439864 0.000830806 0)
(0.433524 0.000793514 0)
(0.427346 0.000758261 0)
(0.421317 0.00072574 0)
(0.415436 0.000693835 0)
(0.409699 0.000664107 0)
(0.404097 0.000635319 0)
(0.398633 0.000609036 0)
(0.393287 0.000583389 0)
(0.388074 0.00055998 0)
(0.382964 0.000536597 0)
(0.377985 0.000515415 0)
(0.373093 0.000494143 0)
(0.368332 0.000475058 0)
(0.363643 0.000455518 0)
(0.359087 0.000438271 0)
(0.354582 0.00042065 0)
(0.350218 0.000405108 0)
(0.345888 0.000388481 0)
(0.341708 0.00037432 0)
(0.337538 0.000359429 0)
(0.333535 0.000346631 0)
(0.329514 0.000332661 0)
(0.32568 0.00032125 0)
(0.321795 0.000308228 0)
(0.318124 0.00029779 0)
(0.314366 0.000285521 0)
(0.310858 0.00027587 0)
(0.30722 0.000264184 0)
(0.303875 0.000255546 0)
(0.300344 0.000244659 0)
(0.297164 0.000236825 0)
(0.293731 0.000226319 0)
(0.290719 0.00021926 0)
(0.287374 0.000208919 0)
(0.284544 0.000202257 0)
(0.281283 0.000192068 0)
(0.278647 0.000186235 0)
(0.275454 0.000176551 0)
(0.273027 0.000170997 0)
(0.269893 0.000161119 0)
(0.267704 0.000156144 0)
(0.264616 0.000146244 0)
(0.262692 0.000142029 0)
(0.259628 0.000131993 0)
(0.258008 0.000128104 0)
(0.254947 0.000118146 0)
(0.253675 0.000114936 0)
(0.250571 0.000105541 0)
(0.249693 0.000103343 0)
(0.246479 9.47175e-05 0)
(0.246045 9.38148e-05 0)
(0.242612 8.95223e-05 0)
(0.976651 0.0169113 0)
(0.97697 0.0236264 0)
(0.98014 0.0271076 0)
(0.98445 0.0282475 0)
(0.988349 0.0285961 0)
(0.991135 0.0285155 0)
(0.992443 0.0275267 0)
(0.991998 0.0251117 0)
(0.989546 0.0215719 0)
(0.98513 0.0178811 0)
(0.979002 0.0149757 0)
(0.971623 0.0130585 0)
(0.963462 0.0118222 0)
(0.954871 0.0109463 0)
(0.945968 0.0102588 0)
(0.936769 0.00967614 0)
(0.927224 0.00915394 0)
(0.917306 0.00866285 0)
(0.907 0.00818347 0)
(0.896349 0.0077071 0)
(0.885396 0.00723947 0)
(0.874221 0.00679278 0)
(0.862877 0.00637612 0)
(0.85144 0.00598902 0)
(0.839952 0.00562796 0)
(0.828477 0.00528994 0)
(0.817041 0.00497556 0)
(0.805692 0.00468434 0)
(0.794437 0.00441551 0)
(0.783306 0.0041664 0)
(0.772294 0.00393661 0)
(0.761418 0.0037242 0)
(0.75067 0.00352737 0)
(0.740067 0.00334291 0)
(0.729603 0.00317087 0)
(0.719293 0.00300952 0)
(0.709135 0.00285797 0)
(0.699149 0.00271352 0)
(0.689337 0.00257761 0)
(0.679713 0.00244954 0)
(0.670275 0.00233059 0)
(0.661033 0.00221835 0)
(0.651983 0.00211389 0)
(0.643123 0.00201529 0)
(0.634448 0.0019241 0)
(0.62595 0.00183736 0)
(0.617628 0.00175592 0)
(0.609469 0.00167756 0)
(0.601476 0.00160518 0)
(0.593628 0.00153637 0)
(0.585937 0.00147235 0)
(0.578379 0.00140964 0)
(0.570981 0.00135095 0)
(0.563705 0.00129398 0)
(0.556594 0.00124157 0)
(0.549589 0.00119044 0)
(0.542753 0.00114342 0)
(0.536009 0.00109675 0)
(0.529437 0.00105417 0)
(0.52294 0.00101167 0)
(0.516621 0.000973218 0)
(0.510355 0.000934219 0)
(0.504276 0.000899451 0)
(0.498222 0.000864043 0)
(0.49237 0.000832496 0)
(0.486517 0.000799257 0)
(0.480886 0.000770511 0)
(0.475221 0.000740344 0)
(0.469808 0.000714224 0)
(0.464321 0.000686004 0)
(0.45912 0.000662575 0)
(0.453797 0.000636286 0)
(0.448803 0.000614886 0)
(0.443632 0.000590085 0)
(0.438845 0.00057031 0)
(0.433818 0.000546704 0)
(0.429242 0.000528933 0)
(0.424345 0.000506746 0)
(0.419986 0.000490591 0)
(0.415207 0.000469249 0)
(0.411071 0.000454685 0)
(0.406396 0.000433648 0)
(0.402501 0.000419945 0)
(0.397926 0.000399203 0)
(0.394292 0.000387214 0)
(0.389794 0.000367239 0)
(0.386444 0.00035596 0)
(0.38201 0.000335512 0)
(0.378987 0.000325426 0)
(0.374601 0.000304855 0)
(0.37194 0.000296313 0)
(0.367573 0.00027524 0)
(0.365333 0.000267563 0)
(0.360958 0.000246316 0)
(0.3592 0.000240302 0)
(0.354757 0.000219606 0)
(0.35355 0.000215838 0)
(0.348957 0.000196166 0)
(0.348365 0.000195146 0)
(0.343506 0.000183004 0)
(0.980767 0.016441 0)
(0.980848 0.0221622 0)
(0.983444 0.0259518 0)
(0.987604 0.0274587 0)
(0.99204 0.0277792 0)
(0.996084 0.0275209 0)
(0.999479 0.0265502 0)
(1.00206 0.0244911 0)
(1.00351 0.0214705 0)
(1.0036 0.0182025 0)
(1.00232 0.0155029 0)
(1.00001 0.0136849 0)
(0.997105 0.0125496 0)
(0.993933 0.0117848 0)
(0.990626 0.0111998 0)
(0.98718 0.0107073 0)
(0.983521 0.0102691 0)
(0.979565 0.00986052 0)
(0.975248 0.00946305 0)
(0.97054 0.00906464 0)
(0.965432 0.00866727 0)
(0.959941 0.00828035 0)
(0.954089 0.00791202 0)
(0.94791 0.00756088 0)
(0.941431 0.00722376 0)
(0.934688 0.00689835 0)
(0.927712 0.00658709 0)
(0.920532 0.00629094 0)
(0.913175 0.00601126 0)
(0.90566 0.00574653 0)
(0.898004 0.00549829 0)
(0.89021 0.00526526 0)
(0.882291 0.0050463 0)
(0.874244 0.00483757 0)
(0.866086 0.00463971 0)
(0.857811 0.0044505 0)
(0.849448 0.00426905 0)
(0.840994 0.00409172 0)
(0.832488 0.00392075 0)
(0.823929 0.00375526 0)
(0.815364 0.00359776 0)
(0.806786 0.00344558 0)
(0.798249 0.00330124 0)
(0.789735 0.0031628 0)
(0.781296 0.00303341 0)
(0.772895 0.0029092 0)
(0.764587 0.00279196 0)
(0.75632 0.00267854 0)
(0.748151 0.00257332 0)
(0.740013 0.00247249 0)
(0.73198 0.00237813 0)
(0.723968 0.00228501 0)
(0.716075 0.00219727 0)
(0.708199 0.0021111 0)
(0.700463 0.00203111 0)
(0.692738 0.00195232 0)
(0.685177 0.00187934 0)
(0.677621 0.0018065 0)
(0.670254 0.00173972 0)
(0.662877 0.00167283 0)
(0.65571 0.00161213 0)
(0.648511 0.0015505 0)
(0.641546 0.00149544 0)
(0.634515 0.00143913 0)
(0.627743 0.0013888 0)
(0.620873 0.00133576 0)
(0.614295 0.00128963 0)
(0.607577 0.00124083 0)
(0.601202 0.00119855 0)
(0.594637 0.00115271 0)
(0.58847 0.00111452 0)
(0.582051 0.0010717 0)
(0.576094 0.00103678 0)
(0.569811 0.00099625 0)
(0.564068 0.00096392 0)
(0.557913 0.000925175 0)
(0.552395 0.000895986 0)
(0.546357 0.000859274 0)
(0.541077 0.000832637 0)
(0.535146 0.000797271 0)
(0.530118 0.000773264 0)
(0.524278 0.000738357 0)
(0.519526 0.000715806 0)
(0.513771 0.000681248 0)
(0.509323 0.000661474 0)
(0.50363 0.00062789 0)
(0.499518 0.000609441 0)
(0.493871 0.000574931 0)
(0.490149 0.00055844 0)
(0.484529 0.000523565 0)
(0.481248 0.000509611 0)
(0.475622 0.000473668 0)
(0.472851 0.000461275 0)
(0.467189 0.000424648 0)
(0.465011 0.000415195 0)
(0.459243 0.000378869 0)
(0.457744 0.000373124 0)
(0.451784 0.000338073 0)
(0.451044 0.000336574 0)
(0.444772 0.000312643 0)
(0.984283 0.0162669 0)
(0.984298 0.0211524 0)
(0.986445 0.0249566 0)
(0.990169 0.0267474 0)
(0.994423 0.0271036 0)
(0.998472 0.026685 0)
(1.00201 0.0256588 0)
(1.00493 0.0238205 0)
(1.00707 0.0211801 0)
(1.00821 0.0182387 0)
(1.00831 0.0156866 0)
(1.00758 0.0138945 0)
(1.0064 0.0127697 0)
(1.00511 0.0120375 0)
(1.00387 0.0114954 0)
(1.0027 0.0110432 0)
(1.00155 0.0106419 0)
(1.00031 0.0102718 0)
(0.998919 0.00991869 0)
(0.997319 0.00957055 0)
(0.995496 0.00922707 0)
(0.993419 0.00889413 0)
(0.991108 0.00857791 0)
(0.988544 0.00827513 0)
(0.985757 0.00798221 0)
(0.982725 0.00769607 0)
(0.979487 0.00741953 0)
(0.976022 0.00715318 0)
(0.972375 0.00689947 0)
(0.968518 0.00665715 0)
(0.964494 0.00642933 0)
(0.96026 0.00621493 0)
(0.955862 0.00601396 0)
(0.95124 0.0058219 0)
(0.946444 0.00563999 0)
(0.941407 0.00546494 0)
(0.936193 0.00529599 0)
(0.930729 0.00512796 0)
(0.925097 0.00496352 0)
(0.919225 0.00480044 0)
(0.913211 0.00464189 0)
(0.906983 0.00448394 0)
(0.900662 0.00433042 0)
(0.894167 0.00417886 0)
(0.887635 0.00403471 0)
(0.880963 0.00389359 0)
(0.874295 0.00375924 0)
(0.8675 0.0036276 0)
(0.860732 0.0035052 0)
(0.853829 0.00338667 0)
(0.846969 0.00327574 0)
(0.839961 0.00316491 0)
(0.833014 0.00306026 0)
(0.825905 0.00295559 0)
(0.818888 0.00285767 0)
(0.811703 0.00275922 0)
(0.804652 0.00266725 0)
(0.797434 0.00257368 0)
(0.790398 0.00248742 0)
(0.783188 0.00239963 0)
(0.776206 0.00231985 0)
(0.769031 0.00223778 0)
(0.76213 0.00216471 0)
(0.755 0.00208916 0)
(0.748188 0.00202199 0)
(0.741104 0.00195033 0)
(0.734387 0.00188829 0)
(0.727341 0.00182126 0)
(0.720735 0.00176347 0)
(0.71374 0.00169962 0)
(0.707269 0.0016467 0)
(0.700341 0.00158652 0)
(0.694028 0.00153797 0)
(0.687164 0.0014807 0)
(0.681021 0.0014356 0)
(0.674215 0.00138042 0)
(0.668259 0.0013394 0)
(0.661503 0.00128653 0)
(0.65576 0.00124881 0)
(0.649054 0.00119753 0)
(0.643548 0.00116348 0)
(0.636882 0.0011127 0)
(0.631648 0.00108072 0)
(0.625015 0.00103015 0)
(0.620088 0.00100203 0)
(0.613465 0.000952418 0)
(0.608887 0.000926296 0)
(0.602258 0.000875048 0)
(0.598097 0.00085166 0)
(0.591445 0.000799592 0)
(0.587761 0.000779804 0)
(0.581054 0.000725887 0)
(0.57793 0.000708412 0)
(0.571133 0.000652975 0)
(0.568669 0.000639849 0)
(0.561713 0.00058423 0)
(0.56001 0.000576264 0)
(0.552809 0.000522143 0)
(0.551959 0.00051984 0)
(0.5444 0.000480351 0)
(0.987155 0.0161816 0)
(0.987159 0.0204065 0)
(0.988977 0.0239795 0)
(0.992272 0.0259166 0)
(0.996249 0.0263618 0)
(1.00015 0.0258689 0)
(1.0036 0.0247996 0)
(1.00643 0.0231248 0)
(1.00859 0.0208115 0)
(1.00992 0.0181764 0)
(1.01039 0.0157815 0)
(1.01011 0.0140127 0)
(1.00943 0.0128729 0)
(1.00864 0.0121397 0)
(1.00798 0.0116099 0)
(1.00745 0.0111695 0)
(1.00706 0.0107747 0)
(1.00669 0.0104093 0)
(1.00632 0.0100653 0)
(1.00585 0.00973313 0)
(1.00532 0.0094118 0)
(1.00465 0.00910397 0)
(1.0039 0.00881442 0)
(1.003 0.00853825 0)
(1.00203 0.00827204 0)
(1.0009 0.00801164 0)
(0.999696 0.00776033 0)
(0.998329 0.00751754 0)
(0.996892 0.00728657 0)
(0.995289 0.00706556 0)
(0.993623 0.00685898 0)
(0.991779 0.00666532 0)
(0.989871 0.00648626 0)
(0.987761 0.00631659 0)
(0.98557 0.00615868 0)
(0.983143 0.00600799 0)
(0.980618 0.00586453 0)
(0.977822 0.00572144 0)
(0.974913 0.00558209 0)
(0.971706 0.0054422 0)
(0.968386 0.00530552 0)
(0.964754 0.00516572 0)
(0.961032 0.00502745 0)
(0.95701 0.00488625 0)
(0.952945 0.0047496 0)
(0.948607 0.00461204 0)
(0.944276 0.00448009 0)
(0.93968 0.00434843 0)
(0.935122 0.00422649 0)
(0.930284 0.00410688 0)
(0.925507 0.00399605 0)
(0.920422 0.00388384 0)
(0.915413 0.00377904 0)
(0.910061 0.00367223 0)
(0.904809 0.00357273 0)
(0.899188 0.00346984 0)
(0.893709 0.00337343 0)
(0.887848 0.00327205 0)
(0.882193 0.00317841 0)
(0.876143 0.00308012 0)
(0.870365 0.00299101 0)
(0.864171 0.00289664 0)
(0.858317 0.00281327 0)
(0.852011 0.00272498 0)
(0.846112 0.00264773 0)
(0.839706 0.00256345 0)
(0.833774 0.00249206 0)
(0.827255 0.00241234 0)
(0.821293 0.00234468 0)
(0.814664 0.00226697 0)
(0.808706 0.00220338 0)
(0.802004 0.00212851 0)
(0.796099 0.00206945 0)
(0.789347 0.00199754 0)
(0.783528 0.00194263 0)
(0.776719 0.00187277 0)
(0.771001 0.00182249 0)
(0.764126 0.00175457 0)
(0.758539 0.00170768 0)
(0.751607 0.00164089 0)
(0.746197 0.00159825 0)
(0.739211 0.00153158 0)
(0.734022 0.00149147 0)
(0.72698 0.00142458 0)
(0.722055 0.00138927 0)
(0.714934 0.00132297 0)
(0.710324 0.00129018 0)
(0.703109 0.00122114 0)
(0.698889 0.00119162 0)
(0.69157 0.00112098 0)
(0.687813 0.00109598 0)
(0.680364 0.00102245 0)
(0.67716 0.00100044 0)
(0.669546 0.000924186 0)
(0.667007 0.000907814 0)
(0.659166 0.00083067 0)
(0.657402 0.000820656 0)
(0.649258 0.000745125 0)
(0.648368 0.00074198 0)
(0.63982 0.00068414 0)
(0.989392 0.0161212 0)
(0.989392 0.0198077 0)
(0.990956 0.0230266 0)
(0.993858 0.0249717 0)
(0.997527 0.0255198 0)
(1.00124 0.025043 0)
(1.00459 0.0239683 0)
(1.00732 0.0224261 0)
(1.00942 0.020398 0)
(1.01077 0.0180588 0)
(1.0114 0.015839 0)
(1.01132 0.0141088 0)
(1.01084 0.0129493 0)
(1.01021 0.0121998 0)
(1.00971 0.0116682 0)
(1.00933 0.0112294 0)
(1.00914 0.0108327 0)
(1.00899 0.0104618 0)
(1.00891 0.0101143 0)
(1.00876 0.00978289 0)
(1.00863 0.00946762 0)
(1.0084 0.00916822 0)
(1.0082 0.00888876 0)
(1.00789 0.00862278 0)
(1.00761 0.00836766 0)
(1.00721 0.00811796 0)
(1.00686 0.00787807 0)
(1.00637 0.00764606 0)
(1.00592 0.00742634 0)
(1.00533 0.00721573 0)
(1.0048 0.00702022 0)
(1.0041 0.00683722 0)
(1.00347 0.00667044 0)
(1.00265 0.00651369 0)
(1.00189 0.00637108 0)
(1.00091 0.00623662 0)
(0.999984 0.00611205 0)
(0.998799 0.00598869 0)
(0.997647 0.00587148 0)
(0.996196 0.00575381 0)
(0.994768 0.00564082 0)
(0.993002 0.00552322 0)
(0.991264 0.00540678 0)
(0.989167 0.00528371 0)
(0.987131 0.00516341 0)
(0.98474 0.00503802 0)
(0.982461 0.00491745 0)
(0.979821 0.0047943 0)
(0.97733 0.00468168 0)
(0.974454 0.00456949 0)
(0.971754 0.00446786 0)
(0.968628 0.00436343 0)
(0.965697 0.00426876 0)
(0.962282 0.00417063 0)
(0.959081 0.00408172 0)
(0.955339 0.00398682 0)
(0.951844 0.00389921 0)
(0.947767 0.00380267 0)
(0.943999 0.00371441 0)
(0.939618 0.00361733 0)
(0.935621 0.00353057 0)
(0.930971 0.00343437 0)
(0.926788 0.00335083 0)
(0.921902 0.00325843 0)
(0.917573 0.00317973 0)
(0.912478 0.00309044 0)
(0.908026 0.0030182 0)
(0.902706 0.00293401 0)
(0.898117 0.0028656 0)
(0.892542 0.00278207 0)
(0.887817 0.00271571 0)
(0.882012 0.00263218 0)
(0.877219 0.00256857 0)
(0.871236 0.00248662 0)
(0.866436 0.00242732 0)
(0.860281 0.0023473 0)
(0.855486 0.00229324 0)
(0.849134 0.00221449 0)
(0.844361 0.00216323 0)
(0.837816 0.00208411 0)
(0.833118 0.00203668 0)
(0.826401 0.00195651 0)
(0.821839 0.00191156 0)
(0.814957 0.0018303 0)
(0.810582 0.00179088 0)
(0.803513 0.00170953 0)
(0.799375 0.00167291 0)
(0.792101 0.00158733 0)
(0.788274 0.00155396 0)
(0.780795 0.00146553 0)
(0.77736 0.00143717 0)
(0.769661 0.00134452 0)
(0.766713 0.00131961 0)
(0.758763 0.00122269 0)
(0.756413 0.00120428 0)
(0.748164 0.00110558 0)
(0.746522 0.0010942 0)
(0.737916 0.000997091 0)
(0.737084 0.000993361 0)
(0.728039 0.000916387 0)
(0.991085 0.0160731 0)
(0.991066 0.0192852 0)
(0.992422 0.0221207 0)
(0.994973 0.0239775 0)
(0.99833 0.024615 0)
(1.00183 0.024226 0)
(1.00507 0.0231974 0)
(1.00771 0.0217703 0)
(1.00975 0.0199762 0)
(1.0111 0.0179014 0)
(1.01183 0.015857 0)
(1.01188 0.0141793 0)
(1.01157 0.0130048 0)
(1.01102 0.0122342 0)
(1.01061 0.0116957 0)
(1.01027 0.0112575 0)
(1.01016 0.0108613 0)
(1.01006 0.0104868 0)
(1.01008 0.0101348 0)
(1.01001 0.00980005 0)
(1.01003 0.0094852 0)
(1.00992 0.00918775 0)
(1.00991 0.00891176 0)
(1.00977 0.00864871 0)
(1.00974 0.00839741 0)
(1.00957 0.00815072 0)
(1.00953 0.00791473 0)
(1.00933 0.00768586 0)
(1.00926 0.00747024 0)
(1.00903 0.00726272 0)
(1.00894 0.0070712 0)
(1.00866 0.00689128 0)
(1.00855 0.00672898 0)
(1.00824 0.00657648 0)
(1.0081 0.00644025 0)
(1.00772 0.00631233 0)
(1.00752 0.00619696 0)
(1.00706 0.00608331 0)
(1.00678 0.00597881 0)
(1.00618 0.00587425 0)
(1.00577 0.00577728 0)
(1.00499 0.00567532 0)
(1.00441 0.00557625 0)
(1.00342 0.0054681 0)
(1.00265 0.00536261 0)
(1.00146 0.00524827 0)
(1.00053 0.00513883 0)
(0.999161 0.00502374 0)
(0.998108 0.00492059 0)
(0.996574 0.00481572 0)
(0.995396 0.00472388 0)
(0.993685 0.00462767 0)
(0.992359 0.00454446 0)
(0.990434 0.00445662 0)
(0.988918 0.00438148 0)
(0.986723 0.00429849 0)
(0.984969 0.00422523 0)
(0.982466 0.00413943 0)
(0.980461 0.0040635 0)
(0.977652 0.00397437 0)
(0.975419 0.00389749 0)
(0.972319 0.00380662 0)
(0.969883 0.00373066 0)
(0.966507 0.00364093 0)
(0.963897 0.00356763 0)
(0.96027 0.00347897 0)
(0.957518 0.00341198 0)
(0.953638 0.00332943 0)
(0.950726 0.00326802 0)
(0.946531 0.00318665 0)
(0.943414 0.00312629 0)
(0.938884 0.00304154 0)
(0.935606 0.00298045 0)
(0.930798 0.00289386 0)
(0.927447 0.00283589 0)
(0.922394 0.00275081 0)
(0.918988 0.00269914 0)
(0.913653 0.0026154 0)
(0.91018 0.00256622 0)
(0.904536 0.00248015 0)
(0.901034 0.00243339 0)
(0.895107 0.00234406 0)
(0.891647 0.00229888 0)
(0.885457 0.002207 0)
(0.882095 0.00216769 0)
(0.875627 0.00207493 0)
(0.872407 0.00203861 0)
(0.865636 0.00194015 0)
(0.862613 0.00190649 0)
(0.855537 0.00180338 0)
(0.852792 0.0017745 0)
(0.845414 0.00166551 0)
(0.843041 0.00164019 0)
(0.83534 0.00152535 0)
(0.833435 0.00150673 0)
(0.825374 0.00138909 0)
(0.824037 0.00137739 0)
(0.815585 0.00126123 0)
(0.814907 0.00125733 0)
(0.80601 0.0011632 0)
(0.992369 0.0160247 0)
(0.992315 0.0188056 0)
(0.993497 0.0212805 0)
(0.995737 0.0229953 0)
(0.998795 0.0236938 0)
(1.00205 0.023427 0)
(1.00517 0.022485 0)
(1.00772 0.0211577 0)
(1.00972 0.0195436 0)
(1.01103 0.0176945 0)
(1.01185 0.0158221 0)
(1.01201 0.0142167 0)
(1.01184 0.0130434 0)
(1.01138 0.0122556 0)
(1.01104 0.0117092 0)
(1.01072 0.0112712 0)
(1.01067 0.0108777 0)
(1.01058 0.0105023 0)
(1.01067 0.0101469 0)
(1.01062 0.00980735 0)
(1.01072 0.00949034 0)
(1.01065 0.00919196 0)
(1.01073 0.00891707 0)
(1.01064 0.00865433 0)
(1.01073 0.0084045 0)
(1.01062 0.00815822 0)
(1.01071 0.00792369 0)
(1.01059 0.00769516 0)
(1.01068 0.00748118 0)
(1.01053 0.00727407 0)
(1.01062 0.00708408 0)
(1.01046 0.00690427 0)
(1.01055 0.00674338 0)
(1.01037 0.00659114 0)
(1.01047 0.00645692 0)
(1.01027 0.00633009 0)
(1.01036 0.00621807 0)
(1.01013 0.00610723 0)
(1.01021 0.00600835 0)
(1.00992 0.00590905 0)
(1.00997 0.00582053 0)
(1.00959 0.00572654 0)
(1.00957 0.00563823 0)
(1.00908 0.00553892 0)
(1.00896 0.00544356 0)
(1.00834 0.00533595 0)
(1.00815 0.0052342 0)
(1.00743 0.00512354 0)
(1.00719 0.00502672 0)
(1.00636 0.00492561 0)
(1.00608 0.00484036 0)
(1.00515 0.00474872 0)
(1.00481 0.00467363 0)
(1.00375 0.00459238 0)
(1.00332 0.00452811 0)
(1.0021 0.00445439 0)
(1.00153 0.00439423 0)
(1.00008 0.00431834 0)
(0.999353 0.00425515 0)
(0.997664 0.00417453 0)
(0.99678 0.00410911 0)
(0.994854 0.00402526 0)
(0.99382 0.00395963 0)
(0.991653 0.00387522 0)
(0.990482 0.00381045 0)
(0.988083 0.00372468 0)
(0.986807 0.00366508 0)
(0.98419 0.00358596 0)
(0.982802 0.0035346 0)
(0.979905 0.00345938 0)
(0.978332 0.00341063 0)
(0.975084 0.00333037 0)
(0.973324 0.0032775 0)
(0.969759 0.00319076 0)
(0.9679 0.00313813 0)
(0.964075 0.00305152 0)
(0.962156 0.00300634 0)
(0.958039 0.00292234 0)
(0.956022 0.00288072 0)
(0.95155 0.00279334 0)
(0.949434 0.00275253 0)
(0.944617 0.00265905 0)
(0.942469 0.00261816 0)
(0.937334 0.00252013 0)
(0.935211 0.00248485 0)
(0.929752 0.0023851 0)
(0.92769 0.00235299 0)
(0.92188 0.00224673 0)
(0.919904 0.00221676 0)
(0.913725 0.00210389 0)
(0.911895 0.00207753 0)
(0.905367 0.00195678 0)
(0.903773 0.00193359 0)
(0.896887 0.00180576 0)
(0.895597 0.00178888 0)
(0.888327 0.00165738 0)
(0.887417 0.00164644 0)
(0.879752 0.00151626 0)
(0.879297 0.00151247 0)
(0.871217 0.00140591 0)
(0.99338 0.0159712 0)
(0.993277 0.0183647 0)
(0.994312 0.0205159 0)
(0.99628 0.0220622 0)
(0.999064 0.0227807 0)
(1.00206 0.0226324 0)
(1.00505 0.021799 0)
(1.00749 0.0205665 0)
(1.00946 0.0190976 0)
(1.01074 0.0174441 0)
(1.01161 0.0157428 0)
(1.01185 0.0142279 0)
(1.01182 0.0130729 0)
(1.01143 0.0122724 0)
(1.01118 0.011716 0)
(1.01088 0.0112753 0)
(1.01087 0.0108839 0)
(1.01078 0.0105085 0)
(1.01092 0.0101513 0)
(1.01089 0.0098069 0)
(1.01104 0.00948669 0)
(1.01099 0.00918596 0)
(1.01114 0.00891149 0)
(1.01106 0.00864846 0)
(1.01122 0.00839987 0)
(1.01113 0.00815372 0)
(1.01129 0.00792063 0)
(1.01118 0.007692 0)
(1.01135 0.00747948 0)
(1.01122 0.00727243 0)
(1.0114 0.00708386 0)
(1.01125 0.00690364 0)
(1.01143 0.00674374 0)
(1.01126 0.0065907 0)
(1.01146 0.00645728 0)
(1.01128 0.00632955 0)
(1.0115 0.00621866 0)
(1.0113 0.00610748 0)
(1.01153 0.00601081 0)
(1.01132 0.00591245 0)
(1.01155 0.00582789 0)
(1.01129 0.00573674 0)
(1.01152 0.00565442 0)
(1.01119 0.00555919 0)
(1.01138 0.00547014 0)
(1.01098 0.00536568 0)
(1.01115 0.00526886 0)
(1.01069 0.00515973 0)
(1.01085 0.00506668 0)
(1.01032 0.00496632 0)
(1.01048 0.00488475 0)
(1.0099 0.00479418 0)
(1.01006 0.00472365 0)
(1.0094 0.00464474 0)
(1.00955 0.00458708 0)
(1.00879 0.00451806 0)
(1.00889 0.00446699 0)
(1.008 0.00439717 0)
(1.00803 0.00434365 0)
(1.00698 0.00426869 0)
(1.00693 0.00421255 0)
(1.00572 0.00413376 0)
(1.0056 0.00407726 0)
(1.00422 0.00399737 0)
(1.00402 0.00394098 0)
(1.00246 0.00385778 0)
(1.00221 0.00380488 0)
(1.00048 0.00372792 0)
(1.00019 0.00368546 0)
(0.998266 0.003616 0)
(0.997864 0.0035798 0)
(0.995647 0.00350616 0)
(0.99509 0.00346405 0)
(0.992581 0.00337966 0)
(0.991936 0.00333396 0)
(0.989198 0.00324721 0)
(0.988521 0.00320938 0)
(0.985543 0.00312717 0)
(0.984792 0.00309546 0)
(0.981492 0.00301062 0)
(0.980627 0.00297902 0)
(0.976985 0.00288547 0)
(0.976052 0.00285175 0)
(0.972097 0.00275156 0)
(0.971145 0.00272267 0)
(0.966878 0.00261987 0)
(0.965934 0.00259413 0)
(0.961335 0.00248488 0)
(0.960401 0.00246145 0)
(0.955432 0.0023444 0)
(0.954525 0.00232283 0)
(0.949208 0.00219565 0)
(0.948411 0.00217613 0)
(0.942757 0.00204125 0)
(0.942108 0.00202743 0)
(0.936093 0.00188856 0)
(0.935632 0.00187907 0)
(0.929256 0.00174144 0)
(0.929033 0.00173761 0)
(0.922307 0.00162505 0)
(0.994217 0.0159211 0)
(0.994055 0.0179717 0)
(0.994967 0.0198255 0)
(0.996699 0.0211911 0)
(0.999238 0.0218863 0)
(1.00198 0.0218342 0)
(1.00481 0.0211236 0)
(1.00715 0.0199956 0)
(1.00909 0.0186556 0)
(1.01033 0.0171718 0)
(1.01125 0.0156342 0)
(1.01155 0.0142179 0)
(1.01165 0.0130929 0)
(1.01133 0.012284 0)
(1.01116 0.0117159 0)
(1.01086 0.0112697 0)
(1.01089 0.0108789 0)
(1.0108 0.010504 0)
(1.01099 0.0101472 0)
(1.01095 0.00979947 0)
(1.01116 0.00947639 0)
(1.0111 0.00917255 0)
(1.01131 0.00889817 0)
(1.01123 0.00863481 0)
(1.01144 0.00838773 0)
(1.01134 0.00814188 0)
(1.01156 0.00791077 0)
(1.01145 0.00768235 0)
(1.01167 0.00747162 0)
(1.01153 0.00726486 0)
(1.01175 0.0070781 0)
(1.0116 0.0068976 0)
(1.01183 0.00673892 0)
(1.01165 0.00658501 0)
(1.0119 0.00645235 0)
(1.01171 0.00632325 0)
(1.01198 0.00621299 0)
(1.01178 0.00610049 0)
(1.01207 0.00600485 0)
(1.01185 0.00590561 0)
(1.01217 0.00582295 0)
(1.01193 0.00573196 0)
(1.01226 0.00565292 0)
(1.01198 0.00555897 0)
(1.01231 0.00547393 0)
(1.01199 0.00537065 0)
(1.01232 0.00527736 0)
(1.01194 0.00516849 0)
(1.01228 0.00507807 0)
(1.01186 0.00497714 0)
(1.01221 0.00489784 0)
(1.01175 0.00480658 0)
(1.01213 0.00473855 0)
(1.01162 0.00465938 0)
(1.01202 0.00460523 0)
(1.01146 0.00453738 0)
(1.01186 0.00449166 0)
(1.01123 0.00442425 0)
(1.01162 0.00437686 0)
(1.01089 0.00430431 0)
(1.01126 0.00425436 0)
(1.01043 0.00417783 0)
(1.01079 0.0041278 0)
(1.00984 0.00405034 0)
(1.01018 0.00400054 0)
(1.00911 0.00391867 0)
(1.00944 0.00387073 0)
(1.00826 0.003794 0)
(1.0086 0.00375757 0)
(1.00729 0.00369136 0)
(1.00759 0.00366526 0)
(1.00609 0.00359743 0)
(1.00629 0.00356545 0)
(1.00456 0.00348402 0)
(1.0047 0.00344478 0)
(1.0028 0.00335796 0)
(1.00294 0.00332596 0)
(1.00087 0.00324531 0)
(1.00098 0.0032226 0)
(0.998674 0.00314168 0)
(0.998698 0.00311969 0)
(0.996106 0.00302838 0)
(0.996061 0.00300231 0)
(0.993212 0.00290263 0)
(0.993132 0.00288047 0)
(0.990027 0.00277745 0)
(0.98993 0.00275795 0)
(0.986563 0.00264898 0)
(0.986441 0.00263278 0)
(0.982764 0.00251639 0)
(0.982591 0.00250038 0)
(0.978614 0.00237164 0)
(0.978454 0.00235579 0)
(0.97421 0.00221928 0)
(0.974082 0.00220862 0)
(0.969543 0.00206864 0)
(0.969452 0.00206069 0)
(0.964613 0.00192216 0)
(0.964581 0.00191768 0)
(0.959479 0.00180552 0)
(0.99494 0.0158633 0)
(0.994709 0.017614 0)
(0.995512 0.0191897 0)
(0.997043 0.0203751 0)
(0.999369 0.0210186 0)
(1.00187 0.0210381 0)
(1.00455 0.0204556 0)
(1.00678 0.019444 0)
(1.00868 0.0182235 0)
(1.00989 0.016885 0)
(1.01084 0.0154973 0)
(1.01119 0.0141819 0)
(1.01139 0.0130965 0)
(1.01114 0.0122857 0)
(1.01104 0.011707 0)
(1.01077 0.0112539 0)
(1.01083 0.0108631 0)
(1.01074 0.0104894 0)
(1.01095 0.0101352 0)
(1.01091 0.00978678 0)
(1.01115 0.00946196 0)
(1.0111 0.00915457 0)
(1.01133 0.00887968 0)
(1.01126 0.00861585 0)
(1.0115 0.00837047 0)
(1.0114 0.00812506 0)
(1.01165 0.00789634 0)
(1.01153 0.00766859 0)
(1.01178 0.00745997 0)
(1.01164 0.00725365 0)
(1.01189 0.00706901 0)