/*--------------------------------*- C++ -*----------------------------------*\
| =========                 |                                                 |
| \\      /  F ield         | OpenFOAM: The Open Source CFD Toolbox           |
|  \\    /   O peration     | Version:  5.x                                   |
|   \\  /    A nd           | Web:      www.OpenFOAM.org                      |
|    \\/     M anipulation  |                                                 |
\*---------------------------------------------------------------------------*/
FoamFile
{
    version     2.0;
    format      ascii;
    class       volScalarField;
    location    "0.9";
    object      p;
}
// * * * * * * * * * * * * * * * * * * * * * * * * * * * * * * * * * * * * * //

dimensions      [0 2 -2 0 0 0 0];

internalField   nonuniform List<scalar> 
21600
(
0.01534527
0.010102166
0.0046773796
0.0012895938
0.00015052058
0.00028502404
0.00069565971
0.00099292167
0.001140067
0.0011984023
0.0012211178
0.0012335787
0.0012434986
0.0012517902
0.001257993
0.0012619099
0.001263736
0.0012638304
0.001262556
0.0012602046
0.0012569981
0.0012530958
0.0012486201
0.0012436613
0.0012382953
0.0012325799
0.0012265677
0.0012202983
0.0012138096
0.0012071293
0.0012002854
0.001193297
0.0011861851
0.0011789631
0.0011716472
0.0011642464
0.0011567737
0.0011492351
0.0011416412
0.0011339959
0.0011263081
0.0011185799
0.0011108191
0.0011030267
0.0010952095
0.0010873674
0.0010795066
0.0010716264
0.0010637325
0.0010558233
0.0010479044
0.0010399736
0.0010320364
0.00102409
0.0010161398
0.0010081826
0.0010002238
0.00099225981
0.00098429601
0.00097632854
0.00096836281
0.00096039459
0.00095242947
0.00094446284
0.00093650049
0.00092853744
0.00092057971
0.00091262193
0.00090467041
0.00089671936
0.00088877541
0.00088083235
0.00087289716
0.00086496318
0.00085703781
0.0008491139
0.00084119931
0.00083328639
0.00082538349
0.0008174824
0.00080959202
0.00080170355
0.00079382646
0.00078595131
0.00077808822
0.00077022708
0.00076237869
0.00075453222
0.00074669924
0.00073886814
0.00073105126
0.00072323616
0.00071543606
0.0007076376
0.00069985496
0.00069207377
0.00068430926
0.00067654601
0.00066880036
0.00066105575
0.00065332972
0.00064560448
0.00063789889
0.00063019378
0.00062250943
0.0006148252
0.00060716288
0.00059950026
0.00059186077
0.00058422049
0.00057660466
0.0005689875
0.00056139621
0.00055380301
0.00054623719
0.00053866881
0.00053112945
0.0005235868
0.00051607492
0.00050855897
0.0005010757
0.00049358747
0.00048613396
0.00047867449
0.00047125193
0.00046382229
0.00045643189
0.00044903321
0.00044167632
0.00043430981
0.00042698786
0.00041965481
0.00041236927
0.00040507097
0.00039782335
0.00039056113
0.00038335302
0.00037612829
0.00036896143
0.00036177572
0.00035465194
0.00034750688
0.00034042815
0.00033332546
0.0003262939
0.00031923542
0.00031225332
0.00030524101
0.00029831079
0.00029134671
0.00028447089
0.00027755716
0.00027073841
0.00026387727
0.00025711849
0.0002503124
0.00024361677
0.00023686839
0.00023023935
0.0002235515
0.00021699273
0.00021036843
0.00020388393
0.00019732644
0.00019092058
0.00018443344
0.00017811099
0.00017169801
0.00016546417
0.00015912941
0.0001529898
0.00014673766
0.00014069849
0.00013453375
0.00012860193
0.0001225299
0.00011671316
0.00011073965
0.00010504656
9.9177832e-05
9.3617915e-05
8.786082e-05
8.2444773e-05
7.680682e-05
7.1546898e-05
6.6036418e-05
6.0946859e-05
5.557311e-05
5.0670601e-05
4.5443793e-05
4.0748168e-05
3.567929e-05
3.1214942e-05
2.6315516e-05
2.2114448e-05
1.7395316e-05
1.3505171e-05
8.9694276e-06
5.4907948e-06
1.0835537e-06
0.014098059
0.009907925
0.0048130865
0.0014931366
0.00030666376
0.00038191494
0.00075710066
0.001033101
0.0011679068
0.0012196118
0.0012386846
0.0012487993
0.0012569154
0.0012637119
0.0012686613
0.001271527
0.0012724664
0.0012718053
0.0012698806
0.0012669638
0.0012632617
0.0012589219
0.0012540576
0.0012487517
0.0012430741
0.0012370779
0.0012308113
0.0012243108
0.0012176112
0.001210738
0.0012037169
0.0011965654
0.0011893031
0.0011819417
0.0011744966
0.0011669757
0.001159391
0.001151748
0.0011440563
0.0011363195
0.0011285457
0.0011207369
0.0011129001
0.001105036
0.0010971512
0.0010892452
0.0010813239
0.0010733864
0.0010654381
0.0010574773
0.0010495093
0.0010415318
0.0010335501
0.0010255613
0.0010175706
0.0010095748
0.001001579
0.00099357968
0.00098558204
0.00097758215
0.00096958533
0.00096158729
0.00095359354
0.0009455994
0.00093761061
0.00092962211
0.0009216399
0.00091365854
0.0009056843
0.00089771134
0.00088974627
0.00088178281
0.00087382794
0.00086587494
0.00085793119
0.00084998949
0.00084205772
0.00083412815
0.00082620914
0.00081829245
0.00081038695
0.00080248382
0.00079459252
0.00078670358
0.00077882711
0.00077095298
0.00076309198
0.00075523326
0.00074738838
0.0007395457
0.00073171757
0.00072389152
0.00071608078
0.00070827196
0.00070047923
0.00069268822
0.00068491415
0.00067714157
0.00066938684
0.00066163336
0.00065389871
0.00064616505
0.00063845124
0.00063073812
0.00062304595
0.00061535409
0.00060768432
0.00060001441
0.00059236781
0.00058472059
0.00057709797
0.00056947417
0.0005618764
0.00055427685
0.00054670484
0.00053913039
0.00053158509
0.00052403663
0.00051651908
0.00050899756
0.00050150885
0.00049401529
0.00048655656
0.00047909198
0.0004716644
0.00046422986
0.00045683465
0.00044943126
0.00044206975
0.00043469872
0.00042737232
0.00042003493
0.00041274511
0.00040544264
0.0003981909
0.00039092467
0.0003837126
0.00037648401
0.00036931333
0.0003621239
0.00035499645
0.00034784781
0.00034076554
0.0003336594
0.00032662442
0.00031956262
0.00031257722
0.00030556172
0.00029862831
0.00029166116
0.00028478226
0.00027786557
0.00027104384
0.00026417986
0.0002574182
0.00025060938
0.00024391096
0.00023715995
0.00023052821
0.00022383784
0.00021727646
0.00021064974
0.00020416271
0.00019760289
0.00019119459
0.00018470521
0.00017838041
0.00017196529
0.00016572916
0.00015939236
0.00015325054
0.00014699644
0.00014095514
0.00013478854
0.00012885467
0.00012278087
0.00011696216
0.00011098695
0.00010529198
9.9421651e-05
9.3859946e-05
8.8101325e-05
8.2683595e-05
7.7044188e-05
7.1782707e-05
6.6270835e-05
6.1179867e-05
5.580477e-05
5.0901047e-05
4.5672907e-05
4.0976331e-05
3.5906077e-05
3.1441167e-05
2.6540206e-05
2.2339213e-05
1.7618116e-05
1.3729386e-05
9.190507e-06
5.7161783e-06
1.3026693e-06
0.013102046
0.0097459371
0.0050783537
0.0018298024
0.00053612656
0.00050544755
0.0008259796
0.0010789692
0.0012018644
0.0012457926
0.0012596243
0.0012661685
0.001271674
0.0012764233
0.00127972
0.0012812462
0.0012810979
0.0012795458
0.0012768812
0.0012733411
0.0012691071
0.0012643081
0.0012590438
0.0012533865
0.0012473981
0.0012411252
0.001234611
0.0012278877
0.0012209868
0.0012139308
0.0012067432
0.0011994394
0.0011920373
0.0011845474
0.0011769836
0.0011693529
0.0011616663
0.0011539286
0.0011461487
0.0011383294
0.0011304786
0.0011225974
0.0011146929
0.001106765
0.0010988201
0.0010908575
0.0010828828
0.0010748946
0.0010668985
0.0010588922
0.0010508812
0.0010428628
0.0010348421
0.0010268163
0.0010187903
0.0010107607
0.0010027328
0.00099470276
0.00098667577
0.00097864772
0.000970624
0.0009626001
0.00095458161
0.00094656366
0.00093855207
0.00093054159
0.00092253831
0.00091453659
0.00090654284
0.00089855099
0.0008905678
0.00088258678
0.00087461505
0.00086664568
0.00085868621
0.00085072923
0.00084278278
0.0008348389
0.00082690616
0.00081897606
0.0008110577
0.00080314198
0.0007952386
0.00078733783
0.00077945
0.00077156472
0.00076369303
0.0007558238
0.00074796884
0.00074011622
0.00073227859
0.00072444314
0.00071662342
0.00070880569
0.00070100447
0.00069320501
0.0006854229
0.0006776423
0.00066987995
0.00066211885
0.00065437697
0.00064663604
0.00063891538
0.00063119533
0.00062349665
0.00061579817
0.00060812221
0.00060044599
0.00059279351
0.00058514024
0.00057751202
0.00056988244
0.00056227933
0.00055467423
0.00054709714
0.00053951736
0.00053196723
0.00052441365
0.00051689149
0.00050936504
0.00050187194
0.00049437363
0.00048691072
0.00047944156
0.00047201
0.00046457103
0.00045717203
0.00044976436
0.00044239923
0.00043502406
0.00042769422
0.00042035281
0.00041305972
0.00040575335
0.0003984985
0.00039122847
0.00038401345
0.00037678116
0.00036960769
0.00036241465
0.00035528455
0.00034813238
0.00034104762
0.00033393802
0.00032690069
0.00031983549
0.00031284789
0.00030582905
0.00029889359
0.00029192313
0.00028504234
0.00027812237
0.00027129889
0.00026443167
0.00025766841
0.00025085635
0.00024415649
0.00023740225
0.00023076923
0.00022407562
0.00021751313
0.00021088315
0.00020439518
0.00019783208
0.00019142301
0.00018493031
0.00017860492
0.00017218643
0.00016594991
0.00015960966
0.00015346768
0.00014721004
0.00014116879
0.00013499854
0.00012906498
0.00012298739
0.00011716926
0.00011119011
0.00010549601
9.9621545e-05
9.4061052e-05
8.8298064e-05
8.288192e-05
7.723787e-05
7.1978403e-05
6.6461554e-05
6.1373098e-05
5.5992616e-05
5.1091988e-05
4.5857959e-05
4.1165179e-05
3.6088394e-05
3.1628153e-05
2.6719805e-05
2.2524608e-05
1.7794894e-05
1.3913223e-05
9.3641932e-06
5.8861356e-06
1.4474506e-06
0.012254144
0.0095582862
0.0053538855
0.0022108677
0.0008209848
0.0006692618
0.00092448702
0.001148181
0.0012538269
0.0012849848
0.0012897482
0.0012902495
0.0012917072
0.0012935229
0.0012945179
0.0012941706
0.001292482
0.001289656
0.0012859286
0.0012814925
0.0012764959
0.0012710423
0.0012652121
0.0012590623
0.0012526428
0.0012459902
0.0012391399
0.0012321174
0.001224949
0.0012176526
0.0012102482
0.001202748
0.0011951673
0.0011875144
0.0011798014
0.0011720337
0.0011642211
0.0011563668
0.0011484792
0.00114056
0.0011326162
0.0011246484
0.001116663
0.0011086596
0.0011006438
0.0010926146
0.0010845774
0.0010765304
0.0010684787
0.0010604201
0.0010523595
0.0010442941
0.0010362291
0.001028161
0.0010200949
0.0010120272
0.0010039631
0.0009958984
0.00098783847
0.0009797789
0.00097172514
0.00096367245
0.00095562648
0.00094758213
0.00093954532
0.00093151056
0.00092348407
0.00091545997
0.0009074448
0.00089943225
0.00089142925
0.00088342904
0.00087543893
0.00086745173
0.00085947519
0.00085150162
0.00084353925
0.0008355799
0.00082763232
0.00081968774
0.00081175551
0.00080382623
0.00079590986
0.00078799636
0.00078009636
0.00077219912
0.00076431599
0.0007564355
0.00074856978
0.00074070654
0.00073285878
0.0007250133
0.00071718403
0.00070935681
0.00070154657
0.00069373813
0.0006859475
0.00067815838
0.00067038796
0.00066261877
0.00065486925
0.00064712063
0.00063939273
0.00063166536
0.00062395981
0.00061625435
0.00060857187
0.00060088899
0.00059323031
0.00058557067
0.00057793656
0.00057030088
0.00056269218
0.00055508124
0.00054749883
0.00053991345
0.00053235826
0.00052479929
0.00051727231
0.00050974069
0.000502243
0.0004947397
0.00048727243
0.00047979846
0.00047236275
0.00046491913
0.00045751618
0.00045010401
0.00044273513
0.0004353556
0.0004280222
0.00042067656
0.00041338009
0.0004060696
0.00039881154
0.00039153751
0.00038431945
0.00037708325
0.0003699069
0.00036271005
0.00035557724
0.00034842133
0.00034133401
0.00033422075
0.00032718102
0.00032011222
0.00031312238
0.00030609998
0.00029916243
0.00029218846
0.00028530573
0.00027838228
0.00027155703
0.00026468634
0.00025792146
0.00025110595
0.00024440464
0.00023764694
0.00023101264
0.00022431556
0.00021775195
0.00021111848
0.00020462957
0.00019806293
0.00019165311
0.00018515682
0.00017883088
0.00017240872
0.00016617186
0.00015982786
0.00015368574
0.00014742424
0.00014138311
0.00013520887
0.00012927566
0.00012319393
0.00011737643
0.00011139295
0.00010569979
9.982078e-05
9.4261546e-05
8.8493762e-05
8.307924e-05
7.7430093e-05
7.2172654e-05
6.6650352e-05
6.1564379e-05
5.6178021e-05
5.1280391e-05
4.6039976e-05
4.1350781e-05
3.6266985e-05
3.1810995e-05
2.6894865e-05
2.2704556e-05
1.7966221e-05
1.4088567e-05
9.5306482e-06
6.0295803e-06
1.5585262e-06
0.011482572
0.0093141954
0.0055855588
0.0025815696
0.0011181919
0.00084993397
0.0010376477
0.0012316417
0.0013201031
0.0013370146
0.0013303808
0.0013228642
0.0013188882
0.0013167783
0.0013146791
0.0013117795
0.0013079657
0.0013033696
0.0012981623
0.0012924784
0.0012864199
0.0012800543
0.0012734346
0.0012665968
0.0012595744
0.0012523905
0.0012450697
0.0012376285
0.001230086
0.001222454
0.0012147474
0.001206974
0.0011991458
0.0011912677
0.0011833493
0.0011753936
0.0011674088
0.0011593961
0.0011513625
0.0011433083
0.0011352397
0.0011271561
0.001119063
0.0011109592
0.0011028499
0.0010947332
0.0010866141
0.0010784902
0.0010703665
0.0010622399
0.0010541155
0.0010459898
0.0010378679
0.0010297459
0.0010216289
0.0010135129
0.001005403
0.00099729479
0.00098919353
0.00098109455
0.00097300333
0.00096491484
0.00095683479
0.0009487578
0.00094068988
0.00093262527
0.0009245703
0.00091651881
0.00090847747
0.00090043973
0.00089241263
0.00088438917
0.00087637682
0.00086836811
0.00086037098
0.00085237747
0.00084439601
0.00083641812
0.00082845279
0.00082049095
0.00081254218
0.0008045968
0.000796665
0.00078873643
0.00078082201
0.00077291065
0.00076501402
0.00075712027
0.00074924189
0.0007413662
0.00073350654
0.00072564933
0.00071780887
0.00070997059
0.00070214981
0.00069433092
0.00068653035
0.00067873134
0.00067095155
0.00066317299
0.00065541461
0.0006476571
0.00063992082
0.00063218501
0.00062447152
0.00061675803
0.00060906803
0.00060137749
0.00059371168
0.00058604474
0.00057840387
0.00057076122
0.00056314609
0.00055552849
0.00054793997
0.00054034821
0.00053278721
0.00052522213
0.00051768963
0.00051015213
0.0005026492
0.00049514025
0.00048766798
0.00048018858
0.00047274811
0.00046529926
0.00045789178
0.00045047456
0.00044310138
0.00043571696
0.00042837946
0.00042102909
0.00041372873
0.00040641365
0.0003991519
0.0003918734
0.00038465184
0.0003774113
0.00037023163
0.00036303054
0.00035589458
0.00034873454
0.00034164425
0.00033452693
0.0003274844
0.00032041163
0.00031341915
0.00030639284
0.00029945283
0.000292475
0.00028558996
0.0002786627
0.00027183531
0.00026496084
0.00025819398
0.00025137472
0.00024467159
0.00023791015
0.0002312742
0.00022457337
0.00021800829
0.00021137105
0.00020488084
0.00019831041
0.00019189947
0.00018539935
0.00017907247
0.00017264641
0.00016640881
0.00016006084
0.00015391818
0.00014765262
0.00014161116
0.00013543274
0.00012949943
0.00012341338
0.00011759601
0.00011160805
0.00010591527
0.00010003159
9.4473008e-05
8.8700321e-05
8.3286742e-05
7.7632425e-05
7.2376238e-05
6.684845e-05
6.1764059e-05
5.6371846e-05
5.1476137e-05
4.6229436e-05
4.1542494e-05
3.6451921e-05
3.1998418e-05
2.7075051e-05
2.2886876e-05
1.8141399e-05
1.4261467e-05
9.6975569e-06
6.1517206e-06
1.6426422e-06
0.010784621
0.0090228417
0.0057652931
0.0029293703
0.0014146205
0.0010350291
0.0011530533
0.0013177509
0.0013916498
0.0013959576
0.0013778817
0.0013616333
0.0013515805
0.0013450964
0.0013395377
0.0013337263
0.0013274267
0.0013207165
0.0013137136
0.0013064975
0.0012991212
0.0012916135
0.0012839976
0.0012762859
0.0012684932
0.0012606268
0.001252699
0.0012447155
0.0012366868
0.001228617
0.0012205152
0.0012123837
0.0012042302
0.0011960555
0.0011878663
0.0011796625
0.0011714499
0.0011632275
0.0011550007
0.0011467679
0.0011385339
0.0011302969
0.0011220614
0.0011138249
0.001105592
0.0010973599
0.0010891329
0.0010809079
0.0010726894
0.0010644737
0.0010562656
0.0010480611
0.0010398649
0.0010316728
0.0010234896
0.0010153109
0.0010071417
0.00099897716
0.00099082258
0.00098267288
0.00097453353
0.00096639915
0.00095827549
0.00095015685
0.00094204929
0.00093394674
0.00092585561
0.00091776946
0.00090969505
0.00090162554
0.00089356811
0.00088551546
0.00087747522
0.00086943962
0.00086141677
0.00085339841
0.00084539318
0.00083739229
0.00082940494
0.00082142176
0.00081345256
0.00080548732
0.00079753652
0.00078958946
0.00078165732
0.00077372869
0.00076581553
0.00075790563
0.0007500118
0.00074212096
0.00073424683
0.00072637541
0.00071852137
0.00071066973
0.0007028362
0.00069500473
0.00068719216
0.00067938129
0.0006715902
0.00066380043
0.0006560314
0.00064826329
0.00064051696
0.0006327711
0.00062504811
0.00061732509
0.00060962611
0.00060192652
0.0005942522
0.00058657665
0.00057892772
0.00057127686
0.00056365409
0.00055602867
0.0005484329
0.00054083366
0.00053326578
0.00052569355
0.00051815452
0.00051061018
0.00050310103
0.00049558552
0.00048810734
0.00048062164
0.00047317555
0.00046572064
0.00045830782
0.00045088476
0.00044350649
0.00043611645
0.00042877411
0.00042141831
0.00041411334
0.000406793
0.00039952687
0.00039224328
0.00038501755
0.00037777207
0.00037058844
0.00036338255
0.00035624284
0.00034907811
0.00034198426
0.00033486237
0.00032781647
0.00032073922
0.00031374356
0.00030671286
0.00029976984
0.0002927877
0.00028589982
0.00027896832
0.00027213826
0.0002652596
0.00025849025
0.00025166683
0.00024496138
0.00023819581
0.0002315577
0.00022485277
0.00021828569
0.00021164435
0.00020515232
0.00019857777
0.00019216517
0.00018566091
0.00017933255
0.00017290231
0.0001666634
0.00016031118
0.00015416739
0.00014789751
0.00014185509
0.00013567226
0.00012973818
0.0001236476
0.00011782965
0.00011183702
0.00010614385
0.00010025532
9.4696535e-05
8.8918813e-05
8.3505215e-05
7.7845633e-05
7.2589603e-05
6.7056288e-05
6.1972201e-05
5.6574168e-05
5.1678843e-05
4.642602e-05
4.1739386e-05
3.6642456e-05
3.2188748e-05
2.7259196e-05
2.3068771e-05
1.8318736e-05
1.4427364e-05
9.8607497e-06
6.2494867e-06
1.6966819e-06
0.010163885
0.0087063487
0.0058943809
0.0032506361
0.0017075237
0.0012226847
0.0012682755
0.0014029133
0.0014645072
0.0014584468
0.0014295332
0.0014041546
0.0013875414
0.001376436
0.0013673275
0.00135854
0.0013496646
0.0013407283
0.0013318109
0.0013229439
0.0013141335
0.0013053693
0.0012966453
0.001287951
0.001279283
0.0012706341
0.0012620038
0.0012533874
0.0012447869
0.0012361989
0.0012276259
0.001219065
0.0012105191
0.001201985
0.0011934659
0.0011849585
0.0011764661
0.0011679852
0.0011595193
0.0011510648
0.0011426251
0.0011341966
0.0011257828
0.0011173799
0.0011089917
0.0011006141
0.0010922509
0.0010838982
0.0010755597
0.0010672312
0.001058917
0.0010506123
0.0010423218
0.0010340405
0.0010257731
0.0010175146
0.0010092698
0.0010010337
0.00099281121
0.00098459695
0.00097639632
0.00096820355
0.00096002441
0.00095185281
0.00094369484
0.0009355441
0.00092740706
0.00091927693
0.00091116058
0.00090305083
0.00089495498
0.00088686541
0.00087878988
0.00087072033
0.00086266501
0.00085461535
0.00084658016
0.00083855035
0.00083053531
0.00082252534
0.00081453049
0.0008065404
0.00079856578
0.00079059561
0.00078264133
0.00077469118
0.00076675739
0.0007588274
0.00075091431
0.0007430047
0.00073511257
0.00072722357
0.00071935269
0.00071148455
0.00070363523
0.00069578826
0.00068796087
0.00068013541
0.0006723304
0.00066452688
0.00065674474
0.00064896366
0.00064120498
0.00063344686
0.00062571222
0.0006179776
0.00061026761
0.00060255703
0.00059487231
0.00058718633
0.00057952755
0.00057186679
0.0005642347
0.00055659984
0.00054899524
0.00054138702
0.00053381076
0.00052622996
0.00051868297
0.00051113045
0.00050361374
0.00049609041
0.00048860505
0.00048111185
0.00047365893
0.00046619683
0.00045877752
0.00045134756
0.00044396311
0.00043656642
0.00042921821
0.000421856
0.00041454543
0.00040721893
0.00039994746
0.00039265791
0.0003854271
0.00037817585
0.00037098739
0.0003637759
0.00035663159
0.00034946143
0.00034236319
0.00033523603
0.00032818596
0.00032110356
0.00031410393
0.00030706821
0.00030012141
0.00029313435
0.0002862429
0.00027930657
0.00027247311
0.0002655897
0.00025881713
0.00025198903
0.00024528053
0.00023851034
0.00023186935
0.00022515983
0.00021859004
0.00021194414
0.00020544955
0.00019887046
0.00019245546
0.00018594665
0.00017961604
0.00017318124
0.00016694023
0.00016058341
0.00015443766
0.00014816313
0.00014211888
0.00013593133
0.00012999556
0.00012390017
0.00011808064
0.0001120831
0.00010638843
0.00010049488
9.493467e-05
8.9151777e-05
8.3736786e-05
7.8071876e-05
7.2814421e-05
6.7275617e-05
6.2189962e-05
5.6786306e-05
5.1889059e-05
4.663059e-05
4.194125e-05
3.683899e-05
3.2380791e-05
2.7447206e-05
2.3247754e-05
1.8497171e-05
1.458246e-05
1.0016116e-05
6.3225862e-06
1.7230946e-06
0.0096184617
0.0083825871
0.005974368
0.0035412933
0.001994347
0.0014131171
0.001383813
0.0014864669
0.0015371424
0.0015229793
0.0014841717
0.0014493944
0.0014256676
0.0014096126
0.0013968622
0.0013850944
0.0013736338
0.0013624397
0.0013515667
0.0013410085
0.0013307263
0.0013206691
0.0013107997
0.0013010839
0.0012915008
0.0012820282
0.001272654
0.0012633631
0.001254149
0.0012450008
0.0012359155
0.0012268843
0.0012179061
0.0012089734
0.0012000863
0.0011912382
0.00118243
0.0011736559
0.0011649172
0.0011562085
0.0011475318
0.0011388817
0.0011302607
0.0011216636
0.0011130933
0.0011045446
0.0010960208
0.0010875166
0.0010790356
0.0010705727
0.0010621315
0.0010537069
0.0010453029
0.0010369141
0.001028545
0.0010201899
0.0010118536
0.0010035304
0.00099522527
0.00098693228
0.00097865677
0.0009703926
0.00096214545
0.00095390889
0.000945689
0.00093747902
0.00092928544
0.00092110114
0.00091293303
0.00090477363
0.0008966303
0.00088849512
0.00088037594
0.00087226439
0.00086416884
0.00085608043
0.00084800811
0.00083994247
0.00083189307
0.00082384992
0.00081582322
0.00080780233
0.00079979815
0.00079179934
0.00078381757
0.00077584074
0.00076788134
0.00075992646
0.00075198948
0.00074405661
0.00073614216
0.00072823139
0.00072033961
0.00071245107
0.00070458218
0.00069671605
0.0006888703
0.00068102683
0.00067320456
0.00066538409
0.00065758572
0.00064978867
0.0006420147
0.00063424149
0.00062649245
0.00061874357
0.00061101998
0.0006032959
0.00059559833
0.00058789956
0.00058022864
0.00057255574
0.00056491215
0.00055726577
0.00054965027
0.00054203109
0.0005344445
0.00052685326
0.00051929647
0.000511734
0.00050420798
0.00049667515
0.00048918094
0.00048167866
0.00047421733
0.00046674653
0.00045931922
0.00045188092
0.00044448885
0.00043708418
0.0004297287
0.00042235881
0.00041504132
0.00040770742
0.00040042935
0.00039313268
0.00038589557
0.00037863745
0.00037144297
0.00036422485
0.00035707479
0.00034989821
0.00034279449
0.00033566109
0.00032860579
0.00032151734
0.0003145127
0.00030747109
0.0003005195
0.0002935267
0.00028663067
0.00027968873
0.00027285089
0.00026596198
0.00025918522
0.00025235173
0.00024563923
0.00023886373
0.0002322189
0.00022550415
0.00021893068
0.00021227961
0.00020578149
0.00019919728
0.00019277887
0.00018626498
0.00017993109
0.00017349121
0.00016724703
0.00016088515
0.00015473631
0.00014845671
0.00014240945
0.00013621681
0.00013027805
0.00012417755
0.00011835504
0.00011235233
0.00010665465
0.00010075589
9.5192545e-05
8.9404408e-05
8.3986069e-05
7.8315904e-05
7.3054731e-05
6.7510725e-05
6.2420726e-05
5.7012069e-05
5.2109404e-05
4.684646e-05
4.2149788e-05
3.7044295e-05
3.2575163e-05
2.7641088e-05
2.3423314e-05
1.8677056e-05
1.4725627e-05
1.0161223e-05
6.3742e-06
1.7293946e-06
0.0091404475
0.008064384
0.0060081461
0.0037970166
0.0022712534
0.0016063655
0.0015008363
0.0015685313
0.0016086421
0.0015885005
0.0015411528
0.0014969971
0.0014656176
0.0014441826
0.0014276225
0.0014128496
0.0013987996
0.0013853223
0.0013724543
0.0013601669
0.0013483827
0.001337009
0.0013259745
0.0013152195
0.0013047042
0.0012943915
0.0012842572
0.0012742757
0.0012644321
0.0012547078
0.0012450937
0.0012355758
0.0012261483
0.0012168
0.0012075275
0.0011983213
0.0011891798
0.0011800947
0.0011710656
0.0011620851
0.0011531537
0.0011442647
0.0011354192
0.0011266108
0.0011178416
0.0011091053
0.0011004044
0.0010917329
0.0010830937
0.0010744809
0.0010658979
0.0010573386
0.0010488069
0.0010402967
0.0010318122
0.0010233474
0.0010149067
0.0010064838
0.00099808384
0.00098970026
0.00098133837
0.00097299159
0.00096466559
0.00095635352
0.00094806148
0.00093978231
0.00093152255
0.00092327472
0.0009150458
0.00090682795
0.00089862861
0.00089043953
0.00088226867
0.00087410732
0.000865964
0.00085782951
0.00084971296
0.00084160459
0.00083351416
0.00082543133
0.0008173665
0.0008093087
0.00080126904
0.00079323584
0.000785221
0.00077721208
0.00076922182
0.00076123696
0.00075327113
0.0007453102
0.00073736875
0.00072943167
0.0007215146
0.00071360137
0.00070570874
0.00069781942
0.00068995136
0.00068208608
0.00067424283
0.00066640181
0.00065858369
0.00065076725
0.00064297466
0.00063518315
0.00062741654
0.00061965035
0.00061191017
0.0006041697
0.00059645645
0.00058874215
0.00058105638
0.00057336876
0.00056571111
0.00055805073
0.00055042191
0.00054278942
0.00053519019
0.00052758629
0.0005200175
0.00051244295
0.00050490553
0.00049736118
0.00048985613
0.00048234284
0.00047487119
0.00046738988
0.00045995272
0.00045250436
0.00044510291
0.00043768859
0.00043032416
0.00042294502
0.00041561898
0.00040827619
0.00040098996
0.00039368473
0.00038643983
0.00037917346
0.00037197152
0.00036474545
0.00035758825
0.00035040399
0.00034329343
0.0003361526
0.00032909074
0.00032199508
0.00031498416
0.00030793556
0.00030097793
0.00029397834
0.00028707649
0.00028012793
0.00027328449
0.00026638914
0.00025960698
0.00025276719
0.00024604947
0.0002392678
0.00023261792
0.00022589712
0.00021931874
0.00021266173
0.00020615883
0.00019956877
0.00019314569
0.00018662603
0.00018028754
0.00017384197
0.00016759324
0.00016122572
0.00015507235
0.00014878716
0.00014273534
0.00013653717
0.00013059377
0.0001244878
0.00011866047
0.00011265238
0.00010694961
0.00010104556
9.5476732e-05
8.9683472e-05
8.4259048e-05
7.858402e-05
7.3315868e-05
6.7767437e-05
6.2669099e-05
5.7256778e-05
5.2343657e-05
4.7078386e-05
4.2367866e-05
3.7262395e-05
3.2773797e-05
2.78437e-05
2.3596612e-05
1.8859086e-05
1.4857842e-05
1.0295193e-05
6.4092013e-06
1.7252874e-06
0.0087192795
0.0077603394
0.0060016091
0.0040147782
0.0025341494
0.0018019547
0.0016206679
0.001649706
0.001678432
0.0016540515
0.0015999033
0.001546815
0.0015073791
0.0014800695
0.0014594422
0.001441599
0.0014249511
0.0014091665
0.0013942573
0.0013801896
0.0013668598
0.0013541355
0.0013419093
0.0013300928
0.001318626
0.0013074562
0.0012965469
0.0012858616
0.0012753766
0.0012650656
0.001254913
0.0012448991
0.0012350138
0.0012252415
0.0012155755
0.0012060033
0.0011965206
0.0011871167
0.0011777893
0.0011685291
0.0011593352
0.0011501991
0.001141121
0.0011320933
0.001123117
0.0011141848
0.0011052986
0.0010964514
0.0010876457
0.0010788747
0.0010701414
0.0010614391
0.0010527713
0.0010441315
0.0010355234
0.0010269406
0.0010183873
0.0010098568
0.001001354
0.00099287191
0.00098441587
0.00097597878
0.00096756635
0.00095917129
0.00095079973
0.00094244412
0.00093411107
0.00092579269
0.00091749607
0.00090921298
0.000900951
0.00089270149
0.00088447257
0.00087625515
0.00086805792
0.00085987131
0.00085170463
0.00084354775
0.00083541063
0.00082728256
0.00081917419
0.00081107415
0.00080299382
0.00079492114
0.00078686827
0.00077882238
0.0007707965
0.00076277699
0.00075477777
0.00074678431
0.00073881151
0.00073084387
0.00072289734
0.00071495536
0.00070703502
0.0006991186
0.00069122446
0.00068333362
0.00067546578
0.00066760064
0.00065975931
0.00065192007
0.00064410556
0.00063629248
0.00062850515
0.00062071853
0.00061295874
0.0006051989
0.00059746707
0.00058973439
0.00058203101
0.00057432593
0.00056665157
0.00055897459
0.0005513299
0.00054368162
0.00053606731
0.00052844835
0.00052086522
0.00051327632
0.00050572525
0.00049816719
0.00049064913
0.00048312275
0.0004756387
0.00046814485
0.00046069587
0.00045323551
0.00044582277
0.00043839694
0.00043102172
0.00042363153
0.00041629518
0.00040894177
0.00040164568
0.00039433023
0.00038707588
0.00037979968
0.00037258868
0.00036535313
0.00035818723
0.00035099382
0.00034387491
0.00033672524
0.00032965534
0.00032255114
0.00031553246
0.00030847558
0.00030151047
0.00029450285
0.00028759377
0.00028063741
0.00027378697
0.00026688403
0.00026009508
0.0002532479
0.00024652356
0.0002397347
0.00023307835
0.00022635053
0.0002197658
0.00021310193
0.00020659277
0.00019999601
0.00019356673
0.0001870405
0.00018069582
0.00017424384
0.00016798887
0.0001616151
0.00015545538
0.0001491641
0.00014310574
0.00013690166
0.00013095143
0.00012483977
0.0001190052
0.00011299167
0.00010728108
0.00010137195
9.579447e-05
8.9996598e-05
8.4562379e-05
7.8883417e-05
7.3603852e-05
6.8052471e-05
6.2940411e-05
5.7526607e-05
5.2596418e-05
4.7331858e-05
4.2599356e-05
3.7497826e-05
3.2979937e-05
2.80581e-05
2.3770413e-05
1.9044189e-05
1.4981727e-05
1.0419035e-05
6.4332479e-06
1.7210231e-06
0.0083443418
0.0074754925
0.0059629718
0.004193611
0.0027792
0.0019985884
0.0017444207
0.0017309788
0.0017463104
0.0017187762
0.0016597824
0.0015986843
0.0015510374
0.0015173529
0.0014923104
0.0014712733
0.0014520101
0.0014339036
0.0014169121
0.0014010078
0.0013860776
0.0013719576
0.0013585035
0.0013455956
0.0013331515
0.0013211014
0.0013093964
0.001297989
0.0012868465
0.0012759345
0.0012652309
0.0012547099
0.0012443568
0.0012341515
0.0012240841
0.0012141384
0.0012043078
0.0011945789
0.0011849476
0.0011754022
0.0011659406
0.0011565526
0.0011472373
0.0011379856
0.0011287978
0.0011196654
0.0011105896
0.0011015625
0.0010925861
0.0010836526
0.0010747649
0.0010659153
0.0010571074
0.0010483335
0.0010395977
0.0010308926
0.0010222225
0.0010135801
0.0010049702
0.00099638529
0.0009878308
0.00097929905
0.0009707959
0.00096231347
0.00095385811
0.00094542171
0.00093701108
0.00092861782
0.00092024925
0.00091189662
0.00090356779
0.00089525359
0.00088696244
0.00087868474
0.0008704295
0.00086218663
0.00085396577
0.00084575631
0.00083756853
0.00082939124
0.00082123544
0.00081308926
0.00080496446
0.00079684847
0.00078875385
0.00078066727
0.00077260216
0.00076454435
0.00075650822
0.00074847869
0.00074047113
0.00073246947
0.00072449017
0.00071651607
0.00070856479
0.00070061803
0.00069269466
0.00068477512
0.00067687964
0.00066898732
0.00066111984
0.00065325483
0.00064541555
0.00063757803
0.0006297672
0.00062195737
0.00061417529
0.0006063934
0.0005986404
0.00059088673
0.00058316324
0.00057543817
0.00056774468
0.00056004866
0.00055238576
0.00054471931
0.00053708766
0.00052945135
0.0005218517
0.00051424622
0.00050667938
0.00049910547
0.00049157236
0.00048403079
0.00047653236
0.00046902397
0.00046156124
0.00045408693
0.00044666104
0.00043922182
0.00043183401
0.00042443095
0.00041708252
0.00040971674
0.00040240905
0.0003950817
0.00038781621
0.00038052855
0.00037330684
0.00036606023
0.00035888403
0.00035167995
0.00034455109
0.00033739111