/*--------------------------------*- C++ -*----------------------------------*\
| =========                 |                                                 |
| \\      /  F ield         | OpenFOAM: The Open Source CFD Toolbox           |
|  \\    /   O peration     | Version:  5.x                                   |
|   \\  /    A nd           | Web:      www.OpenFOAM.org                      |
|    \\/     M anipulation  |                                                 |
\*---------------------------------------------------------------------------*/
FoamFile
{
    version     2.0;
    format      ascii;
    class       surfaceScalarField;
    location    "0.9";
    object      phi;
}
// * * * * * * * * * * * * * * * * * * * * * * * * * * * * * * * * * * * * * //

dimensions      [0 3 -1 0 0 0 0];

internalField   nonuniform List<scalar> 
42870
(
2.9770554e-08
9.9456561e-09
-3.9716211e-08
2.056099e-08
9.2095646e-09
1.4207193e-08
6.3537968e-09
1.0639467e-08
3.5677259e-09
8.8228407e-09
1.8166265e-09
7.8251959e-09
9.9764478e-10
7.1956204e-09
6.2957557e-10
6.7342259e-09
4.6139448e-10
6.3576238e-09
3.7660205e-10
6.0343338e-09
3.2329001e-10
5.7524547e-09
2.8187913e-10
5.5056208e-09
2.4683392e-10
5.2884002e-09
2.1722064e-10
5.0957817e-09
1.9261849e-10
4.9234771e-09
1.7230457e-10
4.7680405e-09
1.554366e-10
4.6267888e-09
1.4125167e-10
4.4976295e-09
1.2915937e-10
4.378907e-09
1.1872244e-10
4.2692789e-09
1.0962811e-10
4.1676398e-09
1.016391e-10
4.073062e-09
9.4577805e-11
3.9847637e-09
8.8298343e-11
3.9020758e-09
8.2687843e-11
3.8244274e-09
7.7648464e-11
3.7513229e-09
7.3104441e-11
3.6823355e-09
6.8987412e-11
3.61709e-09
6.5245521e-11
3.5552603e-09
6.1829719e-11
3.4965563e-09
5.8703994e-11
3.4407242e-09
5.5832138e-11
3.3875354e-09
5.3188813e-11
3.3367889e-09
5.0746486e-11
3.2883017e-09
4.848716e-11
3.2419124e-09
4.6389276e-11
3.1974724e-09
4.4440019e-11
3.1548504e-09
4.2622054e-11
3.113924e-09
4.0926335e-11
3.0745855e-09
3.9338547e-11
3.036733e-09
3.7852443e-11
3.0002771e-09
3.6455908e-11
2.9651323e-09
3.5144827e-11
2.9312236e-09
3.3908703e-11
2.8984785e-09
3.2745076e-11
2.8668339e-09
3.164464e-11
2.8362276e-09
3.0606252e-11
2.8066062e-09
2.9621478e-11
2.7779159e-09
2.8690248e-11
2.7501112e-09
2.7804761e-11
2.7231453e-09
2.6965837e-11
2.6969792e-09
2.6166126e-11
2.671572e-09
2.5407209e-11
2.6468899e-09
2.468204e-11
2.6228971e-09
2.3992867e-11
2.5995642e-09
2.3332831e-11
2.5768594e-09
2.2704776e-11
2.5547575e-09
2.2101935e-11
2.5332298e-09
2.15277e-11
2.5122545e-09
2.0975317e-11
2.4918058e-09
2.0448694e-11
2.4718648e-09
1.9941018e-11
2.4524081e-09
1.9456693e-11
2.4334193e-09
1.8988786e-11
2.4148771e-09
1.854219e-11
2.3967673e-09
1.8109792e-11
2.3790703e-09
1.7696974e-11
2.3617739e-09
1.7296392e-11
2.34486e-09
1.6913921e-11
2.3283181e-09
1.6541938e-11
2.3121313e-09
1.6186826e-11
2.2962906e-09
1.5840628e-11
2.2807804e-09
1.5510256e-11
2.265593e-09
1.5187373e-11
2.2507135e-09
1.4879442e-11
2.2361358e-09
1.4577697e-11
2.2218457e-09
1.4290179e-11
2.207838e-09
1.4007642e-11
2.1940993e-09
1.3738746e-11
2.1806256e-09
1.3473706e-11
2.1674037e-09
1.322184e-11
2.1544309e-09
1.2972774e-11
2.1416944e-09
1.2736524e-11
2.1291924e-09
1.2502067e-11
2.1169122e-09
1.2280172e-11
2.1048531e-09
1.2059103e-11
2.0930026e-09
1.1850435e-11
2.081361e-09
1.1641654e-11
2.0699158e-09
1.1445203e-11
2.0586681e-09
1.1247718e-11
2.0476055e-09
1.1062577e-11
2.03673e-09
1.0875491e-11
2.0260291e-09
1.0700847e-11
2.0155058e-09
1.0523344e-11
2.0051473e-09
1.0358461e-11
1.9949575e-09
1.0189801e-11
1.9849235e-09
1.0034017e-11
1.97505e-09
9.8735224e-12
1.9653237e-09
9.7262417e-12
1.9557504e-09
9.5732922e-12
1.9463165e-09
9.4339753e-12
1.9370285e-09
9.2880004e-12
1.9278723e-09
9.1561605e-12
1.9188557e-09
9.0166354e-12
1.9099638e-09
8.8918335e-12
1.9012055e-09
8.7582723e-12
1.8925654e-09
8.640111e-12
1.8840534e-09
8.5120627e-12
1.8756532e-09
8.4001841e-12
1.867376e-09
8.2772292e-12
1.8592046e-09
8.1713118e-12
1.8511516e-09
8.0530577e-12
1.8431988e-09
7.9528123e-12
1.8353599e-09
7.8388896e-12
1.8276158e-09
7.7440573e-12
1.8199817e-09
7.6341185e-12
1.8124372e-09
7.5444699e-12
1.8049991e-09
7.4381859e-12
1.7976455e-09
7.3535178e-12
1.790395e-09
7.2505743e-12
1.7832242e-09
7.1707082e-12
1.7761534e-09
7.0708044e-12
1.7691579e-09
6.9955866e-12
1.7622594e-09
6.8984335e-12
1.7554317e-09
6.8277326e-12
1.7486986e-09
6.73305e-12
1.7420319e-09
6.6667574e-12
1.7354576e-09
6.5742721e-12
1.7289453e-09
6.5123011e-12
1.7225236e-09
6.421744e-12
1.7161595e-09
6.3640278e-12
1.7098844e-09
6.2751343e-12
1.7036628e-09
6.221629e-12
1.6975286e-09
6.134136e-12
1.6914438e-09
6.0848194e-12
1.6854453e-09
5.9984622e-12
1.679492e-09
5.9533327e-12
1.6736241e-09
5.8678448e-12
1.6677972e-09
5.8269233e-12
1.6620552e-09
5.7420332e-12
1.6563498e-09
5.7053629e-12
1.650729e-09
5.6207933e-12
1.6451406e-09
5.5884432e-12
1.6396367e-09
5.5039074e-12
1.6341607e-09
5.4759713e-12
1.6287695e-09
5.3911708e-12
1.6234018e-09
5.367768e-12
1.6181194e-09
5.282392e-12
1.6128557e-09
5.2636714e-12
1.6076783e-09
5.1773915e-12
1.6025148e-09
5.1635336e-12
1.5974388e-09
5.0760017e-12
1.5923715e-09
5.0672203e-12
1.5873935e-09
4.978066e-12
1.5824188e-09
4.974612e-12
1.5775354e-09
4.8834382e-12
1.5726498e-09
4.8856041e-12
1.5678578e-09
4.7919816e-12
1.5630577e-09
4.8001047e-12
1.5583541e-09
4.7035673e-12
1.5536361e-09
4.7180351e-12
1.549018e-09
4.6180759e-12
1.5443787e-09
4.639332e-12
1.5398433e-09
4.5353969e-12
1.5352793e-09
4.5639508e-12
1.5308239e-09
4.455429e-12
1.526332e-09
4.4918635e-12
1.5219539e-09
4.3780781e-12
1.5175309e-09
4.4230584e-12
1.5132276e-09
4.3032574e-12
1.50887e-09
4.3575458e-12
1.5046392e-09
4.2308869e-12
1.5003438e-09
4.2953574e-12
1.4961829e-09
4.160897e-12
1.4919463e-09
4.2365582e-12
1.4878531e-09
4.0932285e-12
1.4836719e-09
4.1812435e-12
1.479644e-09
4.027827e-12
1.4755145e-09
4.1295433e-12
1.4715498e-09
3.96465e-12
1.4674682e-09
4.0816446e-12
1.4635645e-09
3.9036636e-12
1.4595267e-09
4.037798e-12
1.4556818e-09
3.8448507e-12
1.4516835e-09
3.9983365e-12
1.4478953e-09
3.7882049e-12
1.4439316e-09
3.9637133e-12
1.4401978e-09
3.7337403e-12
1.4362633e-09
3.934559e-12
1.4325818e-09
3.6814929e-12
1.42867e-09
3.9117513e-12
1.4250385e-09
3.6315146e-12
1.4211419e-09
3.8966136e-12
1.417558e-09
3.5838856e-12
1.4136667e-09
3.8913058e-12
1.4101279e-09
3.5387755e-12
1.4062278e-09
3.900135e-12
1.4027303e-09
3.4974397e-12
1.3987922e-09
3.9380944e-12
1.3953165e-09
3.4758038e-12
4.4536814e-12
4.1944519e-08
1.0465748e-08
-4.2464611e-08
3.8698259e-08
1.2455825e-08
3.4615606e-08
1.043645e-08
3.0799608e-08
7.3837243e-09
2.7651711e-08
4.9645227e-09
2.5118376e-08
3.53098e-09
2.3094188e-08
2.6537636e-09
2.1480345e-08
2.0752375e-09
2.0180152e-08
1.6767949e-09
1.9107526e-08
1.3959165e-09
1.8199277e-08
1.190128e-09
1.7414091e-08
1.0320198e-09
1.6725077e-08
9.0623499e-10
1.6113714e-08
8.0398151e-10
1.5566364e-08
7.1965472e-10
1.5072519e-08
6.4928144e-10
1.4623914e-08
5.8985682e-10
1.4213961e-08
5.391117e-10
1.3837359e-08
4.9532476e-10
1.348978e-08
4.5720747e-10
1.3167655e-08
4.237641e-10
1.2868002e-08
3.9423018e-10
1.2588313e-08
3.6798764e-10
1.2326451e-08
3.4454996e-10
1.2080591e-08
3.2350845e-10
1.1849157e-08
3.0453799e-10
1.1630788e-08
2.8735706e-10
1.1424291e-08
2.7174232e-10
1.1228626e-08
2.5749406e-10
1.1042875e-08
2.4445548e-10
1.0866226e-08
2.3248095e-10
1.0697957e-08
2.2145821e-10
1.0537425e-08
2.1127818e-10
1.0384053e-08
2.0185921e-10
1.0237325e-08
1.9311748e-10
1.0096772e-08
1.8499285e-10
9.9619746e-09
1.7741946e-10
9.8325482e-09
1.7035274e-10
9.7081471e-09
1.6373971e-10
9.5884522e-09
1.5754728e-10
9.4731762e-09
1.5173198e-10
9.3620516e-09
1.4626935e-10
9.2548373e-09
1.4112298e-10
9.1513074e-09
1.3627503e-10
9.0512577e-09
1.3169438e-10
8.9544955e-09
1.2736836e-10
8.8608472e-09
1.2326987e-10
8.7701471e-09
1.1939033e-10
8.6822461e-09
1.1570568e-10
8.5970013e-09
1.1221065e-10
8.514284e-09
1.0888349e-10
8.4339695e-09
1.0572168e-10
8.3559463e-09
1.0270518e-10
8.2801054e-09
9.9833769e-11
8.2063496e-09
9.7088697e-11
8.1345826e-09
9.4471717e-11
8.0647196e-09
9.1964995e-11
7.9966752e-09
8.957202e-11
7.930375e-09
8.727558e-11
7.8657429e-09
8.5080719e-11
7.8027134e-09
8.2970604e-11
7.7412183e-09
8.0951705e-11
7.6811998e-09
7.9007353e-11
7.6225966e-09
7.7145359e-11
7.5653574e-09
7.5349035e-11
7.5094269e-09
7.3627474e-11
7.4547594e-09
7.1963808e-11
7.401305e-09
7.0368375e-11
7.3490229e-09
6.8823984e-11
7.2978675e-09
6.7342207e-11
7.2478028e-09
6.5905389e-11
7.1987867e-09
6.452635e-11
7.1507872e-09
6.3186835e-11
7.1037657e-09
6.1900936e-11
7.0576937e-09
6.0649673e-11
7.0125355e-09
5.944845e-11
6.9682657e-09
5.8277434e-11
6.924851e-09
5.7153399e-11
6.8822692e-09
5.6055527e-11
6.840489e-09
5.5002033e-11
6.7994908e-09
5.3970981e-11
6.7592452e-09
5.2982113e-11
6.719735e-09
5.2012237e-11
6.6809325e-09
5.1082712e-11
6.6428226e-09
5.0168953e-11
6.605379e-09
4.9294045e-11
6.5685888e-09
4.8431858e-11
6.5324266e-09
4.7607327e-11
6.4968817e-09
4.6792619e-11
6.4619297e-09
4.6014656e-11
6.4275614e-09
4.524373e-11
6.3937534e-09
4.4508901e-11
6.3604983e-09
4.3778405e-11
6.3277731e-09
4.3083611e-11
6.2955724e-09
4.2390504e-11
6.2638735e-09
4.1732944e-11
6.2326725e-09
4.1074459e-11
6.2019472e-09
4.0451597e-11
6.1716953e-09
3.9825203e-11
6.1418945e-09
3.9234739e-11
6.1125444e-09
3.8638121e-11
6.0836226e-09
3.8077969e-11
6.0551302e-09
3.7509005e-11
6.0270448e-09
3.6977269e-11
5.999369e-09
3.6434005e-11
5.9720802e-09
3.5928963e-11
5.9451826e-09
3.5409596e-11
5.9186531e-09
3.4929679e-11
5.8924978e-09
3.4432543e-11
5.8666928e-09
3.3976329e-11
5.841246e-09
3.3499877e-11
5.8161327e-09
3.3066068e-11
5.7913628e-09
3.2608859e-11
5.7669105e-09
3.219628e-11
5.7427877e-09
3.175697e-11
5.7189676e-09
3.1364557e-11
5.6954639e-09
3.0941888e-11
5.6722487e-09
3.0568676e-11
5.6493378e-09
3.0161464e-11
5.626702e-09
2.9806581e-11
5.6043591e-09
2.9413708e-11
5.5822783e-09
2.9076372e-11
5.5604799e-09
2.8696781e-11
5.5389314e-09
2.8376291e-11
5.5176554e-09
2.8008974e-11
5.4966175e-09
2.7704709e-11
5.475843e-09
2.7348705e-11
5.4552952e-09
2.7060119e-11
5.4350025e-09
2.6714498e-11
5.4149254e-09
2.6441113e-11
5.3950955e-09
2.6104983e-11
5.3754707e-09
2.5846393e-11
5.356086e-09
2.5518887e-11
5.336896e-09
2.5274757e-11
5.3179395e-09
2.4955024e-11
5.2991677e-09
2.4725082e-11
5.2806233e-09
2.4412287e-11
5.2622539e-09
2.4196328e-11
5.2441063e-09
2.3889643e-11
5.2261241e-09
2.3687527e-11
5.2083587e-09
2.338613e-11
5.1907494e-09
2.3197789e-11
5.1733525e-09
2.2900851e-11
5.1561021e-09
2.2726283e-11
5.1390603e-09
2.2432967e-11
5.1221559e-09
2.2272241e-11
5.1054566e-09
2.1981696e-11
5.0888853e-09
2.1834958e-11
5.0725163e-09
2.1546311e-11
5.0562661e-09
2.1413785e-11
5.0402159e-09
2.1126131e-11
5.024275e-09
2.1008126e-11
5.0085326e-09
2.0720528e-11
4.9928897e-09
2.0617441e-11
4.9774442e-09
2.0328914e-11
4.9620886e-09
2.0241242e-11
4.9469298e-09
1.9950747e-11
4.9318508e-09
1.9879092e-11
4.9169688e-09
1.9585524e-11
4.9021563e-09
1.9530602e-11
4.8875416e-09
1.9232784e-11
4.8729854e-09
1.9195441e-11
4.8586287e-09
1.8892108e-11
4.8443193e-09
1.8873336e-11
4.8302116e-09
1.8563119e-11
4.8161394e-09
1.8564071e-11
4.802272e-09
1.8245479e-11
4.7884276e-09
1.8267487e-11
4.7747919e-09
1.793889e-11
4.761166e-09
1.7983498e-11
4.7477537e-09
1.7643099e-11
4.734337e-09
1.7712086e-11
4.72114e-09
1.7357906e-11
4.7079232e-09
1.745333e-11
4.6949333e-09
1.7083165e-11
4.6819071e-09
1.72074e-11
4.6691161e-09
1.6818783e-11
4.6562711e-09
1.6974579e-11
4.643671e-09
1.6564745e-11
4.6309973e-09
1.6755307e-11
4.6185798e-09
1.6321121e-11
4.6060674e-09
1.6550201e-11
4.5938242e-09
1.6088102e-11
4.5814624e-09
1.6360096e-11
4.5693846e-09
1.586601e-11
4.5571622e-09
1.6186142e-11
4.5452405e-09
1.5655389e-11
4.5331451e-09
1.6029924e-11
4.5213695e-09
1.5457092e-11
4.5093877e-09
1.589361e-11
4.4977467e-09
1.5272452e-11
4.485863e-09
1.578031e-11
4.4743432e-09
1.5103721e-11
4.4625397e-09
1.5694736e-11
4.4511233e-09
1.4955251e-11
4.4393778e-09
1.5645607e-11
4.4280362e-09
1.4839081e-11
4.4163045e-09
1.5669689e-11
4.4049461e-09
1.4834183e-11
1.6753525e-11
4.4985345e-08
9.376039e-09
-4.3895636e-08
4.4926066e-08
1.2515104e-08
4.3804094e-08
1.1558421e-08
4.2100658e-08
9.0871609e-09
4.0236475e-08
6.8287054e-09
3.8381067e-08
5.3863882e-09
3.6586009e-08
4.4488212e-09
3.4904332e-08
3.7569149e-09
3.3367577e-08
3.2135496e-09
3.1978109e-08
2.7853843e-09
3.0723382e-08
2.444855e-09
2.9588121e-08
2.1672811e-09
2.8558322e-08
1.9360337e-09
2.7621639e-08
1.7406651e-09
2.6767e-08
1.5742936e-09
2.5984463e-08
1.4318179e-09
2.5265243e-08
1.3090772e-09
2.4601702e-08
1.2026527e-09
2.3987283e-08
1.1097437e-09
2.3416379e-08
1.0281112e-09
2.28842e-08
9.5594283e-10
2.2386638e-08
8.9179235e-10
2.1920158e-08
8.3446823e-10
2.1481698e-08
7.8300995e-10
2.1068599e-08
7.3660749e-10
2.0678535e-08
6.9460213e-10
2.0309466e-08
6.5642603e-10
1.9959591e-08
6.2161644e-10
1.9627321e-08
5.8976496e-10
1.9311236e-08
5.605396e-10
1.9010078e-08
5.3363953e-10
1.8722714e-08
5.0882204e-10
1.8448132e-08
4.8586054e-10
1.8185416e-08
4.6457471e-10
1.7933743e-08
4.4479029e-10
1.7692365e-08
4.2637144e-10
1.7460603e-08
4.0918164e-10
1.7237838e-08
3.9311756e-10
1.7023507e-08
3.7807024e-10
1.6817094e-08
3.6396047e-10
1.6618126e-08
3.5069982e-10
1.6426168e-08
3.3822731e-10
1.6240821e-08
3.2646999e-10
1.6061715e-08
3.1538084e-10
1.5888511e-08
3.0489873e-10
1.5720892e-08
2.9498749e-10
1.5558567e-08
2.8559509e-10
1.5401263e-08
2.7669395e-10
1.524873e-08
2.6823906e-10
1.5100731e-08
2.6020971e-10
1.4957048e-08
2.5256639e-10
1.4817475e-08
2.4529398e-10
1.4681823e-08
2.3835724e-10
1.4549912e-08
2.3174566e-10
1.4421573e-08
2.2542734e-10
1.4296649e-08
2.1939562e-10
1.4174993e-08
2.136212e-10
1.4056464e-08
2.0810071e-10
1.3940933e-08
2.0280683e-10
1.3828274e-08
1.9773904e-10
1.3718374e-08
1.9287152e-10
1.3611119e-08
1.8820627e-10
1.3506408e-08
1.8371853e-10
1.3404141e-08
1.7941257e-10
1.3304225e-08
1.7526437e-10
1.3206572e-08
1.7128028e-10
1.31111e-08
1.6743669e-10
1.3017726e-08
1.637419e-10
1.2926378e-08
1.6017249e-10
1.2836981e-08
1.5673859e-10
1.274947e-08
1.5341669e-10
1.2663777e-08
1.5021875e-10
1.2579843e-08
1.4712096e-10
1.2497607e-08
1.4413705e-10
1.2417014e-08
1.4124272e-10
1.2338009e-08
1.3845347e-10
1.2260542e-08
1.3574431e-10
1.2184563e-08
1.3313258e-10
1.2110026e-08
1.3059235e-10
1.2036885e-08
1.2814288e-10
1.1965099e-08
1.2575715e-10
1.1894625e-08
1.2345636e-10
1.1825425e-08
1.212122e-10
1.175746e-08
1.1904794e-10
1.1690695e-08
1.1693378e-10
1.1625094e-08
1.1489517e-10
1.1560625e-08
1.1290062e-10
1.1497254e-08
1.1097788e-10
1.1434954e-08
1.0909357e-10
1.137369e-08
1.0727791e-10
1.1313439e-08
1.0549538e-10
1.1254169e-08
1.0377886e-10
1.1195857e-08
1.0209044e-10
1.1138474e-08
1.0046589e-10
1.1082e-08
9.8864635e-11
1.1026408e-08
9.7325541e-11
1.0971677e-08
9.5805131e-11
1.0917783e-08
9.4345601e-11
1.0864708e-08
9.2900265e-11
1.0812428e-08
9.1514935e-11
1.0760926e-08
9.01394e-11
1.0710181e-08
8.8823393e-11
1.0660177e-08
8.7512832e-11
1.0610893e-08
8.6261706e-11
1.0562315e-08
8.5011685e-11
1.0514423e-08
8.3821383e-11
1.0467204e-08
8.2627822e-11
1.0420639e-08
8.1494642e-11
1.0374718e-08
8.035378e-11
1.032942e-08
7.9274339e-11
1.0284737e-08
7.8182698e-11
1.0240649e-08
7.7153901e-11
1.019715e-08
7.6108255e-11
1.0154219e-08
7.5127276e-11
1.0111851e-08
7.4124632e-11
1.0070027e-08
7.3188887e-11
1.0028742e-08
7.222646e-11
9.9879776e-09
7.1333588e-11
9.9477303e-09
7.0408771e-11
9.9079802e-09
6.9556612e-11
9.868727e-09
6.8666968e-11
9.8299498e-09
6.7853555e-11
9.7916498e-09
6.6996795e-11
9.7538057e-09
6.6220336e-11
9.7164204e-09
6.5394303e-11
9.6794719e-09
6.4653174e-11
9.6429648e-09
6.3855829e-11
9.6068763e-09
6.314856e-11
9.5712129e-09
6.2377965e-11
9.5359508e-09
6.1703225e-11
9.5010982e-09
6.0957539e-11
9.4666304e-09
6.0314148e-11
9.4325577e-09
5.9591609e-11
9.3988539e-09
5.8978516e-11
9.3655315e-09
5.8277429e-11
9.3325629e-09
5.7693711e-11
9.2999627e-09
5.7012441e-11
9.2677018e-09
5.6457299e-11
9.2357971e-09
5.5794262e-11
9.2042176e-09
5.5267017e-11
9.1729831e-09
5.4620665e-11
9.1420601e-09
5.4120764e-11
9.1114714e-09
5.3489579e-11
9.0811811e-09
5.3016589e-11
9.051215e-09
5.2399071e-11
9.0215345e-09
5.1952676e-11
8.9921689e-09
5.1347339e-11
8.9630765e-09
5.092735e-11
8.9342901e-09
5.0332706e-11
8.9057648e-09
4.9939063e-11
8.8775373e-09
4.9353612e-11
8.8495591e-09
4.8986383e-11
8.821871e-09
4.8408611e-11
8.7944204e-09
4.8068003e-11
8.7672529e-09
4.7496362e-11
8.7403114e-09
4.718273e-11
8.7136466e-09
4.6615626e-11
8.6871962e-09
4.6329478e-11
8.6610164e-09
4.5765263e-11
8.6350397e-09
4.550727e-11
8.6093283e-09
4.4944231e-11
8.5838085e-09
4.4715246e-11
8.558549e-09
4.4151592e-11
8.5334696e-09
4.395267e-11
8.5086462e-09
4.3386508e-11
8.4839914e-09
4.3218917e-11
8.4595886e-09
4.2648237e-11
8.4353426e-09
4.2513485e-11
8.4113453e-09
4.1936141e-11
8.3874928e-09
4.1836006e-11
8.3638862e-09
4.1249699e-11
8.340412e-09
4.1186255e-11
8.3171814e-09
4.0588519e-11
8.2940706e-09
4.0564185e-11
8.2712014e-09
3.9952346e-11
8.2484388e-09
3.9969919e-11
8.2259165e-09
3.9341078e-11
8.2034873e-09
3.9403791e-11
8.1812973e-09
3.8754811e-11
8.1591861e-09
3.8866416e-11
8.1373134e-09
3.8193884e-11
8.1155048e-09
3.8358711e-11
8.093934e-09
3.765895e-11
8.0724121e-09
3.7881969e-11
8.0511271e-09
3.7151043e-11
8.0298752e-09
3.7437999e-11
8.0088588e-09
3.6671808e-11
7.9878594e-09
3.7029304e-11
7.9670927e-09
3.6223753e-11
7.946327e-09
3.6659276e-11
7.9257887e-09
3.5810755e-11
7.9052364e-09
3.6332681e-11
7.8849009e-09
3.5439151e-11
7.864539e-09
3.6056639e-11
7.8443742e-09
3.5120116e-11
7.8241743e-09
3.58455e-11
7.8041361e-09
3.4877234e-11
7.7840274e-09
3.5778291e-11
7.7640261e-09
3.4835604e-11
3.7260266e-11
4.6708226e-08
8.4205638e-09
-4.5752751e-08
4.7418983e-08
1.1804348e-08
4.7560522e-08
1.1416882e-08
4.7200915e-08
9.4467681e-09
4.6552775e-08
7.4768456e-09
4.5745273e-08
6.1938901e-09
4.4815491e-08
5.3786026e-09
4.3808856e-08
4.7635505e-09
4.2773304e-08
4.2491012e-09
4.1740348e-08
3.81834e-09
4.0725662e-08
3.4595412e-09
3.9737597e-08
3.1553461e-09
3.878214e-08
2.8914911e-09
3.7863739e-08
2.6590654e-09
3.6985174e-08
2.452859e-09
3.6147612e-08
2.2693795e-09
3.5350951e-08
2.1057386e-09
3.4594205e-08
1.9593988e-09
3.3875836e-08
1.8281126e-09
3.3193985e-08
1.7099623e-09
3.2546634e-08
1.6032939e-09
3.1931713e-08
1.506713e-09
3.1347176e-08
1.4190056e-09
3.0791041e-08
1.3391446e-09
3.0261425e-08
1.2662234e-09
2.9756554e-08
1.1994729e-09
2.9274773e-08
1.1382073e-09
2.8814543e-08
1.0818463e-09
2.8374442e-08
1.0298665e-09
2.7953154e-08
9.8182714e-10
2.7549469e-08
9.3732486e-10
2.7162269e-08
8.9602199e-10
2.6790525e-08
8.5760422e-10
2.6433289e-08
8.2181062e-10
2.6089686e-08
7.8839328e-10
2.5758909e-08
7.571487e-10
2.5440212e-08
7.2787912e-10
2.5132905e-08
7.0042461e-10
2.4836349e-08
6.7462544e-10
2.4549955e-08
6.5035496e-10
2.4273172e-08
6.274827e-10
2.4005492e-08
6.0590777e-10
2.3746439e-08
5.8552237e-10
2.3495574e-08
5.6624573e-10
2.3252485e-08
5.4798782e-10
2.3016789e-08
5.3068373e-10
2.2788127e-08
5.1425744e-10
2.2566164e-08
4.9865669e-10
2.2350586e-08
4.8381663e-10
2.2141101e-08
4.6969513e-10
2.1937431e-08
4.5623627e-10
2.1739319e-08
4.434062e-10
2.154652e-08
4.3115616e-10
2.1358806e-08
4.1945912e-10
2.1175962e-08
4.0827209e-10
2.0997784e-08
3.9757365e-10
2.0824079e-08
3.8732553e-10
2.0654669e-08
3.7751102e-10
2.048938e-08
3.6809565e-10
2.0328052e-08
3.5906672e-10
2.0170531e-08
3.5039282e-10
2.0016673e-08
3.4206468e-10
1.9866338e-08
3.3405339e-10
1.9719398e-08
3.2635266e-10
1.9575727e-08
3.1893553e-10
1.9435209e-08
3.1179837e-10
1.9297729e-08
3.0491576e-10
1.9163185e-08
2.9828644e-10
1.9031471e-08
2.9188614e-10
1.8902494e-08
2.857158e-10
1.8776159e-08
2.7975198e-10
1.865238e-08
2.7399764e-10
1.8531071e-08
2.684299e-10
1.8412154e-08
2.6305361e-10
1.8295551e-08
2.5784619e-10
1.818119e-08
2.5281435e-10
1.8068999e-08
2.4793553e-10
1.7958913e-08
2.4321829e-10
1.7850866e-08
2.3863983e-10
1.7744798e-08
2.3421057e-10
1.7640648e-08
2.2990728e-10
1.7538362e-08
2.2574223e-10
1.7437883e-08
2.2169155e-10
1.7339161e-08
2.177694e-10
1.7242144e-08
2.1395107e-10
1.7146786e-08
2.1025271e-10
1.7053038e-08
2.066485e-10
1.696086e-08
2.0315669e-10
1.6870203e-08
1.9975016e-10
1.6781031e-08
1.9644937e-10
1.6693301e-08
1.9322564e-10
1.6606978e-08
1.9010182e-10
1.6522021e-08
1.8704741e-10
1.6438399e-08
1.8408782e-10
1.6356073e-08
1.8119048e-10
1.6275015e-08
1.7838357e-10
1.6195188e-08
1.7563216e-10
1.6116567e-08
1.7296741e-10
1.6039115e-08
1.7035176e-10
1.596281e-08
1.6781959e-10
1.5887619e-08
1.6533039e-10
1.5813521e-08
1.6292207e-10
1.5740483e-08
1.6055081e-10
1.5668486e-08
1.5825836e-10
1.5597501e-08
1.5599721e-10
1.5527509e-08
1.5381333e-10
1.5458481e-08
1.5165511e-10
1.5390403e-08
1.4957311e-10
1.5323245e-08
1.4751119e-10
1.5256995e-08
1.4552492e-10
1.5191624e-08
1.4355319e-10
1.5127121e-08
1.4165704e-10
1.506346e-08
1.3976983e-10
1.5000628e-08
1.3795862e-10
1.4938602e-08
1.361507e-10
1.4877371e-08
1.3441968e-10
1.4816912e-08
1.3268617e-10
1.4757214e-08
1.3103098e-10
1.4698256e-08
1.2936736e-10
1.4640028e-08
1.2778398e-10
1.4582509e-08
1.2618601e-10
1.4525692e-08
1.2467075e-10
1.4469554e-08
1.2313449e-10
1.4414091e-08
1.2168395e-10
1.4359279e-08
1.202057e-10
1.4305116e-08
1.1881679e-10
1.4251579e-08
1.1739307e-10
1.4198664e-08
1.1606292e-10
1.4146352e-08
1.1469046e-10
1.4094638e-08
1.1341646e-10
1.4043504e-08
1.1209218e-10
1.3992946e-08
1.1087194e-10
1.3942945e-08
1.0959291e-10
1.3893499e-08
1.0842428e-10
1.3844589e-08
1.0718773e-10
1.3796214e-08
1.0606873e-10
1.3748354e-08
1.0487201e-10
1.370101e-08
1.0380088e-10
1.3654163e-08
1.0264147e-10
1.3607814e-08
1.0161661e-10
1.3561942e-08
1.0049209e-10
1.3516551e-08
9.9512098e-11
1.347162e-08
9.8420126e-11
1.3427153e-08
9.7483787e-11
1.338313e-08
9.6422103e-11
1.3339554e-08
9.5528357e-11
1.3296407e-08
9.4494765e-11
1.3253692e-08
9.3642736e-11
1.3211389e-08
9.2635088e-11
1.3169504e-08
9.1824068e-11
1.3128018e-08
9.084026e-11
1.3086934e-08
9.0069713e-11
1.3046235e-08
8.910767e-11
1.3005926e-08
8.8377241e-11
1.2965987e-08
8.74349e-11
1.2926426e-08
8.6744419e-11
1.2887222e-08
8.5819723e-11
1.2848382e-08
8.5169203e-11
1.2809887e-08
8.4260085e-11
1.2771745e-08
8.3649733e-11
1.2733935e-08
8.2754119e-11
1.2696466e-08
8.2184349e-11
1.2659317e-08
8.1300139e-11
1.2622498e-08
8.0771596e-11
1.2585988e-08
7.9896646e-11
1.2549797e-08
7.9410204e-11
1.2513902e-08
7.854232e-11
1.2478317e-08
7.8099104e-11
1.2443017e-08
7.7236033e-11
1.2408015e-08
7.6837449e-11
1.2373288e-08
7.5976875e-11
1.233885e-08
7.5624615e-11
1.2304674e-08
7.4764171e-11
1.2270778e-08
7.4460266e-11
1.2237133e-08
7.3597501e-11
1.2203759e-08
7.3344322e-11
1.2170623e-08
7.2476739e-11
1.213775e-08
7.2277036e-11
1.2105102e-08
7.1402119e-11
1.207271e-08
7.125908e-11
1.2040529e-08
7.0374329e-11
1.2008596e-08
7.0291577e-11
1.1976861e-08
6.9394633e-11
1.1945366e-08
6.9376213e-11
1.1914052e-08
6.8464998e-11
1.1882975e-08
6.8515427e-11
1.1852058e-08
6.7588472e-11
1.1821375e-08
6.7712681e-11
1.1790829e-08
6.6769609e-11
1.1760516e-08
6.6972789e-11
1.1730311e-08
6.6015211e-11
1.1700341e-08
6.6302816e-11
1.1670445e-08
6.5335646e-11
1.1640787e-08
6.5714427e-11
1.161116e-08
6.4746555e-11
1.158177e-08
6.5235301e-11
1.1552375e-08
6.4272644e-11
1.1523142e-08
6.5010925e-11
1.1493902e-08
6.4075871e-11
6.6633352e-11
4.8508636e-08
7.6800473e-09
-4.7768119e-08
4.928655e-08
1.1026433e-08
4.972356e-08
1.0979872e-08
4.9836282e-08
9.3340459e-09
4.974966e-08
7.5634675e-09
4.9544992e-08
6.3985581e-09
4.923159e-08
5.6920049e-09
4.8820571e-08
5.1745698e-09
4.8337896e-08
4.7317762e-09
4.7807174e-08
4.349062e-09
4.7241586e-08
4.0251297e-09
4.6648521e-08
3.7484109e-09
4.6034529e-08
3.5054832e-09
4.5406356e-08
3.287238e-09
4.4770421e-08
3.0887945e-09
4.4132293e-08
2.9075072e-09
4.3496548e-08
2.7414835e-09
4.2866843e-08
2.5891034e-09
4.2246053e-08
2.4489029e-09
4.1636393e-08
2.3196227e-09
4.1039523e-08
2.2001638e-09
4.0456641e-08
2.0895948e-09
3.988856e-08
1.9870869e-09
3.933578e-08
1.8919247e-09
3.8798549e-08
1.8034544e-09
3.8276917e-08
1.7211042e-09
3.777078e-08
1.6443445e-09
3.7279916e-08
1.572711e-09
3.6804012e-08
1.5057704e-09
3.6342695e-08
1.4431436e-09
3.5895546e-08
1.3844739e-09
3.5462118e-08
1.3294503e-09
3.5041943e-08
1.2777786e-09
3.4634551e-08
1.2292027e-09
3.4239466e-08
1.1834787e-09
3.3856219e-08
1.1403953e-09
3.3484349e-08
1.0997498e-09
3.3123406e-08
1.061367e-09
3.2772954e-08
1.0250779e-09
3.2432572e-08
9.9073684e-10
3.2101853e-08
9.5820218e-10
3.1780408e-08
9.2735238e-10
3.1467862e-08
8.9806834e-10
3.116386e-08
8.7024812e-10
3.0868056e-08
8.4379121e-10
3.0580128e-08
8.1861168e-10
3.0299761e-08
7.9462438e-10
3.0026661e-08
7.7175652e-10
2.9760542e-08
7.4993567e-10
2.9501138e-08
7.2909983e-10
2.9248187e-08
7.0918721e-10
2.9001448e-08
6.901447e-10
2.8760685e-08
6.7191941e-10
2.8525678e-08
6.544656e-10
2.8296213e-08
6.3773788e-10
2.807209e-08
6.2169659e-10
2.7853113e-08
6.063027e-10
2.7639102e-08
5.9152165e-10
2.7429878e-08
5.7731978e-10
2.7225278e-08
5.6366679e-10
2.7025137e-08
5.5053363e-10
2.6829308e-08
5.3789355e-10
2.663764e-08
5.2572148e-10
2.6449999e-08
5.1399364e-10
2.6266246e-08
5.0268838e-10
2.608626e-08
4.9178446e-10
2.5909913e-08
4.8126316e-10
2.5737094e-08
4.7110539e-10
2.5567685e-08
4.6129499e-10
2.5401586e-08
4.518147e-10
2.5238687e-08
4.4265057e-10
2.5078898e-08
4.3378692e-10
2.4922116e-08
4.2521172e-10
2.4768259e-08
4.1691067e-10
2.4617232e-08
4.0887337e-10
2.446896e-08
4.0108675e-10
2.4323353e-08
3.9354181e-10
2.4180345e-08
3.862266e-10
2.4039851e-08
3.7913329e-10
2.3901811e-08
3.7225095e-10
2.3766146e-08
3.6557274e-10
2.3632799e-08
3.5908867e-10
2.3501698e-08
3.527927e-10
2.3372792e-08
3.4667575e-10
2.324601e-08
3.4073241e-10
2.3121309e-08
3.349545e-10
2.299862e-08
3.2933703e-10
2.2877904e-08
3.2387276e-10
2.2759097e-08
3.1855696e-10
2.2642163e-08
3.1338332e-10
2.2527042e-08
3.083472e-10
2.24137e-08
3.0344332e-10
2.2302081e-08
2.9866692e-10
2.2192155e-08
2.940138e-10
2.2083866e-08
2.8947893e-10
2.197719e-08
2.8505928e-10
2.1872073e-08
2.8074933e-10
2.1768493e-08
2.7654736e-10
2.1666398e-08
2.7244715e-10
2.1565769e-08
2.6844844e-10
2.1466555e-08
2.6454406e-10
2.1368742e-08
2.6073539e-10
2.1272279e-08
2.570141e-10
2.1177154e-08
2.5338336e-10
2.1083318e-08
2.4983343e-10
2.0990761e-08
2.4636951e-10
2.0899436e-08
2.4298014e-10
2.0809337e-08
2.3967281e-10
2.0720414e-08
2.3643405e-10
2.0632665e-08
2.3327392e-10
2.0546041e-08
2.3017658e-10
2.0460543e-08
2.2715498e-10
2.0376123e-08
2.2419055e-10
2.0292782e-08
2.2129948e-10
2.0210472e-08
2.1846009e-10
2.01292e-08
2.1569218e-10
2.0048916e-08
2.1297051e-10
1.9969628e-08
2.1031895e-10
1.9891287e-08
2.0770822e-10
1.9813904e-08
2.0516671e-10
1.9737429e-08
2.0266059e-10
1.9661877e-08
2.002233e-10
1.9587196e-08
1.9781589e-10
1.9513402e-08
1.9547744e-10
1.9440444e-08
1.9316324e-10
1.9368343e-08
1.9091865e-10
1.9297043e-08
1.8869252e-10
1.9226569e-08
1.8653717e-10
1.9156865e-08
1.8439427e-10
1.9087958e-08
1.8232391e-10
1.901979e-08
1.8025971e-10
1.8952392e-08
1.782704e-10
1.8885704e-08
1.7628066e-10
1.8819759e-08
1.7436876e-10
1.8754498e-08
1.7244946e-10
1.8689955e-08
1.7061163e-10
1.8626068e-08
1.68759e-10
1.8562876e-08
1.6699214e-10
1.8500315e-08
1.652026e-10
1.8438428e-08
1.635039e-10
1.8377146e-08
1.6177405e-10
1.8316517e-08
1.6014092e-10
1.825647e-08
1.5846756e-10
1.8197056e-08
1.5689763e-10
1.81382e-08
1.552777e-10
1.807996e-08
1.5376885e-10
1.8022255e-08
1.5219942e-10
1.7965148e-08
1.5074973e-10
1.7908555e-08
1.4922802e-10
1.7852544e-08
1.4783578e-10
1.7797025e-08
1.4635912e-10
1.7742072e-08
1.4502283e-10
1.7687591e-08
1.4358865e-10
1.7633661e-08
1.4230701e-10
1.7580183e-08
1.4091284e-10
1.7527242e-08
1.3968477e-10
1.7474734e-08
1.3832821e-10
1.742275e-08
1.3715282e-10
1.7371179e-08
1.3583158e-10
1.732012e-08
1.3470817e-10
1.7269455e-08
1.3342002e-10
1.7219291e-08
1.3234812e-10
1.71695e-08
1.310909e-10
1.7120201e-08
1.3007025e-10
1.7071256e-08
1.2884187e-10
1.7022794e-08
1.2787244e-10
1.6974665e-08
1.2667089e-10
1.6927011e-08
1.2575285e-10
1.6879671e-08
1.2457618e-10
1.6832799e-08
1.2370996e-10
1.6786219e-08
1.2255633e-10
1.6740101e-08
1.2174258e-10
1.6694255e-08
1.2061028e-10
1.6648866e-08
1.1984993e-10
1.6603726e-08
1.1873736e-10
1.6559038e-08
1.1803159e-10
1.6514578e-08
1.1693736e-10
1.6470567e-08
1.1628762e-10
1.6426759e-08
1.1521063e-10
1.6383399e-08
1.1461864e-10
1.6340215e-08
1.1355818e-10
1.6297481e-08
1.1302596e-10
1.6254894e-08
1.119819e-10
1.6212758e-08
1.1151166e-10
1.6170738e-08
1.1048467e-10
1.6129175e-08
1.1007895e-10
1.6087693e-08
1.0907087e-10
1.6046673e-08
1.0873259e-10
1.6005695e-08
1.0774686e-10
1.5965189e-08
1.0747959e-10
1.5924682e-08
1.0652163e-10
1.5884654e-08
1.0633107e-10
1.5844582e-08
1.054076e-10
1.5804989e-08
1.0530718e-10
1.5765316e-08
1.0442017e-10
1.5726094e-08
1.0445656e-10
1.5686786e-08
1.0358051e-10
1.5647807e-08
1.039898e-10
1.5608773e-08
1.0311052e-10
1.0545449e-10
5.0434274e-08
7.1052693e-09
-4.9859496e-08
5.1196542e-08
1.0264165e-08
5.1670461e-08
1.0505953e-08
5.1882193e-08
9.1223137e-09
5.1956831e-08
7.4888296e-09
5.1969959e-08
6.3854306e-09
5.1925599e-08
5.7363645e-09
5.1817589e-08
5.2825803e-09
5.1655495e-08
4.8938695e-09
5.1453954e-08
4.5506035e-09
5.1220414e-08
4.2586694e-09
5.0956584e-08
4.0122408e-09
5.0663386e-08
3.7986813e-09
5.0342933e-08
3.6076908e-09
4.9998294e-08
3.4334334e-09
4.9632835e-08
3.2729663e-09
4.9249826e-08
3.1244929e-09
4.8852325e-08
2.9866043e-09
4.8443163e-08
2.858065e-09
4.8024946e-08
2.7378392e-09
4.7600048e-08
2.6250622e-09
4.7170607e-08
2.5190357e-09
4.6738524e-08
2.4191697e-09
4.6305476e-08
2.3249726e-09
4.587292e-08
2.2360108e-09
4.5442115e-08
2.1519087e-09
4.5014134e-08
2.0723255e-09
4.4589887e-08
1.9969586e-09
4.4170128e-08
1.9255295e-09
4.3755485e-08
1.857786e-09
4.3346464e-08
1.7934949e-09
4.2943473e-08
1.7324413e-09
4.2546825e-08
1.6744266e-09
4.2156763e-08
1.6192651e-09
4.1773455e-08
1.5667864e-09
4.1397022e-08
1.516828e-09
4.1027529e-08
1.4692435e-09
4.0665006e-08
1.4238899e-09
4.0309443e-08
1.380641e-09
3.9960809e-08
1.3393704e-09
3.9619042e-08
1.2999695e-09
3.9284068e-08
1.2623262e-09
3.8955789e-08
1.2263472e-09
3.8634105e-08
1.1919326e-09
3.8318893e-08
1.1590026e-09
3.8010037e-08
1.1274676e-09
3.7707401e-08
1.0972601e-09
3.7410859e-08
1.068299e-09