/*--------------------------------*- C++ -*----------------------------------*\
| =========                 |                                                 |
| \\      /  F ield         | OpenFOAM: The Open Source CFD Toolbox           |
|  \\    /   O peration     | Version:  5.x                                   |
|   \\  /    A nd           | Web:      www.OpenFOAM.org                      |
|    \\/     M anipulation  |                                                 |
\*---------------------------------------------------------------------------*/
FoamFile
{
    version     2.0;
    format      ascii;
    class       volVectorField;
    location    "0.9";
    object      U;
}
// * * * * * * * * * * * * * * * * * * * * * * * * * * * * * * * * * * * * * //

dimensions      [0 1 -1 0 0 0 0];

internalField   nonuniform List<vector> 
21600
(
(0.4051728 0.012133453 0)
(0.28658234 0.010905355 0)
(0.1946289 0.0064222915 0)
(0.14037671 0.0024872431 0)
(0.11280758 0.0005997719 0)
(0.097465768 0.0001020592 0)
(0.088149233 2.6415798e-05 0)
(0.081853603 5.7575015e-05 0)
(0.077026416 9.762794e-05 0)
(0.072979096 0.00011626902 0)
(0.069456144 0.00011547451 0)
(0.06636396 0.0001054205 0)
(0.063643417 9.3703041e-05 0)
(0.06123776 8.3336562e-05 0)
(0.05909431 7.4782847e-05 0)
(0.05716804 6.7731587e-05 0)
(0.055423449 6.1801997e-05 0)
(0.053832519 5.6718206e-05 0)
(0.052373653 5.2293303e-05 0)
(0.051029176 4.8407155e-05 0)
(0.049785047 4.496952e-05 0)
(0.04862916 4.1915734e-05 0)
(0.047551766 3.918828e-05 0)
(0.046544121 3.6744413e-05 0)
(0.045599221 3.454288e-05 0)
(0.044710546 3.25541e-05 0)
(0.043872965 3.0747902e-05 0)
(0.043081484 2.9104169e-05 0)
(0.042332284 2.7600493e-05 0)
(0.041621439 2.6223299e-05 0)
(0.04094607 2.4955455e-05 0)
(0.040303017 2.3787887e-05 0)
(0.03969009 2.2707044e-05 0)
(0.039104684 2.1706994e-05 0)
(0.038545132 2.0776647e-05 0)
(0.038009241 1.9912324e-05 0)
(0.037495743 1.9104663e-05 0)
(0.037002755 1.8351651e-05 0)
(0.036529326 1.7645135e-05 0)
(0.036073804 1.6984372e-05 0)
(0.035635495 1.6362077e-05 0)
(0.035212923 1.5778505e-05 0)
(0.034805602 1.5226984e-05 0)
(0.034412191 1.4708571e-05 0)
(0.034032377 1.4217014e-05 0)
(0.033664921 1.3754038e-05 0)
(0.033309658 1.331367e-05 0)
(0.032965425 1.2898204e-05 0)
(0.032632184 1.2501833e-05 0)
(0.032308828 1.2127351e-05 0)
(0.031995432 1.1769031e-05 0)
(0.031690925 1.1430122e-05 0)
(0.031395485 1.1104902e-05 0)
(0.031108066 1.0797041e-05 0)
(0.030828938 1.0500765e-05 0)
(0.030557066 1.0220146e-05 0)
(0.030292808 9.9493034e-06 0)
(0.030035131 9.6927036e-06 0)
(0.029784476 9.4443095e-06 0)
(0.029539799 9.208983e-06 0)
(0.029301623 8.9804864e-06 0)
(0.029068889 8.7640816e-06 0)
(0.028842198 8.5532897e-06 0)
(0.028620464 8.3537825e-06 0)
(0.028404368 8.1588004e-06 0)
(0.028192794 7.9744406e-06 0)
(0.0279865 7.7936229e-06 0)
(0.02778433 7.6228904e-06 0)
(0.027587123 7.454802e-06 0)
(0.02739368 7.296371e-06 0)
(0.027204918 7.1397551e-06 0)
(0.027019589 6.9924654e-06 0)
(0.026838692 6.8462164e-06 0)
(0.026660922 6.7090492e-06 0)
(0.026487364 6.5721907e-06 0)
(0.026316649 6.4442482e-06 0)
(0.026149952 6.3159143e-06 0)
(0.025985835 6.196403e-06 0)
(0.025825565 6.0758231e-06 0)
(0.025667627 5.9640404e-06 0)
(0.025513387 5.8505264e-06 0)
(0.025361246 5.7458484e-06 0)
(0.025212671 5.6387839e-06 0)
(0.025065976 5.5406551e-06 0)
(0.024922735 5.4394854e-06 0)
(0.024781164 5.3474103e-06 0)
(0.024642951 5.2516347e-06 0)
(0.024506205 5.1651712e-06 0)
(0.024372738 5.0743364e-06 0)
(0.024240546 4.9930898e-06 0)
(0.024111566 4.9067834e-06 0)
(0.023983672 4.8303998e-06 0)
(0.023858939 4.7482454e-06 0)
(0.023735109 4.6764076e-06 0)
(0.023614402 4.5980607e-06 0)
(0.023494417 4.530486e-06 0)
(0.023377531 4.4556301e-06 0)
(0.02326119 4.3920656e-06 0)
(0.023147933 4.3204077e-06 0)
(0.023035046 4.260627e-06 0)
(0.022925243 4.1918949e-06 0)
(0.022815633 4.1356971e-06 0)
(0.022709119 4.0696384e-06 0)
(0.022602621 4.0168449e-06 0)
(0.022499244 3.9532228e-06 0)
(0.022395704 3.9036751e-06 0)
(0.02229532 3.8422667e-06 0)
(0.022194593 3.7958258e-06 0)
(0.02209707 3.7364208e-06 0)
(0.021999019 3.692966e-06 0)
(0.021904233 3.635364e-06 0)
(0.021808729 3.5947908e-06 0)
(0.021716566 3.5387994e-06 0)
(0.021623488 3.5010194e-06 0)
(0.021533837 3.4464538e-06 0)
(0.021443071 3.4113942e-06 0)
(0.021355833 3.3580759e-06 0)
(0.021267269 3.3256788e-06 0)
(0.02118235 3.2734326e-06 0)
(0.021095885 3.2436535e-06 0)
(0.021013197 3.1923067e-06 0)
(0.020928733 3.1651157e-06 0)
(0.020848193 3.114498e-06 0)
(0.020765637 3.0898791e-06 0)
(0.020687167 3.0398206e-06 0)
(0.02060643 3.017772e-06 0)
(0.02052996 2.9681016e-06 0)
(0.020450955 2.9486353e-06 0)
(0.020376418 2.8991791e-06 0)
(0.020299063 2.8823206e-06 0)
(0.020226397 2.8329014e-06 0)
(0.020150612 2.818693e-06 0)
(0.020079761 2.7691296e-06 0)
(0.020005469 2.7576284e-06 0)
(0.019936377 2.7077323e-06 0)
(0.019863506 2.699011e-06 0)
(0.019796125 2.6485861e-06 0)
(0.0197246 2.6427352e-06 0)
(0.019658885 2.5915752e-06 0)
(0.019588636 2.5887025e-06 0)
(0.019524545 2.536591e-06 0)
(0.019455504 2.536826e-06 0)
(0.019393 2.4835331e-06 0)
(0.019325097 2.4870262e-06 0)
(0.019264146 2.4323049e-06 0)
(0.019197315 2.4392285e-06 0)
(0.019137887 2.3828159e-06 0)
(0.01907206 2.3933684e-06 0)
(0.01901413 2.3349804e-06 0)
(0.018949239 2.3493883e-06 0)
(0.018892784 2.2887173e-06 0)
(0.018828764 2.3072378e-06 0)
(0.018773764 2.2439497e-06 0)
(0.018710546 2.266875e-06 0)
(0.018656989 2.2006048e-06 0)
(0.018594503 2.2282661e-06 0)
(0.018542378 2.1586134e-06 0)
(0.018480554 2.1913841e-06 0)
(0.018429854 2.117908e-06 0)
(0.01836862 2.1562101e-06 0)
(0.018319345 2.0784239e-06 0)
(0.018258625 2.1227338e-06 0)
(0.018210779 2.0400986e-06 0)
(0.018150494 2.0909584e-06 0)
(0.018104085 2.0028739e-06 0)
(0.018044154 2.0608977e-06 0)
(0.017999197 1.9666914e-06 0)
(0.017939531 2.0325756e-06 0)
(0.017896049 1.9314926e-06 0)
(0.017836555 2.0060311e-06 0)
(0.017794574 1.897218e-06 0)
(0.017735153 1.9813182e-06 0)
(0.01769471 1.8638093e-06 0)
(0.017635253 1.9585177e-06 0)
(0.017596395 1.8312101e-06 0)
(0.017536782 1.9377316e-06 0)
(0.017499564 1.7993565e-06 0)
(0.017439665 1.9190877e-06 0)
(0.017404156 1.7681797e-06 0)
(0.017343826 1.9027605e-06 0)
(0.017310108 1.7376023e-06 0)
(0.017249182 1.8889758e-06 0)
(0.017217357 1.7075397e-06 0)
(0.017155646 1.8780307e-06 0)
(0.017125838 1.6778827e-06 0)
(0.017063125 1.8703257e-06 0)
(0.017035486 1.6484932e-06 0)
(0.016971513 1.8664218e-06 0)
(0.016946232 1.6191771e-06 0)
(0.016880686 1.8671148e-06 0)
(0.016858008 1.5896224e-06 0)
(0.016790495 1.873651e-06 0)
(0.016770748 1.559285e-06 0)
(0.016700746 1.8881897e-06 0)
(0.016684394 1.5270628e-06 0)
(0.016611142 1.915436e-06 0)
(0.016598943 1.4905149e-06 0)
(0.016521073 1.9707194e-06 0)
(0.016514628 1.4568637e-06 0)
(0.016426992 2.5038443e-06 0)
(0.48430076 0.022535635 0)
(0.45685471 0.024514359 0)
(0.41445724 0.019498822 0)
(0.37040867 0.012617597 0)
(0.33188208 0.0073138774 0)
(0.29913897 0.0043275972 0)
(0.27267525 0.0027949233 0)
(0.2519528 0.0019946248 0)
(0.23565423 0.0015564212 0)
(0.22245311 0.0012942571 0)
(0.21139316 0.0011136242 0)
(0.20188882 0.00097262519 0)
(0.19358501 0.00085670088 0)
(0.18624574 0.00076068002 0)
(0.17969979 0.00068114719 0)
(0.17381386 0.00061488318 0)
(0.16848387 0.00055902556 0)
(0.16362594 0.00051133552 0)
(0.15917404 0.00047013779 0)
(0.15507349 0.00043421807 0)
(0.15128069 0.00040265072 0)
(0.14775812 0.00037473698 0)
(0.14447566 0.00034990532 0)
(0.14140638 0.00032771021 0)
(0.1385288 0.00030776901 0)
(0.13582289 0.00028978199 0)
(0.13327295 0.00027348219 0)
(0.13086369 0.00025866355 0)
(0.12858342 0.00024513486 0)
(0.12642012 0.00023275216 0)
(0.12436501 0.00022137473 0)
(0.1224084 0.00021090046 0)
(0.12054362 0.00020122278 0)
(0.11876269 0.00019226842 0)
(0.11706054 0.00018395439 0)
(0.11543046 0.00017622774 0)
(0.11386859 0.00016902224 0)
(0.11236917 0.00016229976 0)
(0.11092933 0.00015600607 0)
(0.10954399 0.00015011398 0)
(0.10821106 0.00014457806 0)
(0.10692603 0.00013937945 0)
(0.10568744 0.0001344792 0)
(0.10449116 0.00012986491 0)
(0.10333628 0.00012550244 0)
(0.10221899 0.00012138448 0)
(0.10113883 0.00011748048 0)
(0.1000922 0.00011378722 0)
(0.099079042 0.00011027681 0)
(0.098095933 0.00010694942 0)
(0.097143149 0.00010377908 0)
(0.096217382 0.00010076882 0)
(0.095319225 9.7894041e-05 0)
(0.094445437 9.5160231e-05 0)
(0.093596899 9.2543719e-05 0)
(0.0927704 9.005217e-05 0)
(0.091967094 8.766247e-05 0)
(0.091183768 8.5384258e-05 0)
(0.090421832 8.319467e-05 0)
(0.089678045 8.1105178e-05 0)
(0.088954066 7.9092908e-05 0)
(0.088246598 7.717107e-05 0)
(0.087557544 7.531655e-05 0)
(0.086883529 7.3544244e-05 0)
(0.086226698 7.183059e-05 0)
(0.085583577 7.019215e-05 0)
(0.084956552 6.8604726e-05 0)
(0.084342029 6.7086548e-05 0)
(0.083742639 6.5612608e-05 0)
(0.083154649 6.4202829e-05 0)
(0.082580942 6.2831223e-05 0)
(0.082017622 6.1519463e-05 0)
(0.081467831 6.0240403e-05 0)
(0.080927495 5.9017535e-05 0)
(0.080400021 5.7822393e-05 0)
(0.079881138 5.6680371e-05 0)
(0.079374528 5.556151e-05 0)
(0.078875704 5.4493218e-05 0)
(0.078388638 5.3443859e-05 0)
(0.077908601 5.2442982e-05 0)
(0.07743987 5.1457091e-05 0)
(0.076977457 5.0518011e-05 0)
(0.076525958 4.9590192e-05 0)
(0.076080103 4.8707896e-05 0)
(0.075644823 4.7833315e-05 0)
(0.075214544 4.700332e-05 0)
(0.074794554 4.6177628e-05 0)
(0.07437895 4.5395916e-05 0)
(0.073973394 4.4615193e-05 0)
(0.07357163 4.3878156e-05 0)
(0.073179721 4.3138859e-05 0)
(0.072791026 4.2443251e-05 0)
(0.072412035 4.174216e-05 0)
(0.072035695 4.1085054e-05 0)
(0.07166895 4.0419247e-05 0)
(0.071304302 3.9798001e-05 0)
(0.070949177 3.9164812e-05 0)
(0.070595605 3.8577043e-05 0)
(0.070251524 3.7974029e-05 0)
(0.069908452 3.7417578e-05 0)
(0.069574877 3.6842498e-05 0)
(0.069241769 3.6315412e-05 0)
(0.068918201 3.5766209e-05 0)
(0.068594556 3.5266722e-05 0)
(0.068280531 3.4741493e-05 0)
(0.067965877 3.4268006e-05 0)
(0.067660962 3.3764989e-05 0)
(0.067354859 3.3316053e-05 0)
(0.067058651 3.2833615e-05 0)
(0.066760683 3.2407923e-05 0)
(0.066472807 3.1944537e-05 0)
(0.066182584 3.154091e-05 0)
(0.065902688 3.1095146e-05 0)
(0.06561984 3.0712521e-05 0)
(0.065347597 3.0283038e-05 0)
(0.065071776 2.9920466e-05 0)
(0.06480688 2.9506e-05 0)
(0.064537754 2.9162633e-05 0)
(0.064279919 2.8761981e-05 0)
(0.064017176 2.8437064e-05 0)
(0.063766135 2.8049084e-05 0)
(0.063509475 2.7741955e-05 0)
(0.063264979 2.7365551e-05 0)
(0.063014118 2.7075634e-05 0)
(0.062775934 2.6709755e-05 0)
(0.0625306 2.6436557e-05 0)
(0.062298511 2.6080182e-05 0)
(0.062058443 2.5823293e-05 0)
(0.061832249 2.5475424e-05 0)
(0.061597195 2.5234507e-05 0)
(0.061376707 2.489417e-05 0)
(0.061146428 2.466897e-05 0)
(0.060931472 2.4335206e-05 0)
(0.060705733 2.4125546e-05 0)
(0.060496149 2.3797395e-05 0)
(0.060274724 2.3603175e-05 0)
(0.060070364 2.3279679e-05 0)
(0.059853032 2.3100875e-05 0)
(0.05965376 2.278107e-05 0)
(0.059440306 2.2617737e-05 0)
(0.059245998 2.2300641e-05 0)
(0.059036211 2.2152925e-05 0)
(0.058846755 2.1837534e-05 0)
(0.058640428 2.1705665e-05 0)
(0.058455723 2.1390944e-05 0)
(0.058252651 2.1275239e-05 0)
(0.058072608 2.0960116e-05 0)
(0.057872586 2.0860996e-05 0)
(0.057697128 2.0544347e-05 0)
(0.057499952 2.0462337e-05 0)
(0.057329014 2.0142981e-05 0)
(0.057134479 2.0078719e-05 0)
(0.056968008 1.9755406e-05 0)
(0.056775906 1.9709652e-05 0)
(0.056613862 1.9381052e-05 0)
(0.056423983 1.9354706e-05 0)
(0.056266338 1.9019387e-05 0)
(0.056078467 1.9013497e-05 0)
(0.055925206 1.8669916e-05 0)
(0.055739122 1.8685692e-05 0)
(0.055590246 1.8332179e-05 0)
(0.055405719 1.8371019e-05 0)
(0.055261243 1.8005756e-05 0)
(0.055078035 1.8069273e-05 0)
(0.054937992 1.7690266e-05 0)
(0.05475585 1.778031e-05 0)
(0.054620291 1.7385358e-05 0)
(0.054438949 1.7504047e-05 0)
(0.054307945 1.7090715e-05 0)
(0.05412712 1.7240483e-05 0)
(0.054000763 1.6806057e-05 0)
(0.05382015 1.6989695e-05 0)
(0.053698559 1.6531143e-05 0)
(0.053517828 1.6751877e-05 0)
(0.05340115 1.6265786e-05 0)
(0.05321994 1.6527331e-05 0)
(0.053108355 1.6009828e-05 0)
(0.052926268 1.631649e-05 0)
(0.052819995 1.5763166e-05 0)
(0.052636588 1.6119989e-05 0)
(0.052535891 1.5525766e-05 0)
(0.052350666 1.5938674e-05 0)
(0.052255867 1.5297674e-05 0)
(0.052068254 1.5773687e-05 0)
(0.051979743 1.5079015e-05 0)
(0.051789083 1.5626581e-05 0)
(0.05170734 1.4870062e-05 0)
(0.051512854 1.5499504e-05 0)
(0.051438479 1.4671271e-05 0)
(0.051239226 1.539544e-05 0)
(0.051172982 1.4483343e-05 0)
(0.050967784 1.5318812e-05 0)
(0.050910686 1.4307473e-05 0)
(0.050697995 1.5276666e-05 0)
(0.050651471 1.4146162e-05 0)
(0.05042907 1.5282487e-05 0)
(0.050395368 1.4010202e-05 0)
(0.050159507 1.5383932e-05 0)
(0.050142882 1.3995371e-05 0)
(0.049884574 1.7053836e-05 0)
(0.48500576 0.020562067 0)
(0.48876348 0.026123204 0)
(0.48430345 0.023583136 0)
(0.47044146 0.017965098 0)
(0.45157473 0.012980257 0)
(0.43042408 0.0097478398 0)
(0.40942181 0.0076798375 0)
(0.38989887 0.0062019337 0)
(0.37223902 0.005088952 0)
(0.35634364 0.0042539934 0)
(0.34199541 0.0036250953 0)
(0.32900576 0.0031400438 0)
(0.31722438 0.0027546879 0)
(0.30651799 0.0024416392 0)
(0.29676483 0.0021836689 0)
(0.28785023 0.001968706 0)
(0.27967282 0.0017875642 0)
(0.27214172 0.0016332182 0)
(0.2651807 0.0015003055 0)
(0.25872248 0.0013847922 0)
(0.25271187 0.0012835697 0)
(0.24709933 0.0011942528 0)
(0.24184477 0.0011149315 0)
(0.23691102 0.0010441038 0)
(0.23226847 0.00098052338 0)
(0.22788858 0.00092319684 0)
(0.22374916 0.00087127418 0)
(0.21982778 0.00082407582 0)
(0.21610763 0.00078100219 0)
(0.21257068 0.00074157612 0)
(0.2092041 0.00070536217 0)
(0.20599309 0.00067201797 0)
(0.20292785 0.00064121867 0)
(0.19999595 0.00061271413 0)
(0.19718993 0.00058625589 0)
(0.19449918 0.00056165853 0)
(0.19191803 0.00053872773 0)
(0.18943726 0.00051732484 0)
(0.18705267 0.00049729468 0)
(0.18475607 0.00047853295 0)
(0.18254445 0.00046091326 0)
(0.18041041 0.00044435711 0)
(0.17835194 0.00042875954 0)
(0.17636224 0.00041406179 0)
(0.17444013 0.00040017506 0)
(0.17257927 0.00038705593 0)
(0.17077921 0.00037462789 0)
(0.16903392 0.00036285962 0)
(0.16734359 0.00035168404 0)
(0.16570242 0.00034107955 0)
(0.16411118 0.00033098627 0)
(0.16256423 0.00032139056 0)
(0.16106283 0.00031223808 0)
(0.15960143 0.00030352181 0)
(0.15818179 0.00029519158 0)
(0.15679836 0.000287246 0)
(0.15545338 0.00027963802 0)
(0.15414125 0.00027237112 0)
(0.15286464 0.00026540051 0)
(0.1516179 0.00025873398 0)
(0.15040412 0.00025232827 0)
(0.14921752 0.00024619506 0)
(0.14806163 0.00024029204 0)
(0.14693049 0.00023463447 0)
(0.14582806 0.00022918047 0)
(0.14474821 0.00022394866 0)
(0.14369528 0.00021889714 0)
(0.14266295 0.00021404777 0)
(0.14165597 0.00020935822 0)
(0.14066776 0.0002048535 0)
(0.13970353 0.00020049049 0)
(0.13875638 0.00019629732 0)
(0.13783198 0.00019222974 0)
(0.13692312 0.00018831905 0)
(0.13603593 0.00018451949 0)
(0.13516284 0.00018086559 0)
(0.13431046 0.0001773098 0)
(0.13347082 0.00017389 0)
(0.13265107 0.00017055646 0)
(0.1318428 0.00016735057 0)
(0.13105368 0.00016422014 0)
(0.13027485 0.00016121022 0)
(0.12951454 0.00015826578 0)
(0.12876338 0.00015543579 0)
(0.1280302 0.00015266204 0)
(0.12730509 0.00014999761 0)
(0.1265975 0.00014738077 0)
(0.12589694 0.00014486903 0)
(0.12521353 0.00014239672 0)
(0.12453613 0.00014002608 0)
(0.12387559 0.0001376871 0)
(0.12322007 0.00013544712 0)
(0.12258119 0.00013323133 0)
(0.12194637 0.00013111257 0)
(0.12132803 0.00012901078 0)
(0.1207128 0.00012700471 0)
(0.12011396 0.00012500854 0)
(0.1195173 0.00012310743 0)
(0.118937 0.00012120924 0)
(0.11835795 0.00011940607 0)
(0.1177953 0.00011759888 0)
(0.11723297 0.00011588727 0)
(0.11668713 0.00011416467 0)
(0.11614068 0.00011253882 0)
(0.11561089 0.00011089493 0)
(0.11507952 0.00010934957 0)
(0.11456506 0.00010777896 0)
(0.11404804 0.00010630928 0)
(0.11354823 0.00010480694 0)
(0.11304488 0.00010340855 0)
(0.11255909 0.00010196985 0)
(0.11206874 0.00010063875 0)
(0.1115964 9.9259377e-05 0)
(0.11111844 9.7991929e-05 0)
(0.110659 9.6667871e-05 0)
(0.11019284 9.546077e-05 0)
(0.10974578 9.4188282e-05 0)
(0.10929087 9.3038515e-05 0)
(0.10885572 9.181408e-05 0)
(0.10841154 9.0718913e-05 0)
(0.10798785 8.9539228e-05 0)
(0.10755389 8.8496188e-05 0)
(0.10714126 8.735814e-05 0)
(0.10671704 8.6364991e-05 0)
(0.10631507 8.5265628e-05 0)
(0.10590013 8.4320369e-05 0)
(0.10550847 8.3256884e-05 0)
(0.10510238 8.235773e-05 0)
(0.10472069 8.1327434e-05 0)
(0.10432302 8.0472795e-05 0)
(0.10395099 7.9473114e-05 0)
(0.10356134 7.8661611e-05 0)
(0.10319867 7.7690066e-05 0)
(0.10281664 7.6920509e-05 0)
(0.10246308 7.5974684e-05 0)
(0.1020883 7.5246067e-05 0)
(0.1017436 7.4323613e-05 0)
(0.10137568 7.3635115e-05 0)
(0.10103961 7.2733723e-05 0)
(0.1006782 7.2084701e-05 0)
(0.10035057 7.1202093e-05 0)
(0.099995305 7.0592096e-05 0)
(0.099675917 6.9726005e-05 0)
(0.099326452 6.9154765e-05 0)
(0.099015149 6.8302921e-05 0)
(0.098671132 6.7770354e-05 0)
(0.09836777 6.6930475e-05 0)
(0.098028854 6.64367e-05 0)
(0.09773331 6.5606462e-05 0)
(0.097399148 6.5151806e-05 0)
(0.097111319 6.4328835e-05 0)
(0.096781563 6.3913834e-05 0)
(0.096501366 6.3095689e-05 0)
(0.096175663 6.2721114e-05 0)
(0.095903039 6.1905262e-05 0)
(0.09558103 6.1572133e-05 0)
(0.09531594 6.0755923e-05 0)
(0.094997258 6.0465519e-05 0)
(0.094739688 5.9646163e-05 0)
(0.094423955 5.9400053e-05 0)
(0.094173915 5.8574606e-05 0)
(0.09386074 5.8374678e-05 0)
(0.093618268 5.7540011e-05 0)
(0.093307241 5.7388511e-05 0)
(0.093072405 5.6541262e-05 0)
(0.092763095 5.6440828e-05 0)
(0.092535993 5.557737e-05 0)
(0.092227947 5.5531073e-05 0)
(0.092008711 5.4647475e-05 0)
(0.091701443 5.4658895e-05 0)
(0.091490247 5.3750868e-05 0)
(0.091183235 5.3824141e-05 0)
(0.090980296 5.2887e-05 0)
(0.090672975 5.3026924e-05 0)
(0.090478559 5.2055505e-05 0)
(0.090170313 5.2267615e-05 0)
(0.089984744 5.12562e-05 0)
(0.089674894 5.1546897e-05 0)
(0.089498563 5.0489153e-05 0)
(0.089186353 5.0865891e-05 0)
(0.089019733 4.9754737e-05 0)
(0.088704313 5.0226185e-05 0)
(0.088547971 4.9053721e-05 0)
(0.088228374 4.962996e-05 0)
(0.088082998 4.8387347e-05 0)
(0.087758108 4.908023e-05 0)
(0.087624537 4.7757628e-05 0)
(0.087293044 4.8581144e-05 0)
(0.087172313 4.7167678e-05 0)
(0.086832643 4.8138319e-05 0)
(0.086726064 4.6622378e-05 0)
(0.086376267 4.7759662e-05 0)
(0.086285545 4.6130037e-05 0)
(0.085923108 4.7456623e-05 0)
(0.085850579 4.5707094e-05 0)
(0.085472038 4.7249263e-05 0)
(0.08542113 4.5398507e-05 0)
(0.085021214 4.7244619e-05 0)
(0.084997194 4.5408207e-05 0)
(0.084567437 4.9963965e-05 0)
(0.48431473 0.017835461 0)
(0.49042477 0.02433542 0)
(0.497457 0.023345436 0)
(0.49888312 0.019096465 0)
(0.49460799 0.014929091 0)
(0.48638441 0.012195152 0)
(0.47625241 0.010413785 0)
(0.46546338 0.0090499513 0)
(0.45455146 0.0079133296 0)
(0.44369222 0.0069716597 0)
(0.43296545 0.0061984188 0)
(0.42245193 0.0055554758 0)
(0.4122365 0.0050092488 0)
(0.40238514 0.0045381113 0)
(0.39294269 0.0041290751 0)
(0.38392865 0.0037730115 0)
(0.37534887 0.0034621956 0)
(0.36719468 0.0031898622 0)
(0.35945366 0.002950154 0)
(0.35210558 0.0027381856 0)
(0.34513161 0.0025498604 0)
(0.33850811 0.0023818052 0)
(0.33221534 0.0022311758 0)
(0.32622997 0.0020956244 0)
(0.32053382 0.0019731434 0)
(0.31510543 0.0018620756 0)
(0.30992909 0.0017609849 0)
(0.30498564 0.0016686864 0)
(0.30026203 0.0015841352 0)
(0.29574132 0.0015064709 0)
(0.29141294 0.0014349189 0)
(0.28726192 0.001368845 0)
(0.28327986 0.0013076638 0)
(0.27945345 0.0012509007 0)
(0.27577617 0.0011981052 0)
(0.27223607 0.0011489176 0)
(0.26882824 0.0011029847 0)
(0.26554183 0.0010600308 0)
(0.26237331 0.0010197747 0)
(0.25931268 0.00098200327 0)
(0.25635764 0.00094648897 0)
(0.25349885 0.00091306589 0)
(0.25073505 0.00088154729 0)
(0.24805744 0.00085180347 0)
(0.24546568 0.00082367883 0)
(0.24295134 0.0007970719 0)
(0.24051493 0.00077185114 0)
(0.23814827 0.00074793732 0)
(0.23585265 0.0007252177 0)
(0.23362005 0.00070363079 0)
(0.23145245 0.00068307859 0)
(0.22934194 0.00066351396 0)
(0.22729115 0.00064485058 0)
(0.22529217 0.00062705307 0)
(0.22334828 0.0006100443 0)
(0.22145149 0.0005937987 0)
(0.2196057 0.00057824639 0)
(0.2178028 0.00056337006 0)
(0.21604729 0.00054910553 0)
(0.21433088 0.00053544257 0)
(0.21265866 0.00052232145 0)
(0.21102211 0.00050973809 0)
(0.20942692 0.00049763613 0)
(0.20786429 0.00048601699 0)
(0.2063405 0.00047482679 0)
(0.20484643 0.00046407188 0)
(0.20338898 0.00045370015 0)
(0.20195864 0.00044372245 0)
(0.20056293 0.00043408779 0)
(0.19919194 0.00042481127 0)
(0.19785383 0.00041584239 0)
(0.19653822 0.00040720032 0)
(0.19525393 0.00039883455 0)
(0.19399006 0.00039076819 0)
(0.19275616 0.00038295022 0)
(0.19154075 0.00037540766 0)
(0.19035409 0.00036808851 0)
(0.1891841 0.00036102373 0)
(0.18804182 0.00035415988 0)
(0.18691449 0.00034753196 0)
(0.18581396 0.00034108467 0)
(0.18472674 0.00033485712 0)
(0.18366554 0.00032879173 0)
(0.18261609 0.00032293192 0)
(0.18159199 0.00031721737 0)
(0.18057815 0.00031169604 0)
(0.17958911 0.00030630442 0)
(0.17860888 0.00030109528 0)
(0.17765301 0.00029600145 0)
(0.17670453 0.00029108081 0)
(0.17578008 0.00028626204 0)
(0.17486164 0.00028160852 0)
(0.17396699 0.00027704424 0)
(0.173077 0.00027263849 0)
(0.17221065 0.00026831003 0)
(0.17134762 0.00026413452 0)
(0.17050817 0.00026002491 0)
(0.16967071 0.00025606371 0)
(0.16885688 0.00025215744 0)
(0.16804369 0.00024839608 0)
(0.16725426 0.000244679 0)
(0.16646414 0.00024110429 0)
(0.165698 0.00023756344 0)
(0.1649298 0.00023416335 0)
(0.1641859 0.00023078684 0)
(0.16343856 0.00022755038 0)
(0.16271593 0.00022432727 0)
(0.16198843 0.0002212444 0)
(0.16128616 0.00021816462 0)
(0.16057757 0.00021522614 0)
(0.15989481 0.00021228037 0)
(0.15920422 0.00020947786 0)
(0.15854017 0.00020665748 0)
(0.15786675 0.00020398324 0)
(0.15722068 0.00020128026 0)
(0.15656362 0.00019872723 0)
(0.15593482 0.00019613421 0)
(0.15529336 0.00019369592 0)
(0.1546812 0.00019120594 0)
(0.15405461 0.00018887645 0)
(0.15345847 0.00018648302 0)
(0.15284607 0.00018425692 0)
(0.1522654 0.00018195398 0)
(0.15166652 0.00017982629 0)
(0.15110079 0.00017760815 0)
(0.1505148 0.00017557436 0)
(0.14996352 0.00017343565 0)
(0.1493898 0.00017149162 0)
(0.14885252 0.00016942726 0)
(0.1482905 0.00016756924 0)
(0.14776679 0.00016557442 0)
(0.1472159 0.00016379905 0)
(0.14670537 0.00016186919 0)
(0.14616506 0.00016017343 0)
(0.14566735 0.00015830414 0)
(0.14513708 0.00015668528 0)
(0.14465187 0.00015487238 0)
(0.14413113 0.00015332801 0)
(0.14365812 0.00015156746 0)
(0.14314639 0.0001500955 0)
(0.1426853 0.00014838336 0)
(0.14218208 0.00014698203 0)
(0.14173267 0.0001453145 0)
(0.14123747 0.0001439823 0)
(0.14079952 0.00014235566 0)
(0.14031185 0.00014109139 0)
(0.13988517 0.00013950197 0)
(0.13940454 0.00013830473 0)
(0.13898898 0.0001367489 0)
(0.13851489 0.0001356181 0)
(0.13811032 0.00013409225 0)
(0.13764228 0.00013302761 0)
(0.13724861 0.00013152811 0)
(0.13678611 0.00013052966 0)
(0.13640326 0.00012905287 0)
(0.1359458 0.00012812099 0)
(0.13557373 0.0001266632 0)
(0.13512079 0.00012579862 0)
(0.1347595 0.00012435603 0)
(0.13431054 0.00012355983 0)
(0.13396007 0.00012212857 0)
(0.13351452 0.00012140224 0)
(0.13317494 0.00011997829 0)
(0.13273222 0.00011932378 0)
(0.13240365 0.00011790296 0)
(0.13196314 0.00011732267 0)
(0.13164574 0.00011590061 0)
(0.13120679 0.00011539745 0)
(0.13090078 0.00011396954 0)
(0.13046269 0.00011354701 0)
(0.13016833 0.0001121084 0)
(0.12973036 0.00011177061 0)
(0.12944798 0.00011031617 0)
(0.12900932 0.00011006795 0)
(0.12873933 0.00010859223 0)
(0.1282991 0.00010843918 0)
(0.12804199 0.0001069364 0)
(0.12759922 0.00010688496 0)
(0.12735557 0.00010534902 0)
(0.12690917 0.00010540668 0)
(0.12667968 0.00010383115 0)
(0.12622846 0.00010400645 0)
(0.12601395 0.00010238471 0)
(0.12555654 0.00010268733 0)
(0.12535803 0.00010101271 0)
(0.12489286 0.00010145363 0)
(0.12471153 9.9719863e-05 0)
(0.12423679 0.00010031131 0)
(0.12407411 9.8513353e-05 0)
(0.12358764 9.9268455e-05 0)
(0.12344541 9.740425e-05 0)
(0.1229446 9.8336302e-05 0)
(0.12282511 9.641062e-05 0)
(0.12230669 9.7531503e-05 0)
(0.12221289 9.5563712e-05 0)
(0.12167268 9.6890899e-05 0)
(0.12160844 9.4921489e-05 0)
(0.12104091 9.6649067e-05 0)
(0.12101084 9.4716771e-05 0)
(0.12040979 9.9885923e-05 0)
(0.48571886 0.016050742 0)
(0.49005562 0.022583255 0)
(0.49782043 0.0223437 0)
(0.50336336 0.018866533 0)
(0.50487797 0.015207022 0)
(0.50313276 0.012810153 0)
(0.49964927 0.01132855 0)
(0.49538676 0.010222716 0)
(0.49067859 0.0092716055 0)
(0.4855717 0.0084493699 0)
(0.48007416 0.0077528604 0)
(0.47423113 0.0071571013 0)
(0.46812222 0.006633617 0)
(0.46182874 0.0061638613 0)
(0.45542763 0.0057385557 0)
(0.44897896 0.0053527821 0)
(0.44253567 0.0050026855 0)
(0.43613611 0.0046846365 0)
(0.4298152 0.0043951911 0)
(0.42359569 0.004131305 0)
(0.41749963 0.003890273 0)
(0.41153841 0.0036697548 0)
(0.40572493 0.0034676471 0)
(0.40006263 0.0032821125 0)
(0.39455828 0.0031114762 0)
(0.38921003 0.0029542787 0)
(0.38402086 0.0028091845 0)
(0.37898556 0.0026750369 0)
(0.37410495 0.0025507713 0)
(0.36937182 0.0024354714 0)
(0.36478594 0.0023282877 0)
(0.36033896 0.0022284939 0)
(0.3560303 0.0021354099 0)
(0.351851 0.0020484589 0)
(0.34780062 0.0019670938 0)
(0.34386987 0.0018908549 0)
(0.34005869 0.0018192991 0)
(0.33635769 0.0017520576 0)
(0.33276734 0.001688769 0)
(0.32927819 0.001629136 0)
(0.32589132 0.0015728615 0)
(0.3225973 0.001519705 0)
(0.31939786 0.0014694201 0)
(0.31628354 0.0014218112 0)
(0.31325675 0.0013766724 0)
(0.31030799 0.0013338439 0)
(0.30744036 0.0012931521 0)
(0.30464427 0.0012544659 0)
(0.30192352 0.0012176379 0)
(0.29926837 0.00118256 0)
(0.29668333 0.0011491062 0)
(0.29415848 0.0011171872 0)
(0.29169901 0.001086694 0)
(0.28929478 0.0010575531 0)
(0.28695169 0.0010296695 0)
(0.28465931 0.0010029824 0)
(0.28242423 0.0009774086 0)
(0.28023571 0.00095289787 0)
(0.27810106 0.00092937663 0)
(0.27600913 0.0009068036 0)
(0.27396799 0.00088511311 0)
(0.27196605 0.00086427153 0)
(0.2700121 0.00084421972 0)
(0.26809411 0.00082493058 0)
(0.26622163 0.00080635036 0)
(0.26438207 0.00078845764 0)
(0.26258579 0.0007712031 0)
(0.26081962 0.00075457031 0)
(0.25909474 0.00073851353 0)
(0.25739733 0.00072302078 0)
(0.25573945 0.00070804921 0)
(0.25410655 0.00069359087 0)
(0.25251162 0.00067960513 0)
(0.25093933 0.00066608777 0)
(0.24940363 0.00065299984 0)
(0.24788836 0.00064034061 0)
(0.24640847 0.00062807225 0)
(0.24494689 0.00061619742 0)
(0.24351964 0.00060467893 0)
(0.2421087 0.00059352272 0)
(0.24073118 0.00058269179 0)
(0.23936803 0.00057219535 0)
(0.23803755 0.00056199614 0)
(0.23671956 0.00055210669 0)
(0.23543362 0.00054248903 0)
(0.23415835 0.00053315909 0)
(0.23291463 0.00052407778 0)
(0.23167981 0.00051526456 0)
(0.23047617 0.0005066788 0)
(0.22927967 0.00049834367 0)
(0.22811412 0.00049021651 0)
(0.22695397 0.00048232448 0)
(0.22582464 0.00047462242 0)
(0.22469901 0.00046714177 0)
(0.22360418 0.00045983436 0)
(0.22251133 0.00045273625 0)
(0.22144938 0.00044579576 0)
(0.2203877 0.00043905394 0)
(0.21935713 0.00043245504 0)
(0.2183251 0.00042604557 0)
(0.21732451 0.00041976511 0)
(0.2163207 0.00041366613 0)
(0.21534878 0.0004076829 0)
(0.21437184 0.00040187443 0)
(0.21342737 0.00039616895 0)
(0.21247605 0.00039063265 0)
(0.21155787 0.00038518702 0)
(0.21063096 0.0003799061 0)
(0.20973801 0.00037470381 0)
(0.20883438 0.00036966285 0)
(0.20796565 0.00036468868 0)
(0.20708424 0.00035987349 0)
(0.20623879 0.00035511335 0)
(0.20537857 0.00035051089 0)
(0.20455552 0.00034595174 0)
(0.20371552 0.00034155003 0)
(0.20291406 0.00033717976 0)
(0.20209337 0.00033296773 0)
(0.20131272 0.00032877509 0)
(0.20051044 0.00032474256 0)
(0.19974989 0.00032071707 0)
(0.19896519 0.00031685464 0)
(0.19822406 0.00031298652 0)
(0.19745613 0.00030928555 0)
(0.1967338 0.00030556565 0)
(0.19598186 0.00030201816 0)
(0.19527775 0.00029843792 0)
(0.19454105 0.00029503658 0)
(0.19385461 0.00029158795 0)
(0.19313243 0.00028832599 0)
(0.19246317 0.00028500139 0)
(0.1917548 0.00028187264 0)
(0.19110225 0.00027866494 0)
(0.19040702 0.00027566373 0)
(0.18977076 0.00027256616 0)
(0.18908799 0.00026968729 0)
(0.18846764 0.00026669346 0)
(0.18779668 0.00026393221 0)
(0.18719187 0.00026103604 0)
(0.18653209 0.00025838812 0)
(0.18594252 0.00025558379 0)
(0.18529327 0.00025304536 0)
(0.18471865 0.00025032732 0)
(0.18407932 0.00024789494 0)
(0.18351941 0.00024525785 0)
(0.18288936 0.00024292846 0)
(0.18234395 0.00024036719 0)
(0.18172257 0.00023813817 0)
(0.18119149 0.00023564775 0)
(0.18057814 0.00023351681 0)
(0.18006125 0.00023109243 0)
(0.1794553 0.00022905771 0)
(0.1789525 0.00022669466 0)
(0.17835331 0.00022475467 0)
(0.17786455 0.00022244836 0)
(0.17727145 0.00022060202 0)
(0.17679672 0.00021834792 0)
(0.17620904 0.00021659454 0)
(0.17574836 0.00021438818 0)
(0.17516541 0.00021272748 0)
(0.17471886 0.00021056444 0)
(0.17413989 0.00020899655 0)
(0.1737076 0.00020687246 0)
(0.17313187 0.00020539801 0)
(0.17271402 0.00020330848 0)
(0.17214072 0.00020192853 0)
(0.17173756 0.00019986919 0)
(0.17116584 0.00019858531 0)
(0.17077767 0.00019655177 0)
(0.17020663 0.00019536606 0)
(0.16983383 0.00019335395 0)
(0.1692625 0.00019226905 0)
(0.16890554 0.00019027406 0)
(0.16833286 0.00018929322 0)
(0.1679923 0.00018731108 0)
(0.16741713 0.00018643818 0)
(0.16709363 0.00018446472 0)
(0.16651472 0.00018370427 0)
(0.16620905 0.00018173565 0)
(0.16562502 0.00018109287 0)
(0.16533812 0.00017912564 0)
(0.16474743 0.00017860642 0)
(0.16448037 0.00017663795 0)
(0.16388129 0.00017624872 0)
(0.16363536 0.00017427761 0)
(0.16302592 0.00017402532 0)
(0.16280264 0.00017205234 0)
(0.16218061 0.00017194422 0)
(0.16198178 0.00016997363 0)
(0.16134455 0.00017001668 0)
(0.16117233 0.00016805844 0)
(0.16051684 0.00016825959 0)
(0.16037383 0.00016633189 0)
(0.15969646 0.00016670244 0)
(0.15958578 0.00016482844 0)
(0.15888223 0.00016542248 0)
(0.15880747 0.00016358934 0)
(0.15807287 0.00016480456 0)
(0.15803739 0.00016291894 0)
(0.15726743 0.00016796802 0)
(0.48712424 0.014785547 0)
(0.49045748 0.021077021 0)
(0.49712102 0.021400248 0)
(0.50294357 0.018455555 0)