/*--------------------------------*- C++ -*----------------------------------*\
| =========                 |                                                 |
| \\      /  F ield         | OpenFOAM: The Open Source CFD Toolbox           |
|  \\    /   O peration     | Version:  5.x                                   |
|   \\  /    A nd           | Web:      www.OpenFOAM.org                      |
|    \\/     M anipulation  |                                                 |
\*---------------------------------------------------------------------------*/
FoamFile
{
    version     2.0;
    format      ascii;
    class       volScalarField;
    location    "0.2";
    object      p;
}
// * * * * * * * * * * * * * * * * * * * * * * * * * * * * * * * * * * * * * //

dimensions      [0 2 -2 0 0 0 0];

internalField   nonuniform List<scalar> 
21600
(
0.017977997
0.015516053
0.012157602
0.0093736239
0.0071770979
0.0052421374
0.0034177885
0.0017745297
0.00048397312
-0.00033165545
-0.00068542843
-0.00069627124
-0.00051272522
-0.00025560106
-1.6682355e-06
0.00021000093
0.00036739055
0.00047463873
0.00054282973
0.0005839022
0.00060783459
0.00062190445
0.00063090116
0.00063767082
0.00064370186
0.00064962489
0.00065558551
0.0006614933
0.00066717504
0.00067245742
0.00067720317
0.000681321
0.00068476301
0.00068751682
0.00068959648
0.00069103394
0.00069187182
0.00069215771
0.00069193985
0.00069126426
0.00069017296
0.00068870303
0.00068688639
0.00068475008
0.00068231683
0.00067960582
0.00067663322
0.00067341278
0.00066995623
0.0006662737
0.00066237397
0.00065826471
0.0006539526
0.00064944354
0.00064474275
0.00063985499
0.00063478476
0.00062953646
0.00062411459
0.00061852379
0.00061276876
0.00060685396
0.0006007832
0.00059455921
0.00058818341
0.00058165591
0.00057497578
0.00056814172
0.00056115271
0.00055400874
0.00054671109
0.00053926236
0.00053166588
0.00052392492
0.00051604183
0.00050801747
0.00049985132
0.00049154222
0.0004830896
0.00047449467
0.00046576097
0.00045689401
0.00044789992
0.00043878358
0.00042954705
0.00042018926
0.00041070723
0.0004010989
0.00039136636
0.00038151831
0.00037157035
0.00036154268
0.00035145574
0.00034132553
0.00033116034
0.00032096053
0.00031072164
0.00030044001
0.00029011899
0.00027977386
0.00026943361
0.00025913941
0.00024894029
0.00023888779
0.00022903125
0.00021941485
0.00021007711
0.00020105239
0.00019237377
0.00018407604
0.00017619798
0.00016878308
0.00016187906
0.00015553606
0.00014980428
0.00014473147
0.00014036122
0.00013673199
0.00013387737
0.00013182656
0.00013060525
0.00013023533
0.00013073382
0.00013210979
0.00013436049
0.00013746561
0.0001413818
0.00014603693
0.00015132718
0.00015711646
0.00016324134
0.0001695195
0.00017576358
0.00018179639
0.00018746786
0.00019266845
0.00019733891
0.00020147105
0.00020510234
0.00020830216
0.00021115693
0.0002137527
0.00021616275
0.00021843643
0.0002205965
0.00022263921
0.00022454344
0.00022627911
0.00022781932
0.00022914455
0.00023024697
0.00023112539
0.00023178392
0.00023222456
0.00023244814
0.00023244965
0.00023222305
0.00023175872
0.00023104964
0.00023008591
0.00022886407
0.00022737932
0.00022563375
0.00022362887
0.00022136872
0.00021885835
0.00021610469
0.00021310907
0.00020987384
0.00020639563
0.00020267557
0.0001987088
0.00019449717
0.00019003945
0.00018534524
0.00018041795
0.00017527159
0.00016991048
0.00016434948
0.00015858918
0.00015264194
0.00014650201
0.00014017898
0.00013366348
0.00012696408
0.00012006929
0.00011298906
0.0001057116
9.8250499e-05
9.0593894e-05
8.2758509e-05
7.4732386e-05
6.6535309e-05
5.8155962e-05
4.9617084e-05
4.0909325e-05
3.2057011e-05
2.3055346e-05
1.3924107e-05
4.6681477e-06
0.01545127
0.014125581
0.01166767
0.0091851672
0.0070620596
0.0052127416
0.0035102489
0.0019814812
0.0007599083
-4.9280945e-05
-0.00043721814
-0.00049391944
-0.00035366453
-0.00013405569
8.9910024e-05
0.00027894475
0.00042040299
0.00051704722
0.00057830326
0.00061475135
0.0006354408
0.00064706538
0.00065407286
0.00065912587
0.0006636241
0.00066816002
0.00067286215
0.00067762939
0.00068227968
0.00068663023
0.00069053343
0.00069388764
0.00069663519
0.0006987549
0.00070025312
0.00070115525
0.00070149841
0.00070132553
0.00070068101
0.00069960761
0.00069814459
0.00069632667
0.00069418367
0.00069174079
0.00068901918
0.00068603656
0.00068280782
0.00067934552
0.00067566037
0.00067176151
0.00066765686
0.00066335328
0.00065885673
0.00065417241
0.00064930494
0.00064425849
0.00063903703
0.00063364445
0.00062808481
0.00062236234
0.00061648137
0.00061044605
0.00060425988
0.00059792533
0.00059144357
0.00058481442
0.0005780367
0.00057110884
0.00056402958
0.00055679865
0.00054941714
0.00054188749
0.00053421288
0.00052639651
0.00051844061
0.00051034594
0.00050211183
0.00049373697
0.00048522059
0.00047656374
0.00046776984
0.00045884434
0.00044979335
0.00044062177
0.00043133164
0.0004219218
0.00041238914
0.00040273136
0.00039295035
0.00038305464
0.00037305976
0.00036298596
0.00035285383
0.00034267949
0.00033247134
0.00032222969
0.00031194995
0.00030162818
0.00029126749
0.00028088292
0.00027050334
0.0002601699
0.0002499317
0.0002398404
0.00022994544
0.00022029109
0.00021091591
0.00020185422
0.00019313907
0.00018480517
0.00017689129
0.00016944089
0.00016250171
0.00015612394
0.00015035787
0.00014525131
0.0001408479
0.00013718617
0.00013429972
0.00013221779
0.00013096611
0.00013056665
0.00013103654
0.00013238499
0.00013460948
0.0001376899
0.0001415832
0.00014621747
0.00015148911
0.00015726214
0.00016337314
0.00016963969
0.0001758742
0.00018189915
0.00018756405
0.00019275892
0.00019742409
0.000201551
0.0002051769
0.00020837106
0.0002112199
0.00021380956
0.00021621354
0.00021848142
0.00022063613
0.00022267404
0.00022457403
0.00022630594
0.00022784275
0.00022916486
0.00023026439
0.00023114011
0.00023179616
0.00023223453
0.00023245606
0.00023245578
0.00023222777
0.00023176211
0.00023105138
0.0002300866
0.00022886376
0.00022737812
0.00022563177
0.00022362623
0.00022136544
0.00021885455
0.00021610045
0.00021310456
0.00020986911
0.00020639078
0.00020267067
0.00019870394
0.00019449236
0.00019003472
0.00018534061
0.00018041341
0.00017526716
0.00016990617
0.0001643453
0.00015858514
0.00015263809
0.00014649834
0.00014017552
0.00013366024
0.00012696107
0.00012006652
0.00011298651
0.00010570929
9.8248411e-05
9.0592042e-05
8.2756862e-05
7.4730972e-05
6.6534081e-05
5.815496e-05
4.961624e-05
4.0908695e-05
3.2056493e-05
2.3055039e-05
1.3923845e-05
4.6681186e-06
0.013781027
0.012998387
0.011216184
0.0090698312
0.0070517398
0.0052824514
0.0037132839
0.0023328466
0.0012049399
0.0004043084
-4.4326467e-05
-0.00018987797
-0.00013219758
2.3187852e-05
0.00019826311
0.00035325325
0.0004735715
0.00055842101
0.00061353395
0.00064674354
0.00066545858
0.00067553177
0.00068103721
0.00068451155
0.00068735
0.00069019244
0.00069322732
0.00069640384
0.00069957439
0.00070257336
0.00070525673
0.00070751777
0.00070928902
0.00071053748
0.00071125728
0.00071146207
0.00071117825
0.00071043926
0.00070928129
0.00070774013
0.00070584917
0.0007036382
0.00070113291
0.00069835504
0.00069532276
0.00069205129
0.00068855336
0.00068483969
0.00068091934
0.00067680006
0.00067248849
0.00066799038
0.00066331066
0.00065845364
0.00065342308
0.00064822244
0.00064285498
0.00063732398
0.00063163294
0.00062578559
0.00061978584
0.00061363741
0.00060734348
0.00060090618
0.00059432635
0.00058760354
0.00058073625
0.00057372261
0.00056656107
0.00055925114
0.00055179368
0.00054419096
0.00053644605
0.00052856201
0.00052054098
0.0005123836
0.00050408902
0.00049565576
0.00048708289
0.00047837129
0.00046952426
0.00046054723
0.0004514463
0.00044222637
0.00043288945
0.00042343426
0.0004138575
0.00040415663
0.00039433334
0.00038439604
0.00037436025
0.00036424635
0.0003540751
0.00034386276
0.00033361772
0.00032334021
0.00031302534
0.00030266889
0.00029227368
0.00028185455
0.00027144037
0.00026107237
0.0002507998
0.00024067449
0.000230746
0.00022105863
0.00021165091
0.00020255708
0.00019381006
0.00018544452
0.00017749917
0.00017001752
0.00016304736
0.00015663899
0.00015084278
0.00014570666
0.0001412743
0.00013758425
0.00013467013
0.00013256118
0.00013128315
0.00013085812
0.00013130335
0.00013262828
0.00013483063
0.00013789062
0.00014176544
0.00014638342
0.00015164106
0.00015740233
0.00016350362
0.00016976214
0.00017598988
0.00018200881
0.00018766802
0.00019285713
0.00019751627
0.00020163682
0.00020525611
0.00020844352
0.00021128566
0.00021386886
0.0002162668
0.00021852919
0.00022067908
0.00022271277
0.00022460906
0.0002263376
0.00022787126
0.00022919034
0.00023028698
0.00023115998
0.00023181354
0.00023224966
0.00023246921
0.00023246715
0.00023223759
0.00023177065
0.00023105866
0.00023009272
0.00022886875
0.00022738226
0.00022563501
0.00022362863
0.00022136692
0.0002188553
0.00021610059
0.00021310421
0.00020986838
0.00020638977
0.00020266945
0.00019870262
0.00019449092
0.00019003316
0.00018533894
0.00018041162
0.00017526531
0.00016990424
0.00016434337
0.0001585832
0.00015263625
0.00014649657
0.0001401739
0.00013365874
0.00012695974
0.00012006533
0.00011298549
0.0001057084
9.8247666e-05
9.0591409e-05
8.2756361e-05
7.4730569e-05
6.6533786e-05
5.8154743e-05
4.96161e-05
4.0908613e-05
3.2056446e-05
2.3055057e-05
1.3923855e-05
4.6682015e-06
0.012613415
0.012040647
0.010703379
0.0088960688
0.0070474027
0.0053825151
0.0039333687
0.002684139
0.0016518159
0.00087972885
0.00039418088
0.00017295092
0.00014738212
0.00023129381
0.00035286144
0.00046981128
0.00056388546
0.00063107118
0.0006744127
0.00069964695
0.00071269898
0.00071845379
0.00072039415
0.0007207228
0.0007206691
0.00072080454
0.00072130526
0.00072213945
0.00072317567
0.00072425191
0.00072521592
0.00072594508
0.00072635248
0.0007263849
0.00072601719
0.00072524551
0.00072408087
0.00072254352
0.00072065849
0.00071845236
0.00071595088
0.00071317756
0.00071015293
0.00070689437
0.00070341642
0.0006997311
0.00069584833
0.00069177635
0.00068752203
0.00068309112
0.00067848848
0.00067371819
0.0006687837
0.00066368793
0.00065843339
0.00065302237
0.00064745709
0.00064173988
0.00063587334
0.00062986041
0.00062370425
0.00061740793
0.00061097399
0.00060440404
0.00059769842
0.0005908562
0.00058387546
0.00057675391
0.00056948959
0.00056208165
0.00055453062
0.00054683847
0.00053900803
0.00053104214
0.00052294273
0.00051471024
0.00050634367
0.00049784132
0.00048920205
0.00048042653
0.00047151791
0.00046248148
0.00045332325
0.00044404808
0.00043465788
0.00042515127
0.00041552475
0.00040577561
0.00039590529
0.00038592206
0.00037584139
0.00036568367
0.00035546977
0.00034521603
0.00033493087
0.00032461438
0.00031426148
0.00030386765
0.00029343544
0.00028297953
0.0002725287
0.00026212421
0.00025181543
0.00024165428
0.00023169038
0.00022196804
0.00021252571
0.00020339752
0.00019461631
0.00018621667
0.00017823732
0.00017072179
0.00016371797
0.00015727624
0.0001514471
0.00014627851
0.0001418142
0.00013809269
0.00013514756
0.00013300802
0.00013169986
0.00013124524
0.00013166163
0.00013295873
0.0001351346
0.00013816983
0.00014202196
0.00014661957
0.00015185927
0.00015760494
0.00016369268
0.00016993929
0.0001761563
0.00018216521
0.00018781476
0.00019299436
0.00019764407
0.00020175533
0.0002053656
0.00020854436
0.00021137828
0.0002139537
0.00021634437
0.00021860006
0.00022074387
0.00022277206
0.00022466335
0.00022638722
0.00022791645
0.00022923127
0.00023032389
0.00023119312
0.00023184326
0.00023227632
0.00023249315
0.00023248867
0.00023225694
0.00023178802
0.00023107421
0.00023010657
0.00022888096
0.00022739292
0.00022564429
0.0002236352
0.00022137353
0.00021886098
0.00021610545
0.00021310817
0.00020987154
0.00020639235
0.00020267154
0.00019870428
0.00019449216
0.00019003399
0.00018533938
0.00018041168
0.00017526507
0.00016990374
0.00016434269
0.00015858237
0.00015263543
0.00014649576
0.00014017316
0.00013365809
0.0001269592
0.0001200649
0.00011298518
0.00010570817
9.8247546e-05
9.059135e-05
8.2756383e-05
7.4730629e-05
6.6533897e-05
5.8154863e-05
4.9616236e-05
4.0908728e-05
3.2056539e-05
2.3055142e-05
1.3923911e-05
4.6682275e-06
0.011679175
0.011189807
0.010133297
0.0086385124
0.0070040913
0.0054723483
0.0041340053
0.002992647
0.0020455359
0.0013110969
0.00080959506
0.00053359571
0.00043822716
0.00045722785
0.00052804313
0.00060797456
0.00067541929
0.00072345758
0.00075306156
0.00076840762
0.00077419454
0.00077437561
0.00077177466
0.00076816872
0.00076454333
0.00076135512
0.00075874373
0.00075667653
0.00075503182
0.000753653
0.00075238447
0.00075109263
0.00074967475
0.00074805971
0.00074620409
0.00074408648
0.00074170154
0.00073905466
0.00073615771
0.00073302573
0.00072967453
0.00072611912
0.00072237283
0.00071844689
0.00071435057
0.00071009126
0.00070567485
0.00070110599
0.00069638831
0.00069152475
0.00068651766
0.00068136889
0.00067607984
0.00067065159
0.00066508497
0.00065938075
0.00065353978
0.00064756313
0.00064145227
0.00063520906
0.00062883566
0.0006223342
0.00061570637
0.00060895303
0.00060207383
0.00059506725
0.00058793083
0.00058066173
0.0005732575
0.00056571674
0.00055803953
0.00055022734
0.00054228258
0.00053420768
0.00052600426
0.00051767252
0.00050921124
0.00050061855
0.00049189308
0.00048303523
0.00047404786
0.00046493596
0.0004557053
0.0004463605
0.00043690339
0.00042733246
0.00041764417
0.00040783568
0.00039790827
0.00038786996
0.00037773599
0.00036752652
0.0003572623
0.00034695964
0.00033662698
0.00032626446
0.00031586698
0.00030542994
0.00029495574
0.00028445883
0.00027396777
0.00026352361
0.00025317555
0.00024297538
0.00023297263
0.00022321153
0.00021373048
0.00020456356
0.00019574357
0.00018730511
0.00017928689
0.00017173249
0.00016468984
0.00015820938
0.00015234163
0.00014713454
0.0001426318
0.00013887183
0.00013588813
0.00013370982
0.00013236269
0.00013186898
0.00013224636
0.00013350486
0.00013564294
0.00013864163
0.00014245893
0.00014702374
0.0001522329
0.00015795026
0.00016401181
0.00017023409
0.00017642844
0.00018241623
0.00018804618
0.00019320778
0.00019784125
0.00020193808
0.00020553565
0.00020870313
0.00021152678
0.00021409248
0.00021647371
0.00021872011
0.00022085488
0.00022287435
0.00022475734
0.00022647332
0.00022799511
0.00022930294
0.00023038906
0.00023125234
0.00023189708
0.00023232528
0.00023253774
0.0002325293
0.00023229396
0.00023182168
0.00023110478
0.00023013419
0.00022890583
0.00022741516
0.00022566409
0.00022365271
0.00022138866
0.00021887409
0.00021611705
0.00021311753
0.00020988008
0.00020639993
0.00020267832
0.0001987101
0.00019449695
0.00019003788
0.00018534247
0.000180414
0.00017526666
0.00016990474
0.00016434325
0.00015858254
0.00015263544
0.00014649561
0.00014017298
0.0001336579
0.00012695905
0.00012006481
0.00011298516
0.00010570819
9.8247624e-05
9.0591457e-05
8.2756526e-05
7.4730778e-05
6.6534044e-05
5.815498e-05
4.9616317e-05
4.0908743e-05
3.2056486e-05
2.3055043e-05
1.3923792e-05
4.6680723e-06
0.010882875
0.01043518
0.009564034
0.0083300049
0.0069213234
0.005542714
0.0043120603
0.0032596729
0.0023841495
0.0016899287
0.0011874794
0.00087462378
0.00072356734
0.0006857954
0.00070929481
0.00075356478
0.00079499723
0.00082406766
0.00083976275
0.00084484871
0.00084295881
0.00083721495
0.00082981523
0.00082210087
0.00081478506
0.00080817935
0.00080236161
0.00079728144
0.00079281953
0.00078882537
0.00078514487
0.00078163927
0.00077819543
0.00077472865
0.00077118069
0.00076751522
0.00076371245
0.00075976431
0.00075567027
0.00075143429
0.00074706237
0.00074256103
0.00073793626
0.00073319305
0.0007283352
0.00072336534
0.00071828509
0.00071309533
0.00070779634
0.00070238802
0.00069686996
0.00069124151
0.0006855018
0.00067964981
0.00067368447
0.00066760479
0.00066141004
0.00065509984
0.00064867432
0.00064213407
0.00063547999
0.00062871306
0.00062183395
0.00061484258
0.00060773783
0.00060051753
0.00059317859
0.00058571764
0.00057813162
0.00057041855
0.00056257782
0.0005546103
0.00054651774
0.00053830203
0.00052996432
0.00052150452
0.00051292126
0.00050421253
0.00049537683
0.00048641425
0.00047732725
0.00046812031
0.00045879873
0.00044936677
0.00043982603
0.00043017501
0.00042041023
0.00041052891
0.00040053227
0.000390428
0.00038023083
0.00036996034
0.00035963681
0.00034927635
0.00033888747
0.00032847059
0.000318021
0.00030753438
0.00029701319
0.00028647166
0.00027593786
0.00026545218
0.00025506319
0.00024482212
0.00023477814
0.00022497528
0.0002154519
0.00020624214
0.00019737893
0.00018889694
0.00018083497
0.00017323658
0.00016614968
0.00015962458
0.00015371169
0.0001484588
0.00014390938
0.00014010167
0.00013706896
0.00013484021
0.00013344116
0.0001328941
0.00013321691
0.00013441993
0.00013650208
0.00013944491
0.00014320698
0.00014771769
0.00015287426
0.00015854083
0.0001645536
0.00017072937
0.00017687985
0.00018282693
0.00018842002
0.00019354918
0.00019815506
0.00020222912
0.00020580824
0.0002089605
0.00021177087
0.00021432393
0.00021669228
0.00021892517
0.00022104591
0.00022305115
0.00022492015
0.0002266227
0.00022813187
0.000229428
0.00023050343
0.00023135698
0.00023199294
0.00023241316
0.00023261837
0.00023260326
0.00023236178
0.00023188373
0.00023116147
0.00023018581
0.00022895269
0.0002274575
0.00022570216
0.00022368683
0.00022141901
0.00021890105
0.00021614106
0.00021313865
0.00020989851
0.00020641606
0.00020269272
0.00019872173
0.00019450748
0.00019004692
0.00018535009
0.00018042045
0.0001752716
0.00016990841
0.00016434596
0.00015858442
0.00015263675
0.00014649645
0.00014017352
0.00013365822
0.0001269592
0.00012006491
0.00011298521
0.0001057082
9.8247609e-05
9.0591429e-05
8.2756474e-05
7.4730706e-05
6.6533918e-05
5.81548e-05
4.9616046e-05
4.0908385e-05
3.205602e-05
2.3054512e-05
1.3923285e-05
4.66744e-06
0.010187286
0.0097703992
0.0090319265
0.008005847
0.0068067619
0.0055874947
0.0044654687
0.0034920617
0.0026770845
0.002021131
0.0015267693
0.0011916463
0.0009981899
0.00091222104
0.00089241779
0.00090259285
0.00091877291
0.00092937178
0.00093140012
0.00092619304
0.00091639481
0.00090441265
0.00089191232
0.00087984796
0.00086867096
0.00085853478
0.00084943463
0.00084128453
0.00083395535
0.00082729661
0.00082115382
0.00081538308
0.00080986111
0.00080448983
0.00079919611
0.00079392857
0.00078865298
0.00078334778
0.00077800012
0.00077260283
0.00076715214
0.00076164607
0.00075608335
0.00075046275
0.00074478272
0.00073904124
0.00073323589
0.00072736395
0.00072142256
0.00071540877
0.0007093196
0.00070315207
0.0006969032
0.00069057003
0.00068414969
0.00067763954
0.00067103732
0.00066434127
0.0006575502
0.00065066343
0.00064368062
0.00063660158
0.00062942588
0.00062215256
0.00061477975
0.00060730466
0.00059972371
0.000592033
0.00058422895
0.00057630897
0.00056827179
0.00056011751
0.00055184716
0.0005434619
0.00053496235
0.00052634808
0.00051761758
0.00050876885
0.00049980029
0.00049071178
0.00048150525
0.0004721846
0.00046275449
0.00045321865
0.00044357844
0.00043383236
0.00042397719
0.00041401039
0.00040393321
0.00039375298
0.00038348363
0.00037314379
0.00036275289
0.00035232662
0.00034187359
0.00033139482
0.00032088644
0.00031034491
0.00029977312
0.00028918512
0.00027860821
0.00026808165
0.00025765274
0.00024737158
0.00023728655
0.00022744122
0.00021787391
0.00020861894
0.00019970953
0.00019118064
0.00018307119
0.00017542476
0.00016828908
0.00016171418
0.00015575008
0.00015044413
0.00014583937
0.0001419736
0.00013887972
0.00013658642
0.0001351193
0.00013450066
0.00013474858
0.00013587373
0.00013787556
0.00014073622
0.00014441498
0.00014884187
0.00015391481
0.00015949859
0.0001654302
0.00017152741
0.00017760323
0.00018348107
0.00018901196
0.00019408736
0.00019864872
0.00020268739
0.00020623911
0.00020936989
0.00021216215
0.00021469802
0.00021704833
0.0002192615
0.0002213609
0.00022334384
0.00022519045
0.00022687132
0.0002283601
0.00022963743
0.00023069575
0.00023153379
0.00023215571
0.00023256312
0.0002327566
0.0002327306
0.00023247899
0.00023199145
0.0002312603
0.00023027625
0.00022903525
0.00022753261
0.00022577025
0.00022374841
0.00022147445
0.00021895086
0.00021618562
0.00021317848
0.00020993405
0.00020644772
0.00020272092
0.00019874652
0.00019452886
0.00019006518
0.00018536555
0.00018043267
0.00017528211
0.00016991694
0.00016435282
0.00015858991
0.00015264096
0.00014649947
0.00014017567
0.00013365972
0.00012696014
0.00012006544
0.00011298542
0.00010570818
9.8247385e-05
9.059109e-05
8.2755996e-05
7.4730169e-05
6.6533251e-05
5.8154073e-05
4.9615168e-05
4.0907401e-05
3.2054904e-05
2.3053326e-05
1.3922205e-05
4.6662336e-06
0.0095741362
0.0091857714
0.0085485432
0.0076859557
0.0066680356
0.0056022479
0.0045898415
0.0036920527
0.00293115
0.0023105701
0.0018291273
0.0014826341
0.001258659
0.0011333354
0.001075125
0.0010533786
0.0010452921
0.0010380166
0.0010267488
0.0010113587
0.0009935168
0.00097500664
0.00095706897
0.00094034869
0.00092507092
0.00091123299
0.00089873264
0.00088743063
0.00087717353
0.00086780148
0.00085915468
0.00085108199
0.0008434491
0.00083614377
0.00082907727
0.00082218254
0.00081541044
0.00080872565
0.00080210281
0.00079552354
0.00078897411
0.00078244388
0.00077592414
0.0007694073
0.00076288627
0.00075635425
0.00074980464
0.00074323109
0.00073662751
0.00072998807
0.00072330722
0.00071657967
0.00070980036
0.00070296444
0.00069606728
0.0006891046
0.00068207266
0.00067496838
0.00066778928
0.00066053344
0.00065319926
0.00064578536
0.0006382903
0.00063071222
0.00062304861
0.00061529614
0.00060745083
0.00059950839
0.00059146481
0.00058331698
0.00057506304
0.00056670237
0.0005582352
0.00054966198
0.00054098271
0.00053219661
0.00052330209
0.0005142972
0.00050518035
0.00049595122
0.0004866113
0.00047716383
0.00046761277
0.00045796133
0.00044821059
0.00043835914
0.00042840411
0.00041834339
0.00040817834
0.00039791588
0.00038756897
0.00037715497
0.00036669213
0.0003561955
0.00034567382
0.0003351289
0.00032455817
0.00031395937
0.00030333618
0.00029270264
0.00028208517
0.00027152147
0.00026105699
0.00025074013
0.00024061794
0.00023073321
0.00022112404
0.00021182495
0.00020286959
0.00019429328
0.00018613523
0.00017843903
0.0001712522
0.00016462433
0.00015860481
0.00015324028
0.00014857304
0.00014464009
0.00014147368
0.00013910191
0.00013755004
0.00013684024
0.00013699074
0.00013801261
0.00013990597
0.00014265375
0.00014621612
0.00015052409
0.00015547654
0.00016093938
0.00016675096
0.00017273081
0.00017869426
0.00018446741
0.00018990412
0.00019489823
0.00019939262
0.00020337857
0.0002068901
0.00020999005
0.00021275689
0.00021526893
0.00021759413
0.00021977942
0.00022184813
0.00022379846
0.00022561193
0.0002272604
0.00022871856
0.00022996756
0.00023100005
0.00023181463
0.00023241522
0.00023280306
0.00023297849
0.00023293569
0.0002326684
0.00023216613
0.00023142116
0.0002304241
0.00022917088
0.00022765671
0.00022588353
0.00022385156
0.00022156808
0.00021903567
0.00021626226
0.00021324769
0.00020999641
0.00020650376
0.00020277101
0.00019879111
0.00019456824
0.00019009967
0.00018539546
0.00018045855
0.00017530376
0.00016993474
0.00016436735
0.00015860194
0.00015264982
0.0001465067
0.00014018125
0.00013366393
0.00012696325
0.00012006751
0.00011298653
0.00010570864
9.8247262e-05
9.0590609e-05
8.2755138e-05
7.4729132e-05
6.6531936e-05
5.8152662e-05
4.9613553e-05
4.0905661e-05
3.2052988e-05
2.3051338e-05
1.3920439e-05
4.6643597e-06
0.0090310049
0.0086702984
0.0081140725
0.007379856
0.006512814
0.0055868479
0.0046823377
0.0038599505
0.0031506144
0.0025633981
0.0020972881
0.0017469968
0.0015024117
0.0013463458
0.0012553384
0.0012045628
0.0011735306
0.0011490525
0.0011248946
0.0010995201
0.0010736215
0.0010484025
0.0010247618
0.0010031142
0.00098350711
0.00096579705
0.00094977777
0.00093524188
0.00092199698
0.00090986311
0.00089866918
0.00088825427
0.0008784723
0.00086919683
0.00086032343
0.00085176922
0.00084347008
0.00083537693
0.00082745199
0.0008196657
0.00081199443
0.00080441888
0.0007969228
0.00078949207
0.00078211395
0.00077477668
0.0007674693
0.00076018167
0.00075290433
0.00074562844
0.00073834573
0.00073104853
0.00072372961
0.00071638217
0.00070899973
0.00070157635
0.00069410674
0.00068658644
0.00067901168
0.00067137921
0.00066368616
0.0006559299
0.00064810791
0.00064021743
0.00063225526
0.00062421757
0.00061609997
0.00060789781
0.0005996067
0.00059122309
0.00058274458
0.00057416992
0.00056549858
0.00055673025
0.00054786434
0.00053889972
0.00052983469
0.00052066734
0.00051139612
0.00050202053
0.00049254165
0.00048296208
0.00047328516
0.00046351357
0.0004536482
0.00044368778
0.00043362988
0.00042347289
0.0004132184
0.00040287291
0.00039244832
0.00038196051
0.00037142637
0.00036086015
0.00035027065
0.00033966062
0.00032902899
0.00031837512
0.00030770382
0.00029702932
0.00028637715
0.00027578324
0.00026529089
0.00025494634
0.00024479491
0.00023487824
0.00022523396
0.00021589666
0.00020690033
0.00019828066
0.00019007708
0.00018233319
0.00017509627
0.00016841537
0.00016233918
0.00015691344
0.00015217951
0.00014817331
0.00014492605
0.00014246487
0.00014081428
0.00013999596
0.00014002805
0.00014092193
0.00014267848
0.00014528171
0.00014869317
0.00015284531
0.00015763862
0.00016294067
0.00016859181
0.00017441404
0.0001802258
0.00018585684
0.00019116487
0.0001960471
0.00020044858
0.00020436079
0.00020781577
0.00021087233
0.00021360377
0.00021608316
0.00021837448
0.00022052235
0.00022254978
0.00022445598
0.00022622423
0.00022782817
0.00022924391
0.00023045339
0.00023144959
0.00023223096
0.00023280114
0.00023316095
0.00023331039
0.00023324333
0.00023295334
0.00023242975
0.00023166479
0.00023064891
0.00022937801
0.00022784719
0.00022605834
0.00022401168
0.00022171441
0.00021916918
0.00021638383
0.00021335829
0.00021009684
0.00020659477
0.00020285319
0.00019886514
0.00019463452
0.0001901586
0.00018544742
0.00018050389
0.00017534285
0.00016996822
0.00016439567
0.00015862574
0.00015266942
0.0001465224
0.00014019361
0.00013367354
0.00012697057
0.00012007261
0.00011298994
0.00010571074
9.8248168e-05
9.0590688e-05
8.2754405e-05
7.4727931e-05
6.6530169e-05
5.815064e-05
4.9610833e-05
4.0903181e-05
3.205028e-05
2.3048525e-05
1.3917977e-05
4.6618165e-06
0.0085476461
0.0082134133
0.0077236165
0.0070915813
0.0063484793
0.0055453894
0.0047434358
0.0039963723
0.0033384218
0.0027839696
0.0023346058
0.0019855495
0.0017280618
0.0015490752
0.0014311546
0.0013548375
0.001302573
0.0012616872
0.0012250639
0.0011899552
0.0011561007
0.0011241311
0.0010946439
0.0010678835
0.0010437702
0.001022046
0.0010024052
0.00098456392
0.00096827857
0.00095333891
0.00093955628
0.00092675733
0.00091478392
0.00090349599
0.00089277412
0.00088252005
0.00087265495
0.00086311618
0.00085385369
0.00084482694
0.00083600254
0.00082735256
0.00081885324
0.00081048388
0.00080222594
0.00079406257
0.00078597835
0.00077795917
0.00076999206
0.00076206505
0.00075416706
0.00074628791
0.00073841813
0.00073054886
0.00072267172
0.00071477902
0.00070686388
0.00069892037
0.00069094338
0.00068292832
0.00067487098
0.00066676745
0.00065861403
0.00065040704
0.00064214254
0.00063381614
0.00062542298
0.00061695801
0.00060841644
0.00059979428
0.00059108864
0.00058229768
0.00057342018
0.00056445508
0.00055540118
0.00054625697
0.00053702065
0.0005276903
0.00051826432
0.00050874201
0.00049912405
0.00048941247
0.00047960998
0.00046971884
0.00045973977
0.00044967168
0.00043951263
0.00042926154
0.00041892028
0.00040849496
0.00039799642
0.00038743903
0.00037683827
0.0003662075
0.00035555553
0.00034488598
0.00033419933
0.00032349666
0.00031278405
0.00030207605
0.00029139737
0.00028078216
0.00027027148
0.00025990928
0.00024973894
0.00023980074
0.00023013163
0.00022076604
0.00021173812
0.00020308366
0.00019484215
0.00018705698
0.00017977504
0.00017304474
0.00016691401
0.00016142772
0.00015662625
0.00015254441
0.00014921218
0.00014665539
0.00014489737
0.00014395873
0.00014385701
0.00014460346
0.00014619953
0.00014863039
0.00015185939
0.0001558212
0.00016041882
0.00016552247
0.00017097545
0.00017660296
0.00018222722
0.00018768213
0.00019282979
0.00019757126
0.00020185425
0.00020567077
0.00020905093
0.00021204916
0.00021473285
0.00021716889
0.00021941617
0.0002215163
0.00022349152
0.000225342
0.00022705303
0.00022860031
0.00022996167
0.00023112008
0.00023206894
0.00023280659
0.00023333636
0.00023365863
0.00023377308
0.00023367324
0.00023335253
0.00023280009
0.00023200807
0.00023096677
0.000229672
0.00022811871
0.00022630871
0.00022424217
0.0002219262
0.00021936347
0.00021656179
0.00021352114
0.0002102457
0.00020673067
0.00020297699
0.00019897769
0.00019473638
0.00019025033
0.0001855295
0.00018057679
0.00017540709
0.00017002438
0.00016444424
0.00015866723
0.00015270447
0.00014655168
0.00014021766
0.00013369304
0.00012698607
0.00012008454
0.00011299856
0.00010571677
9.8251892e-05
9.0592718e-05
8.2754863e-05
7.4727398e-05
6.652862e-05
5.8148576e-05
4.9608174e-05
4.0900203e-05
3.2046981e-05
2.3045039e-05
1.3914937e-05
4.6587183e-06
0.0081152796
0.0078059447
0.0073715699
0.0068224713
0.0061812286
0.0054839691
0.0047763562
0.0041029024
0.0034967202
0.0029755102
0.0025441866
0.002199837
0.0019352129
0.0017399477
0.0016008206
0.0015028092
0.0014314209
0.0013751323
0.0013265372
0.0012819928
0.0012403759
0.001201745
0.0011664011
0.0011344485
0.0011057217
0.0010798816
0.0010565386
0.0010353329
0.0010159628
0.00099817973
0.00098177142
0.00096654932
0.00095234289
0.00093899941
0.00092638561
0.00091438882
0.00090291601
0.00089189125
0.00088125241
0.00087094815
0.00086093545
0.00085117791
0.00084164425
0.00083230713
0.00082314219
0.00081412739
0.00080524269
0.00079646991
0.00078779245
0.00077919514
0.00077066402
0.0007621863
0.0007537502
0.0007453447
0.00073695947
0.000728585
0.00072021278
0.00071183539
0.00070344629
0.00069503953
0.00068660952
0.00067815106
0.00066965927
0.00066112948
0.00065255696
0.00064393671
0.00063526334
0.00062653134
0.00061773547
0.00060887127
0.00059993538
0.0005909254
0.00058183946
0.00057267579
0.00056343256
0.00055410789
0.00054469981
0.00053520636
0.00052562584
0.0005159573
0.00050620097
0.00049635835
0.00048643162
0.00047642262
0.00046633191
0.00045615859
0.0004459012
0.00043555918
0.00042513464
0.0004146334
0.00040406528
0.00039344324
0.00038278138
0.0003720922
0.00036138446
0.00035066256
0.00033992839
0.00032918464
0.00031843866
0.00030770529
0.00029700849
0.0002863807
0.0002758608
0.00026549052
0.0002553113
0.00024536205
0.00023567892
0.00022629605