/*--------------------------------*- C++ -*----------------------------------*\
| =========                 |                                                 |
| \\      /  F ield         | OpenFOAM: The Open Source CFD Toolbox           |
|  \\    /   O peration     | Version:  5.x                                   |
|   \\  /    A nd           | Web:      www.OpenFOAM.org                      |
|    \\/     M anipulation  |                                                 |
\*---------------------------------------------------------------------------*/
FoamFile
{
    version     2.0;
    format      ascii;
    class       surfaceScalarField;
    location    "0.2";
    object      phi;
}
// * * * * * * * * * * * * * * * * * * * * * * * * * * * * * * * * * * * * * //

dimensions      [0 3 -1 0 0 0 0];

internalField   nonuniform List<scalar> 
42870
(
3.6471554e-08
3.0058348e-09
-3.9477389e-08
3.2665078e-08
3.8064763e-09
2.8875539e-08
3.7895387e-09
2.5280458e-08
3.5950812e-09
2.1876243e-08
3.4042149e-09
1.8730356e-08
3.1458871e-09
1.596839e-08
2.7619667e-09
1.3683495e-08
2.284895e-09
1.1894593e-08
1.7889017e-09
1.056853e-08
1.3260625e-09
9.619562e-09
9.489683e-10
8.9487169e-09
6.7084517e-10
8.4688901e-09
4.798268e-10
8.113112e-09
3.5577811e-10
7.8338459e-09
2.7926608e-10
7.5980204e-09
2.3582545e-10
7.3852791e-09
2.1274134e-10
7.1851474e-09
2.0013173e-10
6.9933874e-09
1.9175999e-10
6.8090212e-09
1.8436612e-10
6.6324192e-09
1.7660204e-10
6.4642444e-09
1.6817481e-10
6.3049662e-09
1.5927814e-10
6.1547089e-09
1.5025729e-10
6.0132698e-09
1.4143917e-10
5.880207e-09
1.3306279e-10
5.7549379e-09
1.2526912e-10
5.6368174e-09
1.1812049e-10
5.5251988e-09
1.1161858e-10
5.4194722e-09
1.0572662e-10
5.3190833e-09
1.0038886e-10
5.2235399e-09
9.5543429e-11
5.1324102e-09
9.1129732e-11
5.045318e-09
8.7092176e-11
4.9619362e-09
8.3381758e-11
4.8819799e-09
7.9956365e-11
4.8051994e-09
7.6780432e-11
4.7313752e-09
7.3824249e-11
4.660312e-09
7.106316e-11
4.5918353e-09
6.8476706e-11
4.5257875e-09
6.6047844e-11
4.4620252e-09
6.3762237e-11
4.4004176e-09
6.160767e-11
4.340844e-09
5.9573551e-11
4.2831935e-09
5.7650564e-11
4.2273631e-09
5.5830394e-11
4.1732575e-09
5.4105565e-11
4.1207882e-09
5.2469292e-11
4.0698728e-09
5.0915377e-11
4.0204347e-09
4.9438132e-11
3.9724023e-09
4.8032354e-11
3.9257091e-09
4.6693233e-11
3.8802928e-09
4.5416346e-11
3.8360952e-09
4.4197592e-11
3.793062e-09
4.3033198e-11
3.7511423e-09
4.1919642e-11
3.7102887e-09
4.0853646e-11
3.6704566e-09
3.9832114e-11
3.6316044e-09
3.8852135e-11
3.5936935e-09
3.7910964e-11
3.5566874e-09
3.7006089e-11
3.5205522e-09
3.6135223e-11
3.4852558e-09
3.5296375e-11
3.450768e-09
3.4487791e-11
3.41706e-09
3.3707952e-11
3.3841046e-09
3.295546e-11
3.3518756e-09
3.2228975e-11
3.3203485e-09
3.1527098e-11
3.2895001e-09
3.0848363e-11
3.2593089e-09
3.0191191e-11
3.2297549e-09
2.9554007e-11
3.2008196e-09
2.8935296e-11
3.1724859e-09
2.8333767e-11
3.1447375e-09
2.7748394e-11
3.117559e-09
2.7178479e-11
3.0909355e-09
2.662352e-11
3.0648524e-09
2.6083074e-11
3.0392959e-09
2.55565e-11
3.014253e-09
2.5042878e-11
2.9897121e-09
2.4540941e-11
2.9656628e-09
2.4049297e-11
2.9420961e-09
2.3566644e-11
2.919004e-09
2.309213e-11
2.8963786e-09
2.2625442e-11
2.8742118e-09
2.2166808e-11
2.8524951e-09
2.1716632e-11
2.83122e-09
2.1275089e-11
2.8103784e-09
2.0841629e-11
2.7899636e-09
2.0414844e-11
2.769971e-09
1.9992577e-11
2.7503985e-09
1.9572537e-11
2.7312455e-09
1.9152948e-11
2.7125123e-09
1.8733191e-11
2.6941984e-09
1.8313926e-11
2.6763016e-09
1.7896827e-11
2.6588178e-09
1.7483809e-11
2.6417415e-09
1.707625e-11
2.6250672e-09
1.667427e-11
2.6087907e-09
1.6276531e-11
2.5929103e-09
1.5880442e-11
2.5774274e-09
1.548286e-11
2.5623465e-09
1.5080865e-11
2.5476741e-09
1.4672464e-11
2.5334172e-09
1.4256865e-11
2.5195828e-09
1.3834435e-11
2.5061764e-09
1.3406337e-11
2.4932024e-09
1.297405e-11
2.4806635e-09
1.2538888e-11
2.4685619e-09
1.2101644e-11
2.4568994e-09
1.1662496e-11
2.4456783e-09
1.1221108e-11
2.4349014e-09
1.0776895e-11
2.4245721e-09
1.032923e-11
2.4146944e-09
9.8777425e-12
2.4052719e-09
9.4224468e-12
2.3963081e-09
8.9638663e-12
2.3878052e-09
8.5028453e-12
2.3797647e-09
8.0404984e-12
2.3721868e-09
7.5779407e-12
2.3650705e-09
7.1162903e-12
2.358414e-09
6.6564642e-12
2.3522146e-09
6.1994212e-12
2.3464685e-09
5.7461249e-12
2.3411705e-09
5.2979403e-12
2.3363139e-09
4.8566193e-12
2.3318891e-09
4.424784e-12
2.3278833e-09
4.0058125e-12
2.3242791e-09
3.6042026e-12
2.321054e-09
3.2251132e-12
2.3181796e-09
2.8744028e-12
2.3156219e-09
2.557673e-12
2.313342e-09
2.2799724e-12
2.3112975e-09
2.0445061e-12
2.3094451e-09
1.8523187e-12
2.307744e-09
1.7011091e-12
2.3061585e-09
1.5855657e-12
2.3046613e-09
1.497134e-12
2.3032355e-09
1.4257834e-12
2.3018747e-09
1.3608659e-12
2.3005811e-09
1.293556e-12
2.2993638e-09
1.2173349e-12
2.2982341e-09
1.1296454e-12
2.2972032e-09
1.0309722e-12
2.2962779e-09
9.252683e-13
2.2954603e-09
8.1758183e-13
2.2947466e-09
7.1375303e-13
2.2941289e-09
6.1766731e-13
2.293597e-09
5.3186507e-13
2.2931411e-09
4.5594363e-13
2.2927522e-09
3.8886191e-13
2.2924242e-09
3.2805282e-13
2.292152e-09
2.7217769e-13
2.2919325e-09
2.1947901e-13
2.2917624e-09
1.7009464e-13
2.291639e-09
1.234426e-13
2.2915584e-09
8.056908e-14
2.2915174e-09
4.1048449e-14
2.2915117e-09
5.7082318e-15
2.2915376e-09
-2.5933365e-14
2.2915909e-09
-5.3349001e-14
2.2916686e-09
-7.7686562e-14
2.2917669e-09
-9.8233669e-14
2.2918835e-09
-1.1662925e-13
2.2920155e-09
-1.3198205e-13
2.2921613e-09
-1.458591e-13
2.2923186e-09
-1.5730992e-13
2.2924867e-09
-1.6806918e-13
2.2926626e-09
-1.7591812e-13
2.2928456e-09
-1.829626e-13
2.2930325e-09
-1.8689716e-13
2.2932224e-09
-1.8989638e-13
2.2934117e-09
-1.8934855e-13
2.2936e-09
-1.8825535e-13
2.2937842e-09
-1.8421181e-13
2.2939648e-09
-1.8059453e-13
2.2941397e-09
-1.7489361e-13
2.2943099e-09
-1.7025062e-13
2.2944738e-09
-1.6389322e-13
2.2946334e-09
-1.5961261e-13
2.2947866e-09
-1.5318582e-13
2.2949356e-09
-1.4896897e-13
2.2950776e-09
-1.4205487e-13
2.2952154e-09
-1.377341e-13
2.2953454e-09
-1.3001262e-13
2.2954707e-09
-1.2533357e-13
2.2955872e-09
-1.1652403e-13
2.2956986e-09
-1.1139714e-13
2.2958004e-09
-1.0179099e-13
2.295897e-09
-9.6525281e-14
2.2959832e-09
-8.618635e-14
2.2960641e-09
-8.0974977e-14
2.2961341e-09
-6.9956406e-14
2.296199e-09
-6.4903072e-14
2.2962523e-09
-5.3304593e-14
2.2963009e-09
-4.8587487e-14
2.2963377e-09
-3.678769e-14
2.2963704e-09
-3.2712981e-14
2.2963919e-09
-2.1497891e-14
2.2964102e-09
-1.8330973e-14
-8.0430101e-15
4.2098124e-08
2.7398186e-09
-4.1832108e-08
4.193689e-08
3.9677111e-09
4.1252194e-08
4.4742344e-09
4.0290791e-08
4.5564842e-09
3.9151737e-08
4.5432691e-09
3.7830399e-08
4.4672245e-09
3.6344207e-08
4.2481588e-09
3.4753913e-08
3.8751894e-09
3.3145445e-08
3.39737e-09
3.1588235e-08
2.8832718e-09
3.0129081e-08
2.4081224e-09
2.8786314e-08
2.0136127e-09
2.7560035e-08
1.7061056e-09
2.6443732e-08
1.4720808e-09
2.5433954e-08
1.2890441e-09
2.4520005e-08
1.1497743e-09
2.3690091e-08
1.0426551e-09
2.2933068e-08
9.5715475e-10
2.2239138e-08
8.8569062e-10
2.1599997e-08
8.2350659e-10
2.100875e-08
7.6784885e-10
2.0459715e-08
7.1721018e-10
1.9948181e-08
6.7081193e-10
1.9470179e-08
6.2825952e-10
1.9022294e-08
5.8932396e-10
1.8601548e-08
5.5380893e-10
1.8205315e-08
5.2150227e-10
1.7831261e-08
4.9217474e-10
1.7477312e-08
4.6556754e-10
1.714163e-08
4.4140835e-10
1.682259e-08
4.1942892e-10
1.6518756e-08
3.9937696e-10
1.6228863e-08
3.8102281e-10
1.5951793e-08
3.641622e-10
1.5686558e-08
3.4861653e-10
1.5432283e-08
3.3423158e-10
1.5188188e-08
3.208753e-10
1.4953577e-08
3.0843528e-10
1.4727825e-08
2.9681602e-10
1.4510365e-08
2.8593629e-10
1.4300686e-08
2.7572668e-10
1.4098321e-08
2.6612744e-10
1.3902842e-08
2.5708664e-10
1.3713857e-08
2.4855863e-10
1.3531005e-08
2.4050289e-10
1.3353952e-08
2.3288317e-10
1.318239e-08
2.2566686e-10
1.3016035e-08
2.1882442e-10
1.2854622e-08
2.1232901e-10
1.2697904e-08
2.0615616e-10
1.2545652e-08
2.0028354e-10
1.2397655e-08
1.9469065e-10
1.2253713e-08
1.8935867e-10
1.211364e-08
1.8427023e-10
1.1977264e-08
1.7940936e-10
1.1844422e-08
1.7476119e-10
1.1714964e-08
1.7031198e-10
1.1588747e-08
1.6604884e-10
1.146564e-08
1.6195976e-10
1.1345517e-08
1.5803358e-10
1.1228263e-08
1.5426009e-10
1.1113768e-08
1.5062994e-10
1.100193e-08
1.4713484e-10
1.089265e-08
1.4376727e-10
1.0785838e-08
1.4052043e-10
1.0681405e-08
1.3738791e-10
1.0579271e-08
1.3436353e-10
1.0479357e-08
1.3144107e-10
1.0381591e-08
1.2861432e-10
1.0285905e-08
1.2587698e-10
1.0192236e-08
1.2322305e-10
1.0100525e-08
1.2064692e-10
1.0010715e-08
1.1814375e-10
9.9227535e-09
1.1570949e-10
9.836591e-09
1.133409e-10
9.7521794e-09
1.1103515e-10
9.6694731e-09
1.0878939e-10
9.5884294e-09
1.0660021e-10
9.5090087e-09
1.0446356e-10
9.4311749e-09
1.0237474e-10
9.3548951e-09
1.0032907e-10
9.2801393e-09
9.8322446e-11
9.2068794e-09
9.6352102e-11
9.1350882e-09
9.4416574e-11
9.0647396e-09
9.2515462e-11
8.9958079e-09
9.064835e-11
8.9282691e-09
8.8813827e-11
8.8621023e-09
8.7008466e-11
8.7972902e-09
8.5226897e-11
8.7338204e-09
8.3462458e-11
8.6716839e-09
8.1708962e-11
8.6108747e-09
7.9962208e-11
8.5513866e-09
7.8221228e-11
8.4932125e-09
7.6488018e-11
8.436343e-09
7.4766394e-11
8.380767e-09
7.3059776e-11
8.326474e-09
7.1369291e-11
8.2734559e-09
6.9692314e-11
8.2217099e-09
6.8022536e-11
8.1712394e-09
6.6351006e-11
8.1220539e-09
6.4668291e-11
8.0741683e-09
6.2966489e-11
8.0275999e-09
6.124085e-11
7.9823667e-09
5.9490105e-11
7.9384851e-09
5.7716045e-11
7.8959691e-09
5.5922267e-11
7.8548303e-09
5.4112838e-11
7.8150782e-09
5.2290999e-11
7.7767214e-09
5.0458479e-11
7.7397686e-09
4.8615339e-11
7.7042291e-09
4.6760517e-11
7.6701135e-09
4.4892518e-11
7.6374326e-09
4.3010138e-11
7.6061972e-09
4.1113131e-11
7.5764171e-09
3.9202616e-11
7.5480997e-09
3.7281188e-11
7.52125e-09
3.5352578e-11
7.4958691e-09
3.3421368e-11
7.4719545e-09
3.1492554e-11
7.4494994e-09
2.9571438e-11
7.4284924e-09
2.7663437e-11
7.4089173e-09
2.5774536e-11
7.3907519e-09
2.3911465e-11
7.3739675e-09
2.20824e-11
7.358527e-09
2.029712e-11
7.344384e-09
1.8567711e-11
7.3314815e-09
1.6908359e-11
7.3197501e-09
1.5335557e-11
7.3091083e-09
1.3866951e-11
7.2994622e-09
1.2520559e-11
7.2907075e-09
1.1312341e-11
7.282733e-09
1.0254473e-11
7.2754253e-09
9.3522322e-12
7.2686751e-09
8.6024628e-12
7.2623848e-09
7.9914269e-12
7.2564746e-09
7.495754e-12
7.250888e-09
7.0837314e-12
7.2455933e-09
6.7204512e-12
7.2405821e-09
6.3720973e-12
7.2358635e-09
6.0122085e-12
7.2314567e-09
5.6241021e-12
7.2273827e-09
5.2036576e-12
7.2236568e-09
4.7569043e-12
7.2202835e-09
4.2985558e-12
7.2172552e-09
3.8458121e-12
7.2145535e-09
3.415525e-12
7.2121527e-09
3.0184204e-12
7.2100249e-09
2.6596892e-12
7.2081437e-09
2.3371366e-12
7.2064865e-09
2.0460945e-12
7.2050353e-09
1.7792449e-12
7.2037755e-09
1.5319312e-12
7.2026952e-09
1.2997892e-12
7.2017829e-09
1.0824438e-12
7.2010274e-09
8.7884931e-13
7.2004172e-09
6.9084784e-13
7.1999404e-09
5.1777442e-13
7.1995851e-09
3.6107049e-13
7.1993399e-09
2.1923546e-13
7.1991936e-09
9.298959e-14
7.1991362e-09
-2.0279631e-14
7.1991579e-09
-1.2001372e-13
7.1992509e-09
-2.0962657e-13
7.1994069e-09
-2.8794492e-13
7.1996193e-09
-3.5823136e-13
7.1998809e-09
-4.1896352e-13
7.2001863e-09
-4.7343402e-13
7.2005277e-09
-5.1737558e-13
7.2008998e-09
-5.549886e-13
7.2012948e-09
-5.8191284e-13
7.2017075e-09
-6.0260122e-13
7.2021304e-09
-6.1226927e-13
7.2025596e-09
-6.1745515e-13
7.2029892e-09
-6.1383484e-13
7.2034173e-09
-6.0868269e-13
7.2038397e-09
-5.9725784e-13
7.2042558e-09
-5.8633575e-13
7.2046622e-09
-5.7032859e-13
7.2050599e-09
-5.5731147e-13
7.2054451e-09
-5.3834623e-13
7.205819e-09
-5.2290803e-13
7.2061774e-09
-5.0041308e-13
7.2065223e-09
-4.8265162e-13
7.2068486e-09
-4.5634796e-13
7.2071595e-09
-4.3626829e-13
7.2074492e-09
-4.0613891e-13
7.2077221e-09
-3.8430974e-13
7.2079718e-09
-3.5156159e-13
7.2082046e-09
-3.2925941e-13
7.2084128e-09
-2.9439122e-13
7.2086043e-09
-2.7253584e-13
7.2087702e-09
-2.3584706e-13
7.2089205e-09
-2.1512236e-13
7.2090441e-09
-1.7692331e-13
7.2091538e-09
-1.582944e-13
7.2092364e-09
-1.1939972e-13
7.209308e-09
-1.0431501e-13
7.2093526e-09
-6.6131452e-14
7.2093909e-09
-5.6627125e-14
-1.8943628e-14
4.4018846e-08
2.5845546e-09
-4.3863582e-08
4.4401578e-08
3.5849798e-09
4.4602966e-08
4.2728457e-09
4.4653751e-08
4.5056998e-09
4.4620991e-08
4.5760287e-09
4.4501243e-08
4.5869722e-09
4.4240189e-08
4.5092129e-09
4.3816925e-08
4.2984542e-09
4.3251707e-08
3.9625872e-09
4.2579876e-08
3.5551028e-09
4.184308e-08
3.1449185e-09
4.1073577e-08
2.783116e-09
4.0290845e-08
2.4888371e-09
3.9507046e-08
2.2558806e-09
3.8727608e-08
2.0684815e-09
3.7959584e-08
1.9177986e-09
3.7207045e-08
1.7951939e-09
3.6471942e-08
1.692258e-09
3.5755268e-08
1.6023646e-09
3.5057676e-08
1.5210983e-09
3.4379686e-08
1.4458395e-09
3.3721726e-08
1.3751694e-09
3.3084134e-08
1.3084047e-09
3.246712e-08
1.2452735e-09
3.1870742e-08
1.1857015e-09
3.1294897e-08
1.1296544e-09
3.0739323e-08
1.077076e-09
3.0203606e-08
1.0278913e-09
2.9687212e-08
9.8196218e-10
2.918951e-08
9.3910957e-10
2.8709808e-08
8.9913165e-10
2.8247367e-08
8.6181807e-10
2.7801429e-08
8.2696049e-10
2.7371232e-08
7.9435912e-10
2.6956022e-08
7.6382667e-10
2.6555063e-08
7.3519034e-10
2.6167646e-08
7.0829252e-10
2.5793091e-08
6.8299054e-10
2.5430751e-08
6.5915595e-10
2.5080014e-08
6.3667336e-10
2.4740301e-08
6.1543907e-10
2.4411069e-08
5.9535968e-10
2.4091805e-08
5.7635069e-10
2.3782028e-08
5.5833527e-10
2.3481288e-08
5.4124326e-10
2.3189161e-08
5.250104e-10
2.290525e-08
5.0957781e-10
2.2629183e-08
4.9489141e-10
2.236061e-08
4.8090148e-10
2.2099204e-08
4.6756229e-10
2.1844656e-08
4.5483193e-10
2.1596675e-08
4.4267164e-10
2.1354988e-08
4.3104568e-10
2.1119337e-08
4.199209e-10
2.088948e-08
4.0926663e-10
2.0665187e-08
3.9905419e-10
2.0446242e-08
3.8925686e-10
2.0232441e-08
3.7984955e-10
2.0023592e-08
3.7080873e-10
1.9819513e-08
3.621124e-10
1.9620033e-08
3.5374029e-10
1.9424989e-08
3.4567373e-10
1.9234228e-08
3.3789587e-10
1.9047604e-08
3.3039126e-10
1.8864979e-08
3.2314567e-10
1.8686221e-08
3.1614561e-10
1.8511207e-08
3.0937794e-10
1.8339819e-08
3.0282963e-10
1.8171945e-08
2.9648775e-10
1.8007483e-08
2.9033939e-10
1.7846333e-08
2.8437233e-10
1.7688405e-08
2.785752e-10
1.7533611e-08
2.7293802e-10
1.7381868e-08
2.6745216e-10
1.7233099e-08
2.621104e-10
1.7087228e-08
2.5690607e-10
1.6944185e-08
2.5183243e-10
1.6803903e-08
2.4688176e-10
1.6666321e-08
2.4204534e-10
1.6531383e-08
2.3731354e-10
1.6399035e-08
2.3267707e-10
1.6269229e-08
2.2812782e-10
1.6141921e-08
2.2365999e-10
1.6017068e-08
2.1926988e-10
1.5894628e-08
2.1495532e-10
1.5774563e-08
2.1071379e-10
1.5656836e-08
2.0654086e-10
1.5541416e-08
2.0242865e-10
1.5428276e-08
1.9836633e-10
1.5317397e-08
1.9434139e-10
1.5208763e-08
1.9034278e-10
1.5102362e-08
1.8636322e-10
1.4998183e-08
1.8240097e-10
1.4896212e-08
1.7845885e-10
1.4796436e-08
1.7454197e-10
1.4698842e-08
1.7065381e-10
1.4603418e-08
1.6679321e-10
1.4510158e-08
1.6295221e-10
1.4419064e-08
1.5911679e-10
1.4330146e-08
1.5526904e-10
1.4243423e-08
1.5139122e-10
1.415892e-08
1.4746914e-10
1.4076667e-08
1.4349476e-10
1.399669e-08
1.3946637e-10
1.3919019e-08
1.353876e-10
1.3843676e-08
1.3126493e-10
1.3770684e-08
1.2710536e-10
1.370006e-08
1.2291411e-10
1.3631825e-08
1.186937e-10
1.3565997e-08
1.1444376e-10
1.3502595e-08
1.1016229e-10
1.3441641e-08
1.0584681e-10
1.3383155e-08
1.014959e-10
1.3327158e-08
9.711013e-11
1.3273668e-08
9.2693046e-11
1.3222698e-08
8.8250998e-11
1.3174257e-08
8.3792893e-11
1.3128349e-08
7.9329416e-11
1.3084969e-08
7.4872694e-11
1.3044105e-08
7.0435784e-11
1.3005735e-08
6.6032877e-11
1.296983e-08
6.1679615e-11
1.2936348e-08
5.7393891e-11
1.2905234e-08
5.3196392e-11
1.287642e-08
4.9111325e-11
1.2849821e-08
4.5166701e-11
1.2825335e-08
4.1394351e-11
1.2802841e-08
3.7829076e-11
1.2782201e-08
3.4507e-11
1.2763259e-08
3.1462759e-11
1.2745846e-08
2.8725692e-11
1.2729785e-08
2.6315309e-11
1.27149e-08
2.4236648e-11
1.2701026e-08
2.2476457e-11
1.2688017e-08
2.1001228e-11
1.2675754e-08
1.9758541e-11
1.2664155e-08
1.8682202e-11
1.2653175e-08
1.7701197e-11
1.2642797e-08
1.6750108e-11
1.263303e-08
1.5779017e-11
1.2623894e-08
1.4759628e-11
1.2615411e-08
1.3687363e-11
1.2607589e-08
1.257797e-11
1.2600427e-08
1.1461188e-11
1.2593902e-08
1.0371162e-11
1.2587979e-08
9.3383065e-12
1.2582615e-08
8.3820791e-12
1.2577765e-08
7.5096176e-12
1.2573386e-08
6.7163201e-12
1.256944e-08
5.9916197e-12
1.2565897e-08
5.3224778e-12
1.256273e-08
4.6989176e-12
1.2559916e-08
4.1137843e-12
1.2557434e-08
3.5648224e-12
1.2555262e-08
3.0509511e-12
1.2553379e-08
2.5736302e-12
1.2551764e-08
2.1325374e-12
1.2550397e-08
1.7284181e-12
1.2549257e-08
1.3594005e-12
1.2548325e-08
1.0248974e-12
1.2547583e-08
7.2142168e-13
1.2547015e-08
4.4798332e-13
1.2546605e-08
2.001582e-13
1.2546339e-08
-2.2118274e-14
1.2546204e-08
-2.2274196e-13
1.2546186e-08
-4.0120909e-13
1.2546274e-08
-5.6101844e-13
1.2546454e-08
-6.9755144e-13
1.2546715e-08
-8.1570362e-13
1.2547044e-08
-9.1092674e-13
1.254743e-08
-9.8842895e-13
1.2547861e-08
-1.0433836e-12
1.2548327e-08
-1.0842612e-12
1.2548821e-08
-1.1071004e-12
1.2549333e-08
-1.121266e-12
1.2549858e-08
-1.1222103e-12
1.255039e-08
-1.1183102e-12
1.2550924e-08
-1.1036773e-12
1.2551455e-08
-1.088566e-12
1.2551978e-08
-1.0618563e-12
1.2552491e-08
-1.0360818e-12
1.2552989e-08
-9.9756e-13
1.2553469e-08
-9.626349e-13
1.2553925e-08
-9.1321426e-13
1.255436e-08
-8.7070976e-13
1.2554766e-08
-8.1188728e-13
1.2555146e-08
-7.6437069e-13
1.2555494e-08
-6.9941695e-13
1.2555815e-08
-6.5031081e-13
1.2556101e-08
-5.8098724e-13
1.2556362e-08
-5.3291698e-13
1.2556586e-08
-4.6026817e-13
1.2556786e-08
-4.1526247e-13
1.2556949e-08
-3.3995227e-13
1.2557091e-08
-3.0043753e-13
1.2557195e-08
-2.2349995e-13
1.2557284e-08
-1.9279298e-13
1.2557333e-08
-1.1565667e-13
1.2557375e-08
-9.8521518e-14
-2.1109566e-14
4.5944636e-08
2.5114093e-09
-4.5871491e-08
4.6258024e-08
3.2715917e-09
4.6593016e-08
3.9378537e-09
4.684446e-08
4.2542561e-09
4.7059985e-08
4.3605036e-09
4.7265161e-08
4.3817961e-09
4.7426678e-08
4.347696e-09
4.7503713e-08
4.2214193e-09
4.7476993e-08
3.989307e-09
4.7349876e-08
3.68222e-09
4.7142189e-08
3.3526054e-09
4.6877097e-08
3.0482085e-09
4.6572505e-08
2.7934287e-09
4.6238509e-08
2.5898765e-09
4.5879499e-08
2.427492e-09
4.5501027e-08
2.2962705e-09
4.5107672e-08
2.1885483e-09
4.4702187e-08
2.0977432e-09
4.4286158e-08
2.0183941e-09
4.3860761e-08
1.9464948e-09
4.3427144e-08
1.8794565e-09
4.2986531e-08
1.8157821e-09
4.2540231e-08
1.754705e-09
4.2089602e-08
1.6959021e-09
4.1636013e-08
1.6392906e-09
4.1180787e-08
1.5848803e-09
4.0725164e-08
1.5326993e-09
4.0270287e-08
1.4827687e-09
3.9817183e-08
1.4350657e-09
3.9366765e-08
1.3895282e-09
3.8919828e-08
1.3460678e-09
3.8477065e-08
1.3045811e-09
3.8039067e-08
1.2649587e-09
3.7606335e-08
1.2270918e-09
3.7179286e-08
1.1908753e-09
3.6758266e-08
1.1562107e-09
3.6343551e-08
1.1230072e-09
3.593536e-08
1.0911815e-09
3.5533858e-08
1.0606582e-09
3.5139162e-08
1.031369e-09
3.4751349e-08
1.0032519e-09
3.4370459e-08
9.7624987e-10
3.3996499e-08
9.503106e-10
3.362945e-08
9.2538485e-10
3.3269267e-08
9.0142617e-10
3.2915887e-08
8.7839024e-10
3.256923e-08
8.5623477e-10
3.2229202e-08
8.3491928e-10
3.1895699e-08
8.1440488e-10
3.1568606e-08
7.9465438e-10
3.1247806e-08
7.7563246e-10
3.0933172e-08
7.5730519e-10
3.0624578e-08
7.396403e-10
3.0321892e-08
7.2260678e-10
3.0024983e-08
7.0617524e-10
2.973372e-08
6.9031725e-10
2.9447971e-08
6.7500562e-10
2.9167607e-08
6.6021414e-10
2.8892498e-08
6.4591753e-10
2.8622519e-08
6.3209155e-10
2.8357546e-08
6.1871344e-10
2.8097458e-08
6.0576168e-10
2.7842137e-08
5.932165e-10
2.7591469e-08
5.8105936e-10
2.7345342e-08
5.6927287e-10
2.7103647e-08
5.5784012e-10
2.6866281e-08
5.4674433e-10
2.6633142e-08
5.3596857e-10
2.6404134e-08
5.254958e-10
2.6179165e-08
5.1530883e-10
2.5958146e-08
5.0539121e-10
2.5740993e-08
4.9572748e-10
2.5527627e-08
4.8630388e-10
2.5317971e-08
4.7710839e-10
2.5111951e-08
4.6813069e-10
2.4909496e-08
4.5936118e-10
2.4710538e-08
4.5079e-10
2.4515014e-08
4.4240588e-10
2.4322863e-08
4.3419608e-10
2.413403e-08
4.2614657e-10
2.3948464e-08
4.1824369e-10
2.3766116e-08
4.1047527e-10
2.3586944e-08
4.0283225e-10
2.3410906e-08
3.9530829e-10
2.3237962e-08
3.8789912e-10
2.3068076e-08
3.8059991e-10
2.2901213e-08
3.7340327e-10
2.2737345e-08
3.6629711e-10
2.2576446e-08
3.5926531e-10
2.2418498e-08
3.5228953e-10
2.2263487e-08
3.4535355e-10
2.2111404e-08
3.3844639e-10
2.196224e-08
3.3156468e-10
2.1815988e-08
3.2471113e-10
2.1672638e-08
3.1789127e-10
2.1532184e-08
3.1110784e-10
2.1394621e-08
3.0435659e-10
2.125995e-08
2.976233e-10
2.1128182e-08
2.9088508e-10
2.0999337e-08
2.8411366e-10
2.0873447e-08
2.7728152e-10
2.0750549e-08
2.7036673e-10
2.0630687e-08
2.6335687e-10
2.0513905e-08
2.5624895e-10
2.0400244e-08
2.490481e-10
2.0289745e-08
2.4176358e-10
2.0182445e-08
2.3440551e-10
2.0078378e-08
2.2698112e-10
1.9977578e-08
2.1949384e-10
1.9880079e-08
2.1194275e-10
1.9785917e-08
2.0432486e-10
1.9695127e-08
1.9663655e-10
1.9607746e-08
1.8887641e-10
1.952381e-08
1.8104625e-10
1.944335e-08
1.7315303e-10
1.9366393e-08
1.652082e-10
1.9292958e-08
1.572279e-10
1.9223056e-08
1.4923126e-10
1.9156688e-08
1.4124055e-10
1.9093844e-08
1.3327971e-10
1.9034502e-08
1.2537546e-10
1.8978624e-08
1.175569e-10
1.8926161e-08
1.0985749e-10
1.8877042e-08
1.023149e-10
1.8831181e-08
9.497291e-11
1.8788467e-08
8.7880581e-11
1.8748768e-08
8.109313e-11
1.8711928e-08
7.4669004e-11
1.8677767e-08
6.8668295e-11
1.8646083e-08
6.3146544e-11
1.8616659e-08
5.8150101e-11
1.8589267e-08
5.3707281e-11
1.856368e-08
4.9823033e-11
1.8539685e-08
4.6471471e-11
1.8517091e-08
4.3595503e-11
1.8495742e-08
4.1107536e-11
1.8475524e-08
3.8900497e-11
1.8456365e-08
3.6859809e-11
1.8438233e-08
3.4882378e-11
1.8421123e-08
3.2889128e-11
1.8405045e-08
3.0837159e-11
1.8390013e-08
2.8719402e-11
1.8376029e-08
2.6562152e-11
1.8363079e-08
2.4411219e-11
1.835113e-08
2.2320591e-11
1.8340132e-08
2.0335892e-11
1.8330026e-08
1.8487708e-11
1.8320751e-08
1.678529e-11
1.8312245e-08
1.5222406e-11
1.8304455e-08
1.378116e-11
1.8297335e-08
1.2442638e-11
1.8290844e-08
1.1189563e-11
1.8284946e-08
1.0011921e-11
1.8279607e-08
8.9037513e-12
1.8274794e-08
7.8643024e-12
1.8270474e-08
6.8930118e-12
1.8266616e-08
5.9905772e-12
1.8263189e-08
5.1554027e-12
1.8260163e-08
4.3861127e-12
1.8257509e-08
3.6790531e-12
1.8255199e-08
3.0308967e-12
1.825321e-08
2.4372266e-12
1.8251516e-08
1.8939393e-12
1.8250096e-08
1.3974768e-12
1.8248929e-08
9.4474617e-13
1.8247994e-08
5.3351705e-13
1.8247272e-08
1.6141368e-13
1.8246743e-08
-1.6853481e-13
1.8246387e-08
-4.602293e-13
1.8246187e-08
-7.1102686e-13
1.8246124e-08
-9.2486864e-13
1.824618e-08
-1.0991537e-12
1.8246337e-08
-1.2421393e-12
1.8246583e-08
-1.3526468e-12
1.8246902e-08
-1.4397578e-12
1.8247281e-08
-1.5018106e-12
1.8247709e-08
-1.5462251e-12
1.8248175e-08
-1.5697187e-12
1.8248669e-08
-1.5822132e-12
1.824918e-08
-1.5733856e-12
1.8249701e-08
-1.5564402e-12
1.8250221e-08
-1.5176647e-12
1.8250734e-08
-1.4757697e-12
1.8251231e-08
-1.4108124e-12
1.825171e-08
-1.349019e-12
1.8252161e-08
-1.2628187e-12
1.8252584e-08
-1.1877964e-12
1.8252972e-08
-1.0876881e-12
1.8253329e-08
-1.0070918e-12
1.8253646e-08
-8.978267e-13
1.8253931e-08
-8.1781932e-13
1.8254173e-08
-7.0245966e-13
1.8254386e-08
-6.2779653e-13
1.8254554e-08
-5.0802571e-13
1.8254697e-08
-4.4352394e-13
1.8254794e-08
-3.2070697e-13
1.8254873e-08
-2.7209092e-13
1.8254905e-08
-1.4758311e-13
1.8254929e-08
-1.2213209e-13
1.8780086e-15
4.7962273e-08
2.4534423e-09
-4.7904306e-08
4.8189698e-08
3.0441667e-09
4.8507365e-08
3.6201866e-09
4.8789765e-08
3.9718565e-09
4.9034037e-08
4.116231e-09
4.9271745e-08
4.1440884e-09
4.9502169e-08
4.1172719e-09
4.9697722e-08
4.0258665e-09
4.9832815e-08
3.8542143e-09
4.9897915e-08
3.6171196e-09
4.9900956e-08
3.3495641e-09
4.9858517e-08
3.0906482e-09
4.9784837e-08
2.867108e-09
4.9688252e-08
2.6864622e-09
4.9572441e-08
2.5433021e-09
4.9440289e-08
2.4284232e-09
4.9294441e-08
2.334396e-09
4.9136523e-08
2.2556611e-09
4.8967128e-08
2.1877896e-09
4.8786291e-08
2.1273317e-09
4.8593918e-08
2.0718288e-09
4.8389999e-08
2.0197014e-09
4.8174679e-08
1.9700257e-09
4.7948267e-08
1.9223132e-09
4.7711223e-08
1.8763352e-09
4.7464105e-08
1.8319984e-09
4.7207539e-08
1.7892647e-09
4.6942198e-08
1.7481104e-09
4.6668766e-08
1.7084968e-09
4.6387932e-08
1.6703628e-09
4.610037e-08
1.6336298e-09
4.5806741e-08
1.59821e-09
4.5507686e-08
1.5640132e-09
4.5203827e-08
1.5309517e-09
4.4895758e-08
1.4989434e-09
4.4584056e-08
1.4679132e-09
4.4269269e-08
1.4377946e-09
4.3951921e-08
1.4085288e-09
4.3632514e-08
1.3800654e-09
4.3311522e-08
1.3523616e-09
4.2989392e-08
1.325381e-09
4.2666549e-08
1.2990928e-09
4.2343389e-08
1.273471e-09
4.2020281e-08
1.2484927e-09
4.169757e-08
1.2241377e-09
4.1375572e-08
1.2003875e-09
4.1054582e-08
1.1772251e-09
4.0734867e-08
1.1546342e-09
4.0416673e-08
1.1325994e-09
4.0100221e-08
1.1111057e-09
3.9785715e-08
1.0901386e-09
3.9473336e-08
1.0696839e-09
3.9163249e-08
1.0497278e-09
3.8855599e-08
1.0302565e-09
3.8550518e-08
1.0112568e-09
3.8248119e-08
9.927154e-10
3.7948506e-08
9.7461929e-10
3.7651764e-08
9.5695559e-10
3.735797e-08
9.3971149e-10
3.7067188e-08
9.2287432e-10
3.6779469e-08
9.0643207e-10
3.6494858e-08
8.90373e-10
3.6213388e-08
8.7468631e-10
3.5935086e-08
8.5936141e-10
3.5659971e-08
8.4438787e-10
3.5388056e-08
8.2975474e-10
3.511935e-08
8.1545023e-10
3.4853857e-08
8.0146148e-10
3.4591578e-08
7.8777479e-10
3.4332512e-08
7.7437556e-10
3.4076653e-08
7.6124948e-10
3.3823998e-08
7.4838287e-10
3.3574538e-08
7.3576356e-10
3.3328266e-08
7.23381e-10
3.308517e-08
7.1122632e-10
3.284524e-08
6.9929119e-10
3.2608463e-08
6.8756675e-10
3.2374827e-08
6.7604216e-10
3.2144319e-08
6.6470455e-10
3.1916926e-08
6.5353906e-10
3.1692639e-08
6.425308e-10
3.1471448e-08
6.3166603e-10
3.1253346e-08
6.2093423e-10
3.1038327e-08
6.1032766e-10
3.0826385e-08
5.9984088e-10
3.0617517e-08
5.8946788e-10
3.0411721e-08
5.7919984e-10
3.0208995e-08
5.6902243e-10
3.0009344e-08
5.5891669e-10
2.9812773e-08
5.4886066e-10
2.9619292e-08
5.3883469e-10
2.9428913e-08
5.2882496e-10
2.9241651e-08
5.1882661e-10
2.905752e-08
5.0884181e-10
2.8876535e-08
4.988762e-10
2.8698711e-08
4.8893182e-10
2.8524066e-08
4.7900209e-10
2.8352622e-08
4.6906763e-10
2.8184409e-08
4.5909786e-10
2.8019468e-08
4.4905472e-10
2.7857849e-08
4.389008e-10
2.769961e-08
4.2860546e-10
2.7544816e-08
4.1815046e-10
2.7393535e-08
4.0752993e-10
2.7245834e-08
3.9674936e-10
2.7101777e-08
3.8582007e-10
2.6961428e-08
3.7475541e-10
2.6824844e-08
3.6356507e-10
2.6692083e-08
3.5225425e-10
2.6563204e-08
3.4082206e-10
2.6438264e-08
3.2926516e-10
2.6317321e-08
3.1757883e-10
2.6200436e-08
3.0576165e-10
2.6087666e-08
2.9381635e-10
2.5979066e-08
2.8175344e-10
2.5874684e-08
2.6958967e-10
2.5774562e-08
2.5734955e-10
2.5678732e-08
2.4506201e-10
2.558721e-08
2.3276188e-10
2.5500004e-08
2.2048644e-10
2.5417101e-08
2.0827809e-10
2.5338476e-08
1.9618214e-10
2.5264082e-08
1.8425088e-10
2.5193856e-08
1.7254149e-10
2.5127708e-08
1.6112039e-10
2.5065529e-08
1.5006015e-10
2.5007179e-08
1.3944263e-10
2.4952495e-08
1.2935285e-10
2.4901285e-08
1.1987878e-10
2.4853331e-08
1.1110034e-10
2.4808396e-08
1.0308521e-10
2.4766229e-08
9.5873956e-11
2.4726577e-08
8.9475412e-11
2.4689195e-08
8.3853722e-11
2.4653859e-08
7.8931105e-11
2.4620381e-08
7.4585799e-11
2.4588611e-08
7.0670644e-11
2.4558445e-08
6.7025699e-11
2.4529819e-08
6.3507909e-11
2.4502704e-08
6.0004108e-11
2.4477089e-08
5.6452213e-11
2.4452972e-08
5.2836714e-11
2.4430343e-08
4.9190809e-11
2.4409182e-08
4.5572954e-11
2.4389445e-08
4.2057071e-11
2.4371077e-08
3.8704183e-11
2.4354005e-08
3.5558976e-11
2.4338157e-08
3.2634217e-11
2.4323454e-08
2.9924933e-11
2.4309829e-08
2.7405994e-11
2.4297218e-08
2.5053973e-11
2.4285565e-08
2.2842788e-11
2.4274817e-08
2.0759984e-11
2.4264927e-08
1.8793731e-11
2.4255847e-08
1.6944009e-11
2.4247534e-08
1.5206064e-11
2.4239942e-08
1.3582375e-11
2.4233031e-08
1.206692e-11
2.4226757e-08
1.0659931e-11
2.4221083e-08
9.3526003e-12
2.4215971e-08
8.1431138e-12
2.4211387e-08
7.0214301e-12
2.4207295e-08
5.985242e-12
2.4203668e-08
5.0252595e-12
2.4200472e-08
4.1407868e-12
2.4197681e-08
3.3243509e-12
2.4195265e-08
2.5770341e-12
2.41932e-08
1.8963957e-12
2.4191457e-08
1.2832022e-12
2.4190011e-08
7.3494074e-13
2.4188834e-08
2.5155417e-13
2.4187904e-08
-1.690499e-13
2.4187194e-08
-5.3217831e-13
2.4186684e-08
-8.4203028e-13
2.4186348e-08
-1.1042336e-12
2.4186169e-08
-1.3229051e-12
2.4186124e-08
-1.5011117e-12
2.4186196e-08
-1.6413949e-12
2.4186364e-08
-1.7500035e-12
2.4186611e-08
-1.8207785e-12
2.4186919e-08
-1.8644726e-12
2.4187272e-08
-1.8709396e-12
2.4187655e-08
-1.858418e-12
2.4188053e-08
-1.8087432e-12
2.4188454e-08
-1.7505569e-12
2.4188847e-08
-1.6553947e-12
2.4189224e-08
-1.5649856e-12
2.4189575e-08
-1.4385921e-12
2.4189899e-08
-1.3309873e-12
2.4190185e-08
-1.1841013e-12
2.419044e-08
-1.072159e-12
2.419065e-08
-9.1258554e-13
2.4190828e-08
-8.0645032e-13
2.4190959e-08
-6.3888982e-13
2.4191063e-08
-5.4756914e-13
2.4191117e-08
-3.7488349e-13
2.4191153e-08
-3.0728239e-13
2.4191137e-08
-1.3154218e-13
2.4191111e-08
-9.6862276e-14
7.5468757e-14
5.0046928e-08
2.3927081e-09
-4.9986193e-08
5.022192e-08
2.8691743e-09
5.0494873e-08
3.3472335e-09
5.0770769e-08
3.695961e-09
5.101546e-08
3.8715396e-09
5.1240946e-08
3.9186023e-09
5.1460666e-08
3.8975515e-09
5.1662606e-08
3.8239272e-09
5.1826143e-08
3.6906773e-09
5.193934e-08
3.5039226e-09
5.2003895e-08
3.2850089e-09
5.2031376e-08
3.0631667e-09
5.2034808e-08
2.8636762e-09
5.2022679e-08
2.6985911e-09
5.1999343e-08
2.5666389e-09
5.1967013e-08
2.4607528e-09
5.1927409e-08
2.3739997e-09
5.1881753e-08
2.3013175e-09
5.1830525e-08
2.2390175e-09
5.1773594e-08
2.1842632e-09
5.1710513e-08
2.1349092e-09
5.164077e-08
2.0894446e-09
5.1563911e-08
2.0468845e-09
5.1479596e-08
2.0066286e-09
5.1387602e-08
1.9683295e-09
5.1287809e-08
1.9317913e-09
5.1180178e-08
1.8968952e-09
5.1064736e-08
1.8635523e-09
5.0941554e-08
1.8316785e-09
5.0810737e-08
1.8011805e-09
5.0672411e-08
1.7719556e-09
5.0526725e-08
1.7438957e-09
5.0373845e-08
1.7168932e-09
5.0213952e-08
1.6908446e-09
5.0047242e-08
1.6656535e-09
4.9873924e-08
1.6412316e-09
4.9694219e-08
1.6174999e-09
4.9508359e-08
1.5943879e-09
4.931659e-08
1.5718346e-09
4.9119165e-08
1.5497872e-09
4.8916345e-08
1.5282011e-09