/*--------------------------------*- C++ -*----------------------------------*\
| =========                 |                                                 |
| \\      /  F ield         | OpenFOAM: The Open Source CFD Toolbox           |
|  \\    /   O peration     | Version:  5.x                                   |
|   \\  /    A nd           | Web:      www.OpenFOAM.org                      |
|    \\/     M anipulation  |                                                 |
\*---------------------------------------------------------------------------*/
FoamFile
{
    version     2.0;
    format      ascii;
    class       volVectorField;
    location    "0.2";
    object      U;
}
// * * * * * * * * * * * * * * * * * * * * * * * * * * * * * * * * * * * * * //

dimensions      [0 1 -1 0 0 0 0];

internalField   nonuniform List<vector> 
21600
(
(0.4455228 0.0096439558 0)
(0.40252761 0.013126925 0)
(0.36162219 0.013380712 0)
(0.3200749 0.012300409 0)
(0.27849018 0.01102262 0)
(0.2387576 0.0096237141 0)
(0.20301708 0.0078973706 0)
(0.17305914 0.0058416372 0)
(0.14936842 0.0036677493 0)
(0.13156977 0.0018307662 0)
(0.11860508 0.00060947205 0)
(0.10929366 -4.4466115e-05 0)
(0.10261936 -0.00031928484 0)
(0.097740287 -0.00036977254 0)
(0.094024788 -0.00030772517 0)
(0.091005523 -0.0001993418 0)
(0.088372949 -8.6954336e-05 0)
(0.085948514 5.9457591e-06 0)
(0.083645357 7.1929468e-05 0)
(0.081432575 0.00011294928 0)
(0.079307244 0.00013457135 0)
(0.077276243 0.00014280073 0)
(0.075346781 0.00014270166 0)
(0.073522641 0.00013798926 0)
(0.071803502 0.00013111148 0)
(0.070185609 0.00012351914 0)
(0.068662952 0.00011598771 0)
(0.067228289 0.00010889397 0)
(0.065873996 0.00010237693 0)
(0.064592664 9.645027e-05 0)
(0.063377433 9.1073184e-05 0)
(0.06222214 8.6186496e-05 0)
(0.061121349 8.1728993e-05 0)
(0.060070309 7.7644218e-05 0)
(0.059064886 7.3882873e-05 0)
(0.058101484 7.0403107e-05 0)
(0.057176963 6.7169987e-05 0)
(0.056288564 6.4154626e-05 0)
(0.055433851 6.1333291e-05 0)
(0.054610649 5.8686479e-05 0)
(0.053817006 5.619813e-05 0)
(0.053051151 5.3854844e-05 0)
(0.05231147 5.1645263e-05 0)
(0.051596482 4.9559492e-05 0)
(0.050904826 4.7588755e-05 0)
(0.050235239 4.5725109e-05 0)
(0.049586556 4.3961319e-05 0)
(0.048957692 4.22907e-05 0)
(0.048347641 4.0707069e-05 0)
(0.047755466 3.9204716e-05 0)
(0.047180293 3.7778381e-05 0)
(0.046621309 3.642314e-05 0)
(0.046077754 3.5134435e-05 0)
(0.045548919 3.3908016e-05 0)
(0.045034139 3.2739956e-05 0)
(0.044532797 3.1626557e-05 0)
(0.04404431 3.0564357e-05 0)
(0.043568137 2.9550029e-05 0)
(0.043103771 2.8580417e-05 0)
(0.042650738 2.7652505e-05 0)
(0.042208595 2.6763538e-05 0)
(0.041776929 2.5911042e-05 0)
(0.041355349 2.5092925e-05 0)
(0.040943489 2.4307424e-05 0)
(0.040541 2.3553098e-05 0)
(0.040147551 2.2828652e-05 0)
(0.039762828 2.213285e-05 0)
(0.039386533 2.1464316e-05 0)
(0.039018382 2.082152e-05 0)
(0.038658114 2.0202719e-05 0)
(0.038305482 1.9606123e-05 0)
(0.037960262 1.9029986e-05 0)
(0.037622241 1.8472862e-05 0)
(0.037291225 1.7933679e-05 0)
(0.036967025 1.7411852e-05 0)
(0.036649464 1.6907092e-05 0)
(0.036338365 1.641922e-05 0)
(0.036033563 1.5947787e-05 0)
(0.035734898 1.5491925e-05 0)
(0.035442225 1.5050249e-05 0)
(0.035155415 1.4621138e-05 0)
(0.034874356 1.4203056e-05 0)
(0.034598945 1.3795054e-05 0)
(0.03432909 1.3396944e-05 0)
(0.034064696 1.3009324e-05 0)
(0.033805664 1.2633117e-05 0)
(0.033551892 1.2269025e-05 0)
(0.033303283 1.1916846e-05 0)
(0.033059748 1.1575224e-05 0)
(0.032821224 1.124175e-05 0)
(0.03258767 1.0913692e-05 0)
(0.032359075 1.0588844e-05 0)
(0.032135435 1.0266366e-05 0)
(0.031916749 9.9470382e-06 0)
(0.031703001 9.6330032e-06 0)
(0.031494151 9.3269068e-06 0)
(0.031290141 9.0309542e-06 0)
(0.031090906 8.7460251e-06 0)
(0.030896386 8.4713414e-06 0)
(0.030706548 8.2046207e-06 0)
(0.030521391 7.9427874e-06 0)
(0.030340955 7.6828322e-06 0)
(0.030165302 7.422586e-06 0)
(0.029994516 7.1610784e-06 0)
(0.029828679 6.8985249e-06 0)
(0.029667865 6.6359995e-06 0)
(0.029512132 6.374942e-06 0)
(0.02936152 6.116683e-06 0)
(0.029216058 5.8620427e-06 0)
(0.02907577 5.6112322e-06 0)
(0.028940679 5.3639112e-06 0)
(0.028810816 5.1194567e-06 0)
(0.028686219 4.8771186e-06 0)
(0.028566932 4.6363309e-06 0)
(0.028452999 4.3968047e-06 0)
(0.028344465 4.1586712e-06 0)
(0.028241362 3.9222551e-06 0)
(0.028143714 3.6880489e-06 0)
(0.02805153 3.4564019e-06 0)
(0.027964807 3.2275488e-06 0)
(0.027883529 3.0013601e-06 0)
(0.02780767 2.7776096e-06 0)
(0.027737193 2.5558903e-06 0)
(0.027672044 2.3360405e-06 0)
(0.027612158 2.1180911e-06 0)
(0.027557435 1.9027907e-06 0)
(0.027507747 1.6914743e-06 0)
(0.02746291 1.4865003e-06 0)
(0.027422695 1.2908396e-06 0)
(0.027386792 1.1082748e-06 0)
(0.027354836 9.4261913e-07 0)
(0.027326384 7.9770142e-07 0)
(0.027300961 6.763426e-07 0)
(0.027278043 5.8030554e-07 0)
(0.027257141 5.0923231e-07 0)
(0.027237785 4.6092131e-07 0)
(0.027219618 4.3078545e-07 0)
(0.027202365 4.1307953e-07 0)
(0.027185912 4.0112799e-07 0)
(0.027170221 3.8913022e-07 0)
(0.027155389 3.7226705e-07 0)
(0.027141518 3.4817628e-07 0)
(0.027128772 3.1627173e-07 0)
(0.027117228 2.7850579e-07 0)
(0.027106969 2.3765687e-07 0)
(0.027097946 1.9746157e-07 0)
(0.027090123 1.6044246e-07 0)
(0.027083352 1.2852173e-07 0)
(0.027077554 1.0155371e-07 0)
(0.027072573 7.9110267e-08 0)
(0.027068369 5.9538584e-08 0)
(0.027064824 4.2112772e-08 0)
(0.02706195 2.5610213e-08 0)
(0.027059645 1.0168125e-08 0)
(0.027057943 -4.8200111e-09 0)
(0.027056731 -1.8660374e-08 0)
(0.027056046 -3.0167026e-08 0)
(0.027055759 -3.6811097e-08 0)
(0.027055913 -4.6905916e-08 0)
(0.027056365 -5.4210948e-08 0)
(0.027057176 -5.9607278e-08 0)
(0.027058192 -6.379456e-08 0)
(0.027059501 -6.737519e-08 0)
(0.027060941 -6.955014e-08 0)
(0.027062625 -7.1693098e-08 0)
(0.027064381 -7.3052939e-08 0)
(0.027066351 -7.488586e-08 0)
(0.027068343 -7.5589204e-08 0)
(0.027070516 -7.6465937e-08 0)
(0.027072654 -7.6018763e-08 0)
(0.027074939 -7.5650061e-08 0)
(0.027077124 -7.3615965e-08 0)
(0.027079418 -7.1761292e-08 0)
(0.027081554 -6.8516259e-08 0)
(0.02708378 -6.5904733e-08 0)
(0.027085806 -6.2344032e-08 0)
(0.027087924 -5.9688221e-08 0)
(0.027089815 -5.6273842e-08 0)
(0.027091813 -5.4284836e-08 0)
(0.027093568 -5.1291753e-08 0)
(0.027095451 -4.9727769e-08 0)
(0.027097067 -4.6863294e-08 0)
(0.027098828 -4.5561635e-08 0)
(0.027100296 -4.2593693e-08 0)
(0.027101923 -4.1331598e-08 0)
(0.027103227 -3.8038703e-08 0)
(0.027104702 -3.6676269e-08 0)
(0.027105826 -3.3163367e-08 0)
(0.027107136 -3.1796144e-08 0)
(0.027108071 -2.8069372e-08 0)
(0.027109205 -2.6738637e-08 0)
(0.027109946 -2.2814934e-08 0)
(0.027110892 -2.1513636e-08 0)
(0.02711144 -1.7440115e-08 0)
(0.027112187 -1.6180055e-08 0)
(0.02711255 -1.2147947e-08 0)
(0.027113088 -1.0972896e-08 0)
(0.027113296 -7.3947921e-09 0)
(0.027113614 -6.2109401e-09 0)
(0.02711373 -3.3828816e-09 0)
(0.47644112 0.016884506 0)
(0.47433883 0.02359208 0)
(0.47055828 0.025569921 0)
(0.463412 0.025276448 0)
(0.4522981 0.024399243 0)
(0.43781782 0.023234226 0)
(0.42105938 0.021509677 0)
(0.40325598 0.019071393 0)
(0.38518415 0.016042269 0)
(0.36749405 0.012843606 0)
(0.35057828 0.0099263829 0)
(0.33465951 0.00753708 0)
(0.31993703 0.0057118037 0)
(0.30647842 0.0043735495 0)
(0.29430809 0.0034400715 0)
(0.28334056 0.0028188818 0)
(0.27343616 0.0024147147 0)
(0.26444754 0.0021457985 0)
(0.25624137 0.001954002 0)
(0.24870544 0.0018036048 0)
(0.24174882 0.0016749901 0)
(0.23529874 0.0015585637 0)
(0.22929645 0.0014503968 0)
(0.22369348 0.0013494054 0)
(0.21844882 0.0012556562 0)
(0.21352694 0.0011694332 0)
(0.20889664 0.001090812 0)
(0.20453019 0.0010195812 0)
(0.20040286 0.00095526846 0)
(0.19649264 0.00089723864 0)
(0.19278001 0.00084479642 0)
(0.18924768 0.00079725915 0)
(0.18588039 0.00075399781 0)
(0.18266466 0.00071445545 0)
(0.17958859 0.00067815174 0)
(0.17664165 0.0006446795 0)
(0.17381448 0.00061369739 0)
(0.17109873 0.00058492077 0)
(0.16848692 0.00055811248 0)
(0.16597233 0.00053307395 0)
(0.16354884 0.00050963768 0)
(0.16121092 0.0004876606 0)
(0.15895349 0.00046701903 0)
(0.15677193 0.00044760445 0)
(0.15466197 0.00042932059 0)
(0.15261966 0.00041208116 0)
(0.15064138 0.0003958083 0)
(0.14872377 0.00038043136 0)
(0.14686371 0.00036588582 0)
(0.1450583 0.00035211264 0)
(0.14330486 0.00033905789 0)
(0.14160088 0.00032667197 0)
(0.13994404 0.00031490937 0)
(0.13833214 0.00030372817 0)
(0.13676316 0.00029308981 0)
(0.13523521 0.0002829586 0)
(0.13374649 0.00027330155 0)
(0.13229536 0.00026408785 0)
(0.13088026 0.00025528889 0)
(0.12949973 0.00024687808 0)
(0.12815241 0.00023883106 0)
(0.12683702 0.00023112567 0)
(0.12555236 0.00022374201 0)
(0.1242973 0.00021666213 0)
(0.12307074 0.00020986982 0)
(0.12187169 0.00020334995 0)
(0.12069918 0.00019708814 0)
(0.11955232 0.00019107016 0)
(0.11843023 0.00018528194 0)
(0.11733214 0.0001797094 0)
(0.1162573 0.00017433908 0)
(0.11520501 0.0001691584 0)
(0.11417462 0.0001641564 0)
(0.11316551 0.00015932375 0)
(0.11217711 0.00015465292 0)
(0.11120884 0.00015013736 0)
(0.11026019 0.00014577084 0)
(0.10933065 0.0001415463 0)
(0.10841976 0.00013745558 0)
(0.10752708 0.00013348937 0)
(0.10665222 0.00012963834 0)
(0.10579484 0.00012589412 0)
(0.10495459 0.00012225073 0)
(0.10413118 0.00011870469 0)
(0.10332428 0.00011525476 0)
(0.10253361 0.00011190007 0)
(0.10175889 0.00010863845 0)
(0.10099985 0.0001054645 0)
(0.10025628 0.00010236953 0)
(0.099528026 9.9342401e-05 0)
(0.098814953 9.6372389e-05 0)
(0.098116987 9.3451741e-05 0)
(0.097434057 9.0577906e-05 0)
(0.096766089 8.7753416e-05 0)
(0.096112983 8.4984262e-05 0)
(0.095474623 8.2276507e-05 0)
(0.094850878 7.9633247e-05 0)
(0.094241644 7.7052176e-05 0)
(0.093646855 7.4525413e-05 0)
(0.09306652 7.2040873e-05 0)
(0.092500712 6.9585347e-05 0)
(0.09194958 6.714751e-05 0)
(0.091413305 6.4720345e-05 0)
(0.090892095 6.2301759e-05 0)
(0.090386142 5.9894008e-05 0)
(0.089895622 5.7502e-05 0)
(0.089420676 5.5131376e-05 0)
(0.088961424 5.2786741e-05 0)
(0.088517965 5.0470554e-05 0)
(0.088090399 4.8182971e-05 0)
(0.087678827 4.5922437e-05 0)
(0.087283365 4.3686706e-05 0)
(0.086904134 4.1473656e-05 0)
(0.08654126 3.9282256e-05 0)
(0.086194862 3.7112967e-05 0)
(0.08586504 3.4967981e-05 0)
(0.085551866 3.2850547e-05 0)
(0.085255374 3.0764707e-05 0)
(0.084975562 2.8714456e-05 0)
(0.084712373 2.6703735e-05 0)
(0.084465714 2.473591e-05 0)
(0.084235421 2.2814534e-05 0)
(0.084021289 2.0943331e-05 0)
(0.08382302 1.9127332e-05 0)
(0.083640255 1.7372834e-05 0)
(0.083472507 1.5688645e-05 0)
(0.083319206 1.4085626e-05 0)
(0.083179612 1.2577417e-05 0)
(0.083052887 1.1178893e-05 0)
(0.082938004 9.9058936e-06 0)
(0.082833855 8.7723113e-06 0)
(0.082739173 7.7889779e-06 0)
(0.082652701 6.960096e-06 0)
(0.082573123 6.2824207e-06 0)
(0.082499291 5.7425444e-06 0)
(0.082430145 5.3184374e-06 0)
(0.082364961 4.9798687e-06 0)
(0.082303192 4.6939431e-06 0)
(0.082244685 4.4282288e-06 0)
(0.082189397 4.1573671e-06 0)
(0.082137581 3.8643776e-06 0)
(0.082089403 3.5442379e-06 0)
(0.08204516 3.200836e-06 0)
(0.082004874 2.8468822e-06 0)
(0.081968624 2.4972368e-06 0)
(0.08193614 2.1674204e-06 0)
(0.081907283 1.8669493e-06 0)
(0.081881612 1.6009472e-06 0)
(0.081858953 1.3670339e-06 0)
(0.081838878 1.161166e-06 0)
(0.081821322 9.7610677e-07 0)
(0.081805925 8.0779338e-07 0)
(0.08179273 6.5166956e-07 0)
(0.0817814 5.0759569e-07 0)
(0.081772028 3.7389917e-07 0)
(0.081764248 2.5244213e-07 0)
(0.081758181 1.4367447e-07 0)
(0.081753418 5.1265298e-08 0)
(0.081750119 -3.4580019e-08 0)
(0.081747843 -1.072067e-07 0)
(0.081746804 -1.7143133e-07 0)
(0.081746532 -2.2457314e-07 0)
(0.08174731 -2.7105387e-07 0)
(0.081748637 -3.0914917e-07 0)
(0.081750867 -3.4228219e-07 0)
(0.081753455 -3.689477e-07 0)
(0.081756829 -3.9255015e-07 0)
(0.081760379 -4.0858478e-07 0)
(0.081764601 -4.2199172e-07 0)
(0.081768812 -4.2820253e-07 0)
(0.081773586 -4.3159297e-07 0)
(0.081778163 -4.2740325e-07 0)
(0.081783207 -4.2161936e-07 0)
(0.081787888 -4.0987389e-07 0)
(0.081792984 -3.9874315e-07 0)
(0.081797589 -3.8363329e-07 0)
(0.081802601 -3.7050254e-07 0)
(0.081807018 -3.5424332e-07 0)
(0.081811862 -3.4182806e-07 0)
(0.081816023 -3.2554287e-07 0)
(0.081820642 -3.132937e-07 0)
(0.081824484 -2.9627399e-07 0)
(0.081828816 -2.8395946e-07 0)
(0.081832277 -2.657243e-07 0)
(0.081836267 -2.5299159e-07 0)
(0.081839292 -2.3322119e-07 0)
(0.081842888 -2.2009944e-07 0)
(0.08184544 -1.9945371e-07 0)
(0.081848609 -1.8657905e-07 0)
(0.081850669 -1.6526273e-07 0)
(0.081853391 -1.5303375e-07 0)
(0.081854959 -1.3119498e-07 0)
(0.081857215 -1.198467e-07 0)
(0.081858308 -9.7696819e-08 0)
(0.081860081 -8.7604245e-08 0)
(0.081860741 -6.577251e-08 0)
(0.081862009 -5.7537184e-08 0)
(0.081862323 -3.717807e-08 0)
(0.08186305 -3.1461247e-08 0)
(0.081863196 -1.2615428e-08 0)
(0.47970511 0.015727166 0)
(0.48103009 0.021469231 0)
(0.48384131 0.024560658 0)
(0.48652502 0.025570539 0)
(0.48779793 0.025685972 0)
(0.48722552 0.025386022 0)
(0.48485267 0.024554135 0)
(0.48089227 0.022988307 0)
(0.47553008 0.020766119 0)
(0.46896746 0.018200324 0)
(0.4614601 0.015679514 0)
(0.45326058 0.013471306 0)
(0.44467016 0.011668677 0)
(0.43592426 0.010230245 0)
(0.42723073 0.0090931206 0)
(0.41869002 0.0081897584 0)
(0.41034262 0.0074572985 0)
(0.40220237 0.0068442015 0)
(0.39427312 0.0063135785 0)
(0.38655595 0.0058418334 0)
(0.37905222 0.0054149298 0)
(0.37176444 0.0050248188 0)
(0.36469583 0.0046669336 0)
(0.35784936 0.0043385803 0)
(0.3512269 0.0040379408 0)
(0.34482859 0.0037634704 0)
(0.33865281 0.0035136142 0)
(0.33269608 0.00328663 0)
(0.32695334 0.0030806029 0)
(0.32141828 0.0028935423 0)
(0.31608368 0.0027234858 0)
(0.31094169 0.0025685763 0)
(0.30598411 0.0024271073 0)
(0.3012026 0.002297543 0)
(0.29658884 0.0021785223 0)
(0.29213467 0.0020688523 0)
(0.28783218 0.0019674962 0)
(0.28367377 0.0018735577 0)
(0.27965219 0.0017862641 0)
(0.27576055 0.0017049494 0)
(0.27199236 0.0016290378 0)
(0.26834149 0.0015580294 0)
(0.26480217 0.0014914869 0)
(0.26136898 0.0014290255 0)
(0.25803684 0.001370304 0)
(0.25480099 0.0013150186 0)
(0.25165695 0.0012628973 0)
(0.24860053 0.0012136959 0)
(0.24562779 0.0011671939 0)
(0.24273503 0.001123192 0)
(0.23991879 0.001081509 0)
(0.2371758 0.0010419802 0)
(0.23450299 0.0010044551 0)
(0.23189745 0.00096879606 0)
(0.22935646 0.00093487684 0)
(0.22687744 0.00090258136 0)
(0.22445796 0.00087180271 0)
(0.22209574 0.00084244193 0)
(0.21978861 0.00081440763 0)
(0.21753454 0.00078761539 0)
(0.21533158 0.00076198801 0)
(0.21317794 0.00073745495 0)
(0.21107187 0.00071395224 0)
(0.20901175 0.00069142133 0)
(0.20699604 0.00066980845 0)
(0.20502325 0.00064906306 0)
(0.20309199 0.00062913719 0)
(0.20120095 0.00060998435 0)
(0.19934888 0.00059155968 0)
(0.19753461 0.00057381984 0)
(0.19575704 0.00055672411 0)
(0.19401513 0.00054023483 0)
(0.1923079 0.00052431863 0)
(0.19063444 0.00050894613 0)
(0.18899386 0.00049409172 0)
(0.18738532 0.00047973173 0)
(0.18580804 0.00046584304 0)
(0.18426127 0.00045240112 0)
(0.18274429 0.00043937998 0)
(0.18125648 0.00042675251 0)
(0.17979724 0.00041449299 0)
(0.17836602 0.00040257886 0)
(0.1769623 0.00039099283 0)
(0.17558562 0.00037972238 0)
(0.17423551 0.00036875842 0)
(0.17291154 0.00035809147 0)
(0.17161327 0.00034770855 0)
(0.17034037 0.00033759044 0)
(0.16909249 0.00032771267 0)
(0.16786941 0.00031804824 0)
(0.16667092 0.00030857348 0)
(0.16549688 0.00029927243 0)
(0.16434716 0.00029013981 0)
(0.16322162 0.00028117911 0)
(0.16212013 0.00027239819 0)
(0.16104252 0.00026380221 0)
(0.15998866 0.00025538819 0)
(0.15895844 0.00024714156 0)
(0.15795184 0.00023903753 0)
(0.15696893 0.00023104516 0)
(0.15600988 0.00022313434 0)
(0.15507494 0.0002152815 0)
(0.1541644 0.00020747379 0)
(0.15327857 0.00019970907 0)
(0.15241778 0.00019199399 0)
(0.15158229 0.00018433963 0)
(0.15077235 0.00017675764 0)
(0.14998818 0.00016925654 0)
(0.14922998 0.00016184019 0)
(0.14849797 0.00015450781 0)
(0.14779234 0.00014725579 0)
(0.14711334 0.0001400798 0)
(0.14646117 0.00013297688 0)
(0.14583609 0.00012594701 0)
(0.14523829 0.00011899417 0)
(0.14466795 0.00011212623 0)
(0.14412521 0.00010535402 0)
(0.14361012 9.8690365e-05 0)
(0.14312268 9.2149066e-05 0)
(0.14266281 8.5744463e-05 0)
(0.14223033 7.9491223e-05 0)
(0.14182496 7.3405203e-05 0)
(0.14144632 6.7504079e-05 0)
(0.14109386 6.1808616e-05 0)
(0.14076695 5.6343068e-05 0)
(0.14046472 5.1136186e-05 0)
(0.14018619 4.6220601e-05 0)
(0.13993009 4.1632451e-05 0)
(0.13969505 3.7408549e-05 0)
(0.1394794 3.3583692e-05 0)
(0.1392814 3.0185162e-05 0)
(0.13909908 2.7228251e-05 0)
(0.13893058 2.4709984e-05 0)
(0.13877392 2.2606018e-05 0)
(0.13862745 2.0867884e-05 0)
(0.13848965 1.9426495e-05 0)
(0.13835952 1.8197744e-05 0)
(0.13823626 1.7094769e-05 0)
(0.13811968 1.6038813e-05 0)
(0.13800963 1.4971703e-05 0)
(0.13790644 1.3860647e-05 0)
(0.1378102 1.2701361e-05 0)
(0.13772127 1.1511775e-05 0)
(0.13763949 1.0326082e-05 0)
(0.13756492 9.1817336e-06 0)
(0.13749702 8.1122258e-06 0)
(0.13743559 7.1370723e-06 0)
(0.13737988 6.2628231e-06 0)
(0.13732966 5.4817984e-06 0)
(0.13728423 4.7812562e-06 0)
(0.1372435 4.1448586e-06 0)
(0.13720685 3.5614288e-06 0)
(0.13717436 3.0217283e-06 0)
(0.13714541 2.5235096e-06 0)
(0.13712017 2.0642321e-06 0)
(0.13709798 1.6456431e-06 0)
(0.13707907 1.2656692e-06 0)
(0.13706271 9.2562184e-07 0)
(0.13704922 6.2242892e-07 0)
(0.13703781 3.5556277e-07 0)
(0.13702888 1.1789429e-07 0)
(0.1370216 -8.77339e-08 0)
(0.13701649 -2.6776361e-07 0)
(0.13701265 -4.2789842e-07 0)
(0.13701071 -5.7227654e-07 0)
(0.13700968 -6.9182811e-07 0)
(0.13701034 -7.9511354e-07 0)
(0.13701159 -8.764823e-07 0)
(0.1370143 -9.4292511e-07 0)
(0.13701727 -9.8946772e-07 0)
(0.13702151 -1.0223967e-06 0)
(0.13702567 -1.035574e-06 0)
(0.13703094 -1.039777e-06 0)
(0.13703584 -1.029456e-06 0)
(0.13704174 -1.0151427e-06 0)
(0.13704701 -9.9102701e-07 0)
(0.13705324 -9.6656635e-07 0)
(0.13705861 -9.3450614e-07 0)
(0.13706492 -9.0588879e-07 0)
(0.13707018 -8.687947e-07 0)
(0.13707639 -8.3607107e-07 0)
(0.13708135 -7.9366875e-07 0)
(0.13708729 -7.5754516e-07 0)
(0.13709179 -7.100831e-07 0)
(0.13709731 -6.711985e-07 0)
(0.13710123 -6.1932935e-07 0)
(0.13710623 -5.7908027e-07 0)
(0.13710947 -5.2498851e-07 0)
(0.13711388 -4.8551124e-07 0)
(0.13711642 -4.3017775e-07 0)
(0.1371202 -3.9294385e-07 0)
(0.13712204 -3.3693393e-07 0)
(0.13712516 -3.0301351e-07 0)
(0.13712634 -2.4680095e-07 0)
(0.13712879 -2.1757247e-07 0)
(0.13712938 -1.620966e-07 0)
(0.13713112 -1.3953072e-07 0)
(0.13713126 -8.6216012e-08 0)
(0.13713223 -7.3209365e-08 0)
(0.13713218 -2.1521239e-08 0)
(0.48217112 0.014705554 0)
(0.48320772 0.019031444 0)
(0.48581286 0.022147057 0)
(0.48932201 0.023671895 0)
(0.49274694 0.024172882 0)
(0.49551963 0.024136785 0)
(0.49748409 0.0236515 0)
(0.49861401 0.022620184 0)
(0.49887378 0.0210581 0)
(0.49820795 0.019154336 0)
(0.49662879 0.017184285 0)
(0.49422841 0.01538479 0)
(0.49118403 0.01387256 0)
(0.48768675 0.012655762 0)
(0.48390176 0.011678342 0)
(0.47993111 0.010878842 0)
(0.47582554 0.010208024 0)
(0.47160728 0.0096288717 0)
(0.46728611 0.0091142826 0)
(0.4628682 0.0086453258 0)
(0.45836056 0.0082096127 0)
(0.4537727 0.0077996246 0)
(0.44911672 0.0074112201 0)
(0.44440653 0.0070423959 0)
(0.43965683 0.0066923477 0)
(0.43488219 0.0063607831 0)
(0.43009653 0.0060475247 0)
(0.42531266 0.0057522328 0)
(0.42054213 0.0054743372 0)
(0.41579523 0.0052130741 0)
(0.41108099 0.0049675576 0)
(0.40640724 0.0047368457 0)
(0.4017807 0.0045199894 0)
(0.39720712 0.0043160635 0)
(0.39269127 0.0041241848 0)
(0.38823716 0.0039435218 0)
(0.383848 0.0037732991 0)
(0.37952638 0.0036127983 0)
(0.37527428 0.0034613568 0)
(0.37109318 0.003318364 0)
(0.36698407 0.0031832575 0)
(0.36294755 0.0030555178 0)
(0.35898385 0.0029346637 0)
(0.3550929 0.0028202475 0)
(0.35127434 0.0027118524 0)
(0.34752762 0.0026090893 0)
(0.34385196 0.0025115957 0)
(0.34024644 0.0024190338 0)
(0.33671001 0.0023310896 0)
(0.33324153 0.0022474714 0)
(0.32983977 0.002167908 0)
(0.32650344 0.0020921472 0)
(0.3232312 0.0020199547 0)
(0.32002171 0.0019511124 0)
(0.31687358 0.0018854174 0)
(0.31378543 0.0018226799 0)
(0.31075588 0.0017627232 0)
(0.30778356 0.0017053812 0)
(0.3048671 0.0016504991 0)
(0.30200516 0.0015979319 0)
(0.29919644 0.0015475456 0)
(0.29643966 0.0014992166 0)
(0.29373355 0.0014528312 0)
(0.29107689 0.0014082849 0)
(0.2884685 0.0013654804 0)
(0.28590721 0.001324326 0)
(0.28339192 0.0012847344 0)
(0.28092155 0.0012466208 0)
(0.27849505 0.0012099035 0)
(0.27611144 0.0011745037 0)
(0.27376977 0.0011403473 0)
(0.27146914 0.0011073654 0)
(0.26920868 0.001075496 0)
(0.26698758 0.0010446839 0)
(0.26480504 0.0010148798 0)
(0.26266031 0.0009860377 0)
(0.26055264 0.00095811269 0)
(0.25848137 0.00093105773 0)
(0.25644583 0.000904824 0)
(0.25444541 0.00087936151 0)
(0.25247956 0.00085462299 0)
(0.25054776 0.00083056665 0)
(0.24864952 0.00080715919 0)
(0.24678441 0.0007843748 0)
(0.24495199 0.00076219269 0)
(0.24315187 0.0007405912 0)
(0.24138367 0.00071954311 0)
(0.23964706 0.00069901171 0)
(0.23794175 0.00067895272 0)
(0.23626752 0.00065931907 0)
(0.23462421 0.00064007006 0)
(0.23301169 0.00062117783 0)
(0.23142987 0.00060263125 0)
(0.22987867 0.00058443196 0)
(0.22835798 0.00056658699 0)
(0.22686774 0.00054909728 0)
(0.22540785 0.00053194982 0)
(0.22397832 0.0005151128 0)
(0.22257919 0.00049853906 0)
(0.22121064 0.00048217335 0)
(0.21987294 0.000465964 0)
(0.21856647 0.00044987172 0)
(0.21729164 0.00043387587 0)
(0.21604894 0.00041797354 0)
(0.2148388 0.00040217602 0)
(0.21366167 0.0003865012 0)
(0.21251794 0.0003709674 0)
(0.21140799 0.00035558724 0)
(0.21033217 0.00034036602 0)
(0.20929083 0.00032530159 0)
(0.20828436 0.0003103882 0)
(0.20731311 0.00029561937 0)
(0.20637749 0.00028099216 0)
(0.20547786 0.00026650899 0)
(0.2046146 0.00025217998 0)
(0.20378799 0.00023802189 0)
(0.20299831 0.00022405761 0)
(0.20224569 0.00021031362 0)
(0.20153022 0.00019681948 0)
(0.20085184 0.00018360616 0)
(0.2002104 0.00017070689 0)
(0.19960557 0.00015815726 0)
(0.19903693 0.00014599736 0)
(0.19850381 0.00013427217 0)
(0.19800544 0.0001230333 0)
(0.19754072 0.00011233847 0)
(0.19710846 0.00010225153 0)
(0.19670706 9.2839199e-05 0)
(0.19633482 8.4167643e-05 0)
(0.19598964 7.6295131e-05 0)
(0.19566939 6.9264621e-05 0)
(0.19537161 6.3093585e-05 0)
(0.19509401 5.7766229e-05 0)
(0.19483411 5.3226282e-05 0)
(0.1945899 4.9376573e-05 0)
(0.19435941 4.6083633e-05 0)
(0.19414139 4.3192234e-05 0)
(0.19393468 4.0544206e-05 0)
(0.19373896 3.8001323e-05 0)
(0.19355386 3.5462628e-05 0)
(0.19337967 3.2875837e-05 0)
(0.19321628 3.0236814e-05 0)
(0.19306406 2.7581624e-05 0)
(0.19292267 2.497002e-05 0)
(0.19279216 2.2467643e-05 0)
(0.19267174 2.01285e-05 0)
(0.1925612 1.7984482e-05 0)
(0.19245948 1.6042136e-05 0)
(0.19236638 1.4287591e-05 0)
(0.19228082 1.2695677e-05 0)
(0.19220279 1.1239277e-05 0)
(0.19213129 9.8964156e-06 0)
(0.19206649 8.6523478e-06 0)
(0.19200742 7.4997679e-06 0)
(0.19195438 6.4351678e-06 0)
(0.19190634 5.4576896e-06 0)
(0.19186368 4.565223e-06 0)
(0.19182531 3.7558313e-06 0)
(0.19179172 3.0250662e-06 0)
(0.19176173 2.3687552e-06 0)
(0.191736 1.7805743e-06 0)
(0.19171322 1.2560285e-06 0)
(0.19169424 7.8871806e-07 0)
(0.19167765 3.6922889e-07 0)
(0.19166445 -7.2571984e-09 0)
(0.19165312 -3.3327292e-07 0)
(0.19164485 -6.1649728e-07 0)
(0.19163794 -8.7219417e-07 0)
(0.19163376 -1.0848882e-06 0)
(0.19163046 -1.2540042e-06 0)
(0.19162959 -1.3886381e-06 0)
(0.1916291 -1.4838549e-06 0)
(0.19163079 -1.5522261e-06 0)
(0.19163239 -1.5916743e-06 0)
(0.19163598 -1.6139365e-06 0)
(0.19163906 -1.6147337e-06 0)
(0.19164399 -1.6051081e-06 0)
(0.19164802 -1.579496e-06 0)
(0.19165382 -1.5501582e-06 0)
(0.19165836 -1.5044765e-06 0)
(0.19166461 -1.4578408e-06 0)
(0.19166925 -1.3943755e-06 0)
(0.19167558 -1.3341433e-06 0)
(0.19167997 -1.2558271e-06 0)
(0.19168608 -1.1857766e-06 0)
(0.19168996 -1.0961926e-06 0)
(0.19169561 -1.0210214e-06 0)
(0.19169879 -9.2559911e-07 0)
(0.19170383 -8.5067723e-07 0)
(0.19170621 -7.5249531e-07 0)
(0.19171055 -6.8171479e-07 0)
(0.19171212 -5.8248308e-07 0)
(0.19171571 -5.1863021e-07 0)
(0.19171651 -4.1930689e-07 0)
(0.19171931 -3.6544211e-07 0)
(0.19171944 -2.670918e-07 0)
(0.19172142 -2.2702269e-07 0)
(0.19172105 -1.3082212e-07 0)
(0.19172212 -1.0991855e-07 0)
(0.19172155 -1.6580036e-08 0)
(0.48415064 0.014126713 0)
(0.48504823 0.017512437 0)
(0.48710779 0.020357547 0)
(0.4900846 0.022063231 0)
(0.49335192 0.022744012 0)
(0.49638619 0.022774262 0)
(0.49897946 0.022362453 0)
(0.50109887 0.021540245 0)
(0.50272922 0.020323082 0)
(0.50381396 0.018819224 0)
(0.50430383 0.017214506 0)
(0.50420958 0.015699532 0)
(0.5036206 0.014393643 0)
(0.50266786 0.013329331 0)
(0.5014753 0.012473789 0)
(0.50012756 0.011776281 0)
(0.49866723 0.011193347 0)
(0.4971079 0.010692889 0)
(0.49544834 0.01025147 0)
(0.49368205 0.0098519367 0)
(0.4918027 0.0094821109 0)
(0.48980649 0.0091338585 0)
(0.48769278 0.008802176 0)
(0.48546369 0.0084842923 0)
(0.48312342 0.0081788649 0)
(0.48067755 0.007885333 0)
(0.47813247 0.0076034454 0)
(0.47549502 0.0073330079 0)
(0.4727722 0.0070737542 0)
(0.46997104 0.0068253156 0)
(0.46709851 0.0065872431 0)
(0.46416142 0.0063590446 0)
(0.46116637 0.0061402181 0)
(0.45811975 0.0059302731 0)
(0.45502771 0.0057287441 0)
(0.45189617 0.0055351963 0)
(0.44873078 0.005349229 0)
(0.44553698 0.0051704753 0)
(0.44231994 0.0049986015 0)
(0.43908456 0.0048333036 0)
(0.43583552 0.0046743045 0)
(0.43257722 0.0045213487 0)
(0.42931378 0.0043741989 0)
(0.42604907 0.0042326303 0)
(0.42278671 0.0040964287 0)
(0.41953003 0.0039653873 0)
(0.4162821 0.0038393064 0)
(0.41304577 0.0037179918 0)
(0.40982362 0.0036012555 0)
(0.40661801 0.0034889147 0)
(0.40343109 0.0033807923 0)
(0.40026478 0.0032767164 0)
(0.39712083 0.0031765211 0)
(0.39400082 0.0030800456 0)
(0.39090612 0.0029871351 0)
(0.38783799 0.0028976396 0)
(0.38479751 0.0028114142 0)
(0.38178564 0.0027283182 0)
(0.37880318 0.0026482157 0)
(0.37585085 0.002570975 0)
(0.37292923 0.0024964707 0)
(0.3700388 0.0024245831 0)
(0.36717995 0.0023551994 0)
(0.36435298 0.0022882123 0)
(0.36155812 0.0022235198 0)
(0.35879553 0.0021610227 0)
(0.35606532 0.0021006241 0)
(0.35336756 0.002042228 0)
(0.35070225 0.0019857399 0)
(0.34806941 0.0019310669 0)
(0.345469 0.0018781206 0)
(0.34290097 0.0018268176 0)
(0.34036526 0.0017770818 0)
(0.33786179 0.0017288443 0)
(0.33539046 0.0016820432 0)
(0.33295117 0.0016366201 0)
(0.33054378 0.0015925169 0)
(0.32816818 0.0015496726 0)
(0.32582424 0.0015080229 0)
(0.32351183 0.0014675013 0)
(0.32123083 0.0014280438 0)
(0.31898116 0.0013895929 0)
(0.31676271 0.0013521013 0)
(0.31457543 0.0013155312 0)
(0.31241925 0.0012798519 0)
(0.31029413 0.001245032 0)
(0.30820003 0.0012110333 0)
(0.30613696 0.0011778057 0)
(0.30410491 0.0011452888 0)
(0.30210394 0.001113418 0)
(0.30013413 0.0010821362 0)
(0.2981956 0.0010514027 0)
(0.29628846 0.0010211984 0)
(0.29441288 0.00099152123 0)
(0.29256898 0.00096237618 0)
(0.29075693 0.00093376006 0)
(0.28897687 0.00090565073 0)
(0.28722902 0.00087799991 0)
(0.28551363 0.00085073806 0)
(0.28383107 0.00082378405 0)
(0.28218179 0.00079706202 0)
(0.28056636 0.00077051358 0)
(0.27898539 0.00074410728 0)
(0.27743956 0.00071783704 0)
(0.27592955 0.00069171791 0)
(0.27445603 0.00066577458 0)
(0.27301965 0.0006400332 0)
(0.271621 0.00061451165 0)
(0.27026068 0.00058921801 0)
(0.26893927 0.00056414945 0)
(0.26765737 0.00053929874 0)
(0.26641554 0.00051465745 0)
(0.26521441 0.00049022332 0)
(0.26405454 0.000466002 0)
(0.26293655 0.00044201182 0)
(0.26186092 0.00041828095 0)
(0.26082816 0.00039484824 0)
(0.25983859 0.00037175807 0)
(0.25889251 0.0003490612 0)
(0.25799 0.00032681037 0)
(0.2571311 0.00030506339 0)
(0.25631554 0.0002838811 0)
(0.25554306 0.00026333242 0)
(0.254813 0.00024349238 0)
(0.25412469 0.00022444694 0)
(0.25347703 0.00020628935 0)
(0.25286886 0.00018912254 0)
(0.25229855 0.0001730509 0)
(0.25176441 0.00015817775 0)
(0.25126421 0.0001445908 0)
(0.25079581 0.00013235436 0)
(0.25035653 0.00012149079 0)
(0.249944 0.00011197323 0)
(0.24955547 0.00010371164 0)
(0.24918877 9.6557206e-05 0)
(0.24884157 9.0305359e-05 0)
(0.24851241 8.4722309e-05 0)
(0.24819975 7.9567894e-05 0)
(0.24790306 7.4634466e-05 0)
(0.24762156 6.9766853e-05 0)
(0.24735544 6.4885009e-05 0)
(0.24710426 5.9977234e-05 0)
(0.24686841 5.5094949e-05 0)
(0.24664729 5.0321633e-05 0)
(0.24644105 4.5753701e-05 0)
(0.24624867 4.1467256e-05 0)
(0.24607005 3.7510478e-05 0)
(0.24590384 3.3890504e-05 0)
(0.24574992 3.0589058e-05 0)
(0.24560686 2.7566392e-05 0)
(0.24547473 2.4784292e-05 0)
(0.24535214 2.2206335e-05 0)
(0.24523938 1.9811561e-05 0)
(0.24513505 1.7583972e-05 0)
(0.24503964 1.5519022e-05 0)
(0.24495166 1.3610029e-05 0)
(0.24487175 1.1855228e-05 0)
(0.24479832 1.0246465e-05 0)
(0.24473217 8.7790907e-06 0)
(0.24467159 7.4421203e-06 0)
(0.24461759 6.2285256e-06 0)
(0.24456833 5.1263796e-06 0)
(0.24452502 4.1283514e-06 0)
(0.24448568 3.2258726e-06 0)
(0.24445178 2.4133034e-06 0)
(0.24442112 1.68345e-06 0)
(0.24439544 1.0342502e-06 0)
(0.24437233 4.4568821e-07 0)
(0.24435376 -6.371597e-08 0)
(0.2443371 -4.9663105e-07 0)
(0.24432459 -8.5923116e-07 0)
(0.24431331 -1.1717181e-06 0)
(0.24430583 -1.424185e-06 0)
(0.24429895 -1.6200614e-06 0)
(0.24429556 -1.7730852e-06 0)
(0.24429215 -1.8843358e-06 0)
(0.24429199 -1.9618624e-06 0)
(0.24429121 -2.0065749e-06 0)
(0.24429349 -2.0296204e-06 0)
(0.24429456 -2.0209515e-06 0)
(0.24429853 -1.9957039e-06 0)
(0.24430074 -1.9410312e-06 0)
(0.24430573 -1.8783017e-06 0)
(0.24430842 -1.7862642e-06 0)
(0.24431382 -1.6956951e-06 0)
(0.24431646 -1.5760303e-06 0)
(0.24432182 -1.4689717e-06 0)
(0.24432401 -1.3333493e-06 0)
(0.24432898 -1.2213647e-06 0)
(0.24433047 -1.077614e-06 0)
(0.24433484 -9.6976885e-07 0)
(0.24433553 -8.2279146e-07 0)
(0.24433916 -7.2545495e-07 0)
(0.24433905 -5.7771084e-07 0)
(0.24434188 -4.9661964e-07 0)
(0.24434107 -3.4979547e-07 0)
(0.24434305 -2.911862e-07 0)
(0.24434171 -1.4637474e-07 0)
(0.24434277 -1.1728231e-07 0)
(0.2443412 2.1721569e-08 0)
(0.48581228 0.013691264 0)
(0.48664715 0.016456573 0)
(0.48834211 0.018929548 0)
(0.49079065 0.020625735 0)
(0.49361369 0.021424773 0)
(0.49638622 0.021536829 0)